Title
82262
    1SAPS     N    1   6.504   1.358  10.640 -1.0417  0.0130  0.2476
    1SAPS   HN1    2   6.506   1.439  10.706 -0.8950 -1.1228  1.6870
    1SAPS   HN2    3   6.517   1.396  10.544  0.8439 -0.0768  0.4410
    1SAPS   HN3    4   6.410   1.315  10.653 -0.4967 -1.5733 -0.7988
    1SAPS   C12    5   6.603   1.255  10.676  0.7527 -0.7022 -0.0003
    1SAPS  H12A    6   6.613   1.199  10.584  2.2402 -3.2355  1.5685
    1SAPS   C13    7   6.738   1.308  10.713 -0.1960  0.6337 -0.3611
    1SAPS  O13A    8   6.767   1.433  10.708  0.0807 -0.0061 -0.2788
    1SAPS  O13B    9   6.830   1.222  10.736 -0.1401 -0.4552  0.3902
    1SAPS   C11   10   6.541   1.187  10.790  0.4400 -0.5591  0.1300
    1SAPS  H11A   11   6.503   1.253  10.870  1.2511  1.0746 -0.7840
    1SAPS  H11B   12   6.617   1.126  10.844  0.2317 -0.3831  0.6261
    1SAPS     P   13   6.460   0.948  10.714 -0.3969  0.3812 -0.5117
    1SAPS   O13   14   6.606   0.917  10.703  0.0583  0.6362  0.1946
    1SAPS   O14   15   6.377   0.868  10.812 -0.4164  0.2217  0.1129
    1SAPS   O12   16   6.439   1.102  10.740 -0.1821  0.7863 -0.3547
    1SAPS   O11   17   6.389   0.913  10.577 -0.5953 -0.1404 -0.2450
    1SAPS    C1   18   6.257   0.957  10.551  0.3036 -0.2687 -0.3653
    1SAPS    HA   19   6.186   0.871  10.555 -2.2616  1.7588  0.4578
    1SAPS    HB   20   6.207   1.032  10.616 -1.2847 -0.4030 -1.3749
    1SAPS    C2   21   6.247   1.015  10.411  0.2234 -0.1837 -0.7686
    1SAPS    HS   22   6.138   1.028  10.392  0.0155  4.0944  1.9143
    1SAPS   O21   23   6.313   0.929  10.317 -0.2221 -0.4037  0.1590
    1SAPS   C21   24   6.238   0.837  10.262 -0.4676  0.4173 -0.1228
    1SAPS   O22   25   6.121   0.814  10.291 -0.7342  0.3087  0.0618
    1SAPS   C22   26   6.311   0.771  10.144  0.5015  0.0229  1.0541
    1SAPS   H2R   27   6.325   0.852  10.070  0.9925  0.6140  1.7805
    1SAPS   H2S   28   6.404   0.734  10.192  3.3603  0.5063 -3.5640
    1SAPS    C3   29   6.308   1.162  10.407 -0.1704 -0.6645  1.0027
    1SAPS    HX   30   6.418   1.148  10.399 -0.0204  0.9904 -0.4576
    1SAPS    HY   31   6.273   1.202  10.505 -3.0182 -2.4859  0.8280
    1SAPS   O31   32   6.271   1.235  10.288  0.0668 -0.1494 -0.2595
    1SAPS   C31   33   6.329   1.354  10.286 -0.2034 -0.6526  0.3318
    1SAPS   O32   34   6.412   1.392  10.366  0.0973 -0.3305  0.0093
    1SAPS   C32   35   6.273   1.434  10.159 -0.2331  0.6831 -0.7412
    1SAPS   H2X   36   6.367   1.478  10.119  1.0510 -1.2198  0.0237
    1SAPS   H2Y   37   6.194   1.503  10.195 -3.8418 -1.6605 -3.5559
    1SAPS   C23   38   6.240   0.636  10.090 -0.1699 -0.8900 -0.1316
    1SAPS   H3R   39   6.138   0.669  10.059 -0.2734 -0.2802  0.8225
    1SAPS   H3S   40   6.241   0.554  10.164  1.4173 -1.3607 -0.6280
    1SAPS   C24   41   6.308   0.581   9.962 -0.0903 -1.1232  0.1665
    1SAPS   H4R   42   6.288   0.664   9.891 -4.0453 -1.5023  0.5879
    1SAPS   H4S   43   6.240   0.495   9.941  0.4194 -1.1086 -1.7348
    1SAPS   C25   44   6.450   0.537   9.996 -0.0858  0.2126  0.2193
    1SAPS   H5R   45   6.459   0.449  10.060  0.5296 -0.5949 -0.9283
    1SAPS   C26   46   6.565   0.586   9.937  0.3059 -0.4330 -0.0275
    1SAPS   H6R   47   6.658   0.540   9.973  1.0721  1.3324  0.3666
    1SAPS   C27   48   6.582   0.696   9.836 -0.4824 -0.0952  0.0280
    1SAPS   H7R   49   6.659   0.768   9.871 -0.5061  0.2349 -0.5743
    1SAPS   H7S   50   6.496   0.766   9.835  2.2018  3.4917 -0.9432
    1SAPS   C28   51   6.615   0.670   9.692 -0.0950 -0.6282  0.4960
    1SAPS   H8R   52   6.722   0.689   9.676 -0.3960 -0.8650 -2.4725
    1SAPS   C29   53   6.543   0.618   9.590 -0.3000  0.0240  0.1774
    1SAPS   H9R   54   6.590   0.613   9.490 -1.7585  1.7194 -0.6416
    1SAPS  C210   55   6.402   0.555   9.604  0.4225 -0.3791 -0.3132
    1SAPS  H10R   56   6.365   0.591   9.703 -0.8329  0.0609 -0.9208
    1SAPS  H10S   57   6.416   0.446   9.618  2.1394  0.0146  1.5606
    1SAPS  C211   58   6.312   0.586   9.496  0.1905 -0.6025  0.5499
    1SAPS  H11R   59   6.239   0.659   9.534 -1.5434 -1.6213 -0.6546
    1SAPS  C212   60   6.294   0.544   9.369  0.4236  0.8556 -0.4376
    1SAPS  H12R   61   6.210   0.580   9.309 -0.2322  1.3507  0.7493
    1SAPS  C213   62   6.379   0.437   9.307  0.5368  0.0968  0.3411
    1SAPS  H13R   63   6.300   0.360   9.290  1.7009 -1.0577 -0.0224
    1SAPS  H13S   64   6.448   0.391   9.380  0.7635 -0.9676 -0.5153
    1SAPS  C214   65   6.451   0.470   9.178 -0.1127 -0.2845  0.2167
    1SAPS  H14R   66   6.551   0.510   9.201 -0.0156 -1.5597  2.1981
    1SAPS  C215   67   6.401   0.452   9.055  0.0523 -0.9826 -0.4576
    1SAPS  H15R   68   6.470   0.465   8.970  0.3818  0.1772 -0.0317
    1SAPS  C216   69   6.267   0.414   9.020 -0.9247  0.1722  0.8307
    1SAPS  H16R   70   6.203   0.504   9.010 -2.3075 -0.8808 -0.4308
    1SAPS  H16S   71   6.224   0.362   9.109  0.5974 -1.6942  0.5537
    1SAPS  C217   72   6.255   0.320   8.895  0.5654 -0.1488 -0.2288
    1SAPS  H17R   73   6.156   0.268   8.901  1.6917 -2.3538  0.4135
    1SAPS  H17S   74   6.334   0.243   8.881  3.0038  2.3564 -1.1117
    1SAPS  C218   75   6.281   0.397   8.763  0.6123  0.2800 -0.0107
    1SAPS  H18R   76   6.387   0.429   8.771  1.1539 -1.3750 -0.1973
    1SAPS  H18S   77   6.215   0.486   8.756  0.1417  0.0246  0.9892
    1SAPS  C219   78   6.244   0.316   8.639  0.2825  0.2236  0.2821
    1SAPS  H19R   79   6.133   0.306   8.639  0.3517 -0.5699 -0.1993
    1SAPS  H19S   80   6.287   0.214   8.634  0.6442  0.3543  0.6788
    1SAPS  C220   81   6.294   0.381   8.510  0.0158  0.2980 -0.1168
    1SAPS  H20R   82   6.405   0.383   8.513  0.1272 -1.6431 -1.2290
    1SAPS  H20S   83   6.249   0.483   8.511 -0.0901  0.3201 -2.6065
    1SAPS  H20T   84   6.271   0.324   8.418  2.1141  1.8382 -1.6877
    1SAPS   C33   85   6.211   1.348  10.052 -0.4431  0.3496  0.1136
    1SAPS   H3X   86   6.119   1.307  10.100 -1.1702  2.2094  0.4077
    1SAPS   H3Y   87   6.270   1.264  10.011  0.4394  0.2470  1.5222
    1SAPS   C34   88   6.175   1.454   9.940 -0.5623  0.7517  0.2270
    1SAPS   H4X   89   6.259   1.521   9.914 -1.3369  2.1590  1.2382
    1SAPS   H4Y   90   6.101   1.519   9.991  0.8535  0.1511  3.3248
    1SAPS   C35   91   6.122   1.374   9.815 -0.9377  0.4355 -1.0494
    1SAPS   H5X   92   6.050   1.300   9.857 -1.1902  0.3660 -1.5933
    1SAPS   H5Y   93   6.210   1.324   9.769 -0.4022 -0.1748  0.5514
    1SAPS   C36   94   6.058   1.461   9.712  0.4000 -0.0661 -0.0493
    1SAPS   H6X   95   6.128   1.543   9.683  1.7597 -0.5764  1.6238
    1SAPS   H6Y   96   5.971   1.513   9.757 -0.3073 -1.8691  0.7421
    1SAPS   C37   97   6.031   1.378   9.588  0.8247  0.7062 -0.3646
    1SAPS   H7X   98   5.939   1.319   9.608  0.9645  0.6694  0.1877
    1SAPS   H7Y   99   6.112   1.304   9.570  2.1138  2.1224 -0.5036
    1SAPS   C38  100   6.012   1.458   9.460  0.6322  0.0053  0.6794
    1SAPS   H8X  101   6.100   1.522   9.439  1.1384 -1.3634 -1.7288
    1SAPS   H8Y  102   5.927   1.526   9.481  0.9215  1.5181 -2.4466
    1SAPS   C39  103   5.979   1.374   9.335  0.2225  0.5233 -0.5185
    1SAPS   H9X  104   5.878   1.329   9.342 -0.9505  2.3895 -3.3079
    1SAPS   H9Y  105   6.065   1.306   9.317  0.9032  1.3421 -0.4618
    1SAPS  C310  106   5.953   1.471   9.228  0.4874 -0.6135  0.4610
    1SAPS  H10X  107   6.038   1.542   9.220 -1.2849  1.5482 -0.2104
    1SAPS  H10Y  108   5.875   1.547   9.248 -1.5854 -2.1936 -1.2052
    1SAPS  C311  109   5.922   1.418   9.089 -0.1396  0.0718 -0.5577
    1SAPS  H11X  110   5.961   1.314   9.091 -1.5877 -0.5250  1.9842
    1SAPS  H11Y  111   5.977   1.485   9.019 -2.7418  2.0412 -0.8617
    1SAPS  C312  112   5.772   1.416   9.050 -0.5698 -0.5508  0.4662
    1SAPS  H12X  113   5.722   1.515   9.043  0.4644 -0.1061 -1.2681
    1SAPS  H12Y  114   5.719   1.363   9.132 -0.6049 -0.1986  0.6729
    1SAPS  C313  115   5.753   1.321   8.929  0.0013 -0.6822 -0.5405
    1SAPS  H13X  116   5.818   1.233   8.946 -0.6245 -1.1752 -0.6492
    1SAPS  H13Y  117   5.789   1.361   8.832 -1.2979 -1.1072 -1.2288
    1SAPS  C314  118   5.602   1.293   8.898 -0.4097  0.5407  0.1107
    1SAPS  H14X  119   5.537   1.383   8.908 -0.6724  0.2076  1.8316
    1SAPS  H14Y  120   5.575   1.241   8.992 -0.9209  1.0072  0.2316
    1SAPS  C315  121   5.563   1.200   8.781 -0.7737 -1.0681  0.1027
    1SAPS  H15X  122   5.453   1.192   8.770 -0.9645  2.0022 -1.5895
    1SAPS  H15Y  123   5.603   1.100   8.807  0.1001 -0.4991  1.0068
    1SAPS  C316  124   5.627   1.249   8.646 -0.0169 -0.0623 -0.4451
    1SAPS  H16X  125   5.737   1.242   8.654  0.2250  0.5691 -2.7381
    1SAPS  H16Y  126   5.590   1.350   8.621 -0.1221  0.8958  3.0594
    1SAPS  C317  127   5.588   1.164   8.523 -0.2815 -0.0784 -0.0541
    1SAPS  H17X  128   5.613   1.222   8.431  2.0529  0.1553  0.6510
    1SAPS  H17Y  129   5.478   1.149   8.532 -0.4863  0.3252 -1.5987
    1SAPS  C318  130   5.649   1.024   8.518 -0.1844  0.3932 -0.0062
    1SAPS  H18X  131   5.605   0.980   8.426  0.3599  0.6055 -0.3706
    1SAPS  H18Y  132   5.624   0.958   8.604 -0.5316  0.9480  0.3311
    1SAPS  H18Z  133   5.756   1.026   8.491 -0.5559 -0.5096 -1.6306
    2SAPS     N  134   4.921   6.482  10.815  0.2180 -0.8121 -0.1276
    2SAPS   HN1  135   4.825   6.463  10.781  0.0945 -2.0472  0.8367
    2SAPS   HN2  136   4.986   6.403  10.800  1.0557 -0.0781 -0.4570
    2SAPS   HN3  137   4.923   6.508  10.916 -1.8032  0.4454 -0.3548
    2SAPS   C12  138   4.978   6.601  10.743 -0.6065  0.0419  0.4882
    2SAPS  H12A  139   4.922   6.676  10.798  0.8412 -0.5423  2.9539
    2SAPS   C13  140   5.132   6.626  10.757  0.2232  0.6893 -0.8484
    2SAPS  O13A  141   5.201   6.526  10.797 -0.2118 -0.0360 -0.4643
    2SAPS  O13B  142   5.188   6.728  10.716 -0.4232  0.3761 -0.6029
    2SAPS   C11  143   4.949   6.589  10.597 -0.1967  0.2333  0.6901
    2SAPS  H11A  144   5.002   6.507  10.543 -2.8998 -1.1433 -0.0394
    2SAPS  H11B  145   4.984   6.673  10.533 -0.1155  0.0359  0.4711
    2SAPS     P  146   4.708   6.644  10.492 -0.2228 -0.1535  0.3887
    2SAPS   O13  147   4.576   6.571  10.482 -0.4198 -0.2229  0.2516
    2SAPS   O14  148   4.708   6.783  10.542 -0.2282  0.5539 -0.1547
    2SAPS   O12  149   4.810   6.558  10.575  0.4030  0.3247 -0.6962
    2SAPS   O11  150   4.776   6.640  10.347  0.1295 -0.1797  0.5218
    2SAPS    C1  151   4.796   6.517  10.277 -0.3969 -0.2419 -1.3941
    2SAPS    HA  152   4.808   6.428  10.343  0.1151 -0.0909 -1.2796
    2SAPS    HB  153   4.723   6.490  10.198 -2.1621 -1.5760  0.5684
    2SAPS    C2  154   4.935   6.522  10.204  0.0091  0.5195 -1.3024
    2SAPS    HS  155   5.012   6.535  10.283  2.1428 -5.4383 -1.9057
    2SAPS   O21  156   4.934   6.632  10.103 -0.0236  0.0773  0.1375
    2SAPS   C21  157   5.059   6.661  10.063  0.3284 -0.3999 -0.3145
    2SAPS   O22  158   5.161   6.609  10.109  0.0871  0.2461  0.4459
    2SAPS   C22  159   5.058   6.761   9.950 -1.0877 -0.2408  0.4010
    2SAPS   H2R  160   5.069   6.695   9.860 -3.5343 -1.8524  1.1987
    2SAPS   H2S  161   4.963   6.818   9.953 -1.1570 -0.3509  0.3168
    2SAPS    C3  162   4.955   6.381  10.132  0.1731  0.2921  0.4751
    2SAPS    HX  163   4.936   6.303  10.208 -0.3517 -0.0378  0.0099
    2SAPS    HY  164   5.060   6.381  10.097 -0.1170  0.8205 -0.4188
    2SAPS   O31  165   4.861   6.358  10.026 -0.4766  0.1967 -0.1387
    2SAPS   C31  166   4.908   6.378   9.900  0.5006 -0.3523 -0.0807
    2SAPS   O32  167   5.015   6.423   9.869 -0.8358  0.2447  0.1566
    2SAPS   C32  168   4.804   6.341   9.796 -0.3520  0.0034  0.5355
    2SAPS   H2X  169   4.707   6.317   9.844 -1.7489  2.7768 -0.6555
    2SAPS   H2Y  170   4.833   6.258   9.729  1.7859 -0.0279  1.4318
    2SAPS   C23  171   5.181   6.848   9.959  0.1298 -0.0943  0.1851
    2SAPS   H3R  172   5.277   6.800   9.932  0.6000  1.7017 -1.5857
    2SAPS   H3S  173   5.182   6.877  10.066  0.2451 -1.2611  0.5127
    2SAPS   C24  174   5.171   6.971   9.867 -0.2351  0.0474  0.0389
    2SAPS   H4R  175   5.169   6.923   9.767  0.1377  0.1946 -0.0413
    2SAPS   H4S  176   5.266   7.027   9.873 -0.2832  0.4388 -2.1431
    2SAPS   C25  177   5.063   7.067   9.900  0.2248 -0.7475  0.0008
    2SAPS   H5R  178   5.059   7.104  10.003  0.4125 -0.3620 -0.1307
    2SAPS   C26  179   4.968   7.112   9.810 -0.6114  0.1965  0.2776
    2SAPS   H6R  180   4.891   7.183   9.844 -0.0117  2.2273 -2.2978
    2SAPS   C27  181   4.962   7.080   9.659 -0.9027 -0.5339  0.1952
    2SAPS   H7R  182   4.854   7.086   9.634 -0.6561  0.0479 -0.8128
    2SAPS   H7S  183   4.976   6.970   9.654  1.3170 -0.4065  2.0391
    2SAPS   C28  184   5.056   7.155   9.560  0.6462  0.1168 -0.0047
    2SAPS   H8R  185   5.068   7.263   9.580 -0.0069  0.0953  0.5786
    2SAPS   C29  186   5.119   7.102   9.453 -0.7323  0.4928 -0.0762
    2SAPS   H9R  187   5.185   7.175   9.404  0.9306  0.3172  1.7703
    2SAPS  C210  188   5.127   6.962   9.398 -0.0158  0.3990 -0.8598
    2SAPS  H10R  189   5.170   6.975   9.296  2.8816 -1.7262 -0.0536
    2SAPS  H10S  190   5.025   6.920   9.384  0.1768 -0.5014  0.3027
    2SAPS  C211  191   5.232   6.873   9.460  0.7610  0.4140 -0.3051
    2SAPS  H11R  192   5.324   6.927   9.488  0.8994  0.0055  0.0364
    2SAPS  C212  193   5.215   6.745   9.490 -0.5577  0.1100  0.1954
    2SAPS  H12R  194   5.303   6.692   9.527  0.1674  1.6555  0.7864
    2SAPS  C213  195   5.089   6.664   9.471  0.1911 -0.2953 -0.1533
    2SAPS  H13R  196   5.057   6.683   9.366  0.7083 -1.0905 -0.4676
    2SAPS  H13S  197   5.013   6.712   9.536  1.0977  2.4729 -0.9863
    2SAPS  C214  198   5.102   6.515   9.495 -0.0487  0.1083 -0.6727
    2SAPS  H14R  199   5.069   6.483   9.595 -3.1866  1.3378 -1.2192
    2SAPS  C215  200   5.145   6.421   9.403  0.2807  0.5937 -0.4588
    2SAPS  H15R  201   5.161   6.316   9.434  0.9222  0.6147 -0.7014
    2SAPS  C216  202   5.197   6.438   9.262  0.1216  0.1328  0.1334
    2SAPS  H16R  203   5.309   6.438   9.259  0.1540  0.1651  0.9547
    2SAPS  H16S  204   5.175   6.542   9.230  1.4465  0.5600  0.5301
    2SAPS  C217  205   5.130   6.336   9.161 -0.8073 -0.3601 -0.1445
    2SAPS  H17R  206   5.027   6.376   9.147  0.6411  3.9503 -0.0656
    2SAPS  H17S  207   5.137   6.233   9.200  0.2584 -0.7006 -1.1791
    2SAPS  C218  208   5.211   6.327   9.019 -0.3347  0.5401 -0.9688
    2SAPS  H18R  209   5.319   6.303   9.029  0.2508  1.2707 -4.2806
    2SAPS  H18S  210   5.201   6.427   8.972  1.2477  1.0946 -0.1930
    2SAPS  C219  211   5.149   6.222   8.924 -0.3000 -0.9147  0.2473
    2SAPS  H19R  212   5.039   6.234   8.912 -0.4730 -0.9524  1.6021
    2SAPS  H19S  213   5.170   6.125   8.974  0.2841 -2.0125 -1.9789
    2SAPS  C220  214   5.213   6.205   8.783  0.1621 -0.0123  0.3558
    2SAPS  H20R  215   5.158   6.274   8.715  1.8647  0.9330 -0.1257
    2SAPS  H20S  216   5.195   6.103   8.744 -0.2487  0.2971 -0.2876
    2SAPS  H20T  217   5.323   6.221   8.774  0.1755 -0.4936 -0.4859
    2SAPS   C33  218   4.762   6.464   9.714 -0.0989  0.6124 -0.0855
    2SAPS   H3X  219   4.843   6.525   9.670 -0.1811  1.9278  1.4921
    2SAPS   H3Y  220   4.705   6.529   9.784 -0.6491 -0.8654  0.9039
    2SAPS   C34  221   4.669   6.432   9.591 -0.2620  0.2217  0.2224
    2SAPS   H4X  222   4.616   6.530   9.586 -2.5815 -0.8413  2.0954
    2SAPS   H4Y  223   4.602   6.347   9.613 -0.7106  0.1097 -1.4607
    2SAPS   C35  224   4.751   6.425   9.465  0.0812 -0.4201  0.1014
    2SAPS   H5X  225   4.824   6.342   9.463 -0.0153 -0.5196  0.5045
    2SAPS   H5Y  226   4.801   6.523   9.457 -2.0110  0.6487 -0.7585
    2SAPS   C36  227   4.662   6.401   9.336  0.3027  0.3961 -0.3423
    2SAPS   H6X  228   4.573   6.467   9.342 -0.8913 -1.0552 -1.4533
    2SAPS   H6Y  229   4.620   6.299   9.350 -0.0232  0.8176  2.4198
    2SAPS   C37  230   4.740   6.403   9.204 -0.1400  0.0770 -0.1597
    2SAPS   H7X  231   4.821   6.326   9.206 -0.1603 -0.0554 -2.1418
    2SAPS   H7Y  232   4.797   6.498   9.215  3.8163 -2.2166  1.0546
    2SAPS   C38  233   4.650   6.364   9.090  0.0010  0.0298  0.3818
    2SAPS   H8X  234   4.552   6.414   9.103  0.0880  0.1717  0.5018
    2SAPS   H8Y  235   4.629   6.255   9.098 -1.4181  0.1712 -1.0017
    2SAPS   C39  236   4.725   6.394   8.961 -0.2653  0.3309  0.5672
    2SAPS   H9X  237   4.813   6.327   8.949 -0.7056 -0.2643  0.6009
    2SAPS   H9Y  238   4.763   6.498   8.967 -0.5634  0.5623 -1.0347
    2SAPS  C310  239   4.635   6.390   8.838  0.0956  0.5589  0.9789
    2SAPS  H10X  240   4.541   6.439   8.871  0.3976  1.2764  0.7821
    2SAPS  H10Y  241   4.617   6.283   8.812  0.1353  0.6928  0.3870
    2SAPS  C311  242   4.697   6.459   8.716 -0.0186 -0.1934 -0.0177
    2SAPS  H11X  243   4.774   6.391   8.675 -0.2748 -0.2185 -0.4609
    2SAPS  H11Y  244   4.739   6.558   8.745 -1.0435  0.6407 -1.2477
    2SAPS  C312  245   4.587   6.472   8.605 -0.3855  0.0209 -0.1482
    2SAPS  H12X  246   4.510   6.549   8.629 -1.4175 -0.4385 -1.8454
    2SAPS  H12Y  247   4.536   6.374   8.593  1.1518 -0.6033 -2.0074
    2SAPS  C313  248   4.637   6.508   8.462 -0.5345 -0.3129  0.3157
    2SAPS  H13X  249   4.742   6.473   8.452  0.1693  1.8934 -0.6708
    2SAPS  H13Y  250   4.647   6.618   8.474 -0.5687 -0.2787  0.0267
    2SAPS  C314  251   4.547   6.461   8.351  0.2029  0.3683  0.7404
    2SAPS  H14X  252   4.517   6.354   8.359 -1.8320  0.7142 -1.3902
    2SAPS  H14Y  253   4.612   6.465   8.261 -0.2349  0.1114  0.4080
    2SAPS  C315  254   4.427   6.542   8.322  1.0898  0.2409  0.7348
    2SAPS  H15X  255   4.347   6.538   8.399 -0.9094  1.4742 -1.1838
    2SAPS  H15Y  256   4.386   6.501   8.227 -1.6786  0.3275  1.8180
    2SAPS  C316  257   4.441   6.695   8.296 -0.6071  0.0508 -0.2307
    2SAPS  H16X  258   4.483   6.742   8.387  0.1855 -1.3611  0.1593
    2SAPS  H16Y  259   4.336   6.728   8.280 -0.5978 -0.8946 -2.6454
    2SAPS  C317  260   4.513   6.741   8.172 -0.0113  0.0298 -0.6808
    2SAPS  H17X  261   4.446   6.757   8.085  0.7608  1.5088 -1.0478
    2SAPS  H17Y  262   4.580   6.661   8.133 -0.8825 -0.4545 -1.2119
    2SAPS  C318  263   4.598   6.868   8.213  0.2734  0.3668 -0.7996
    2SAPS  H18X  264   4.521   6.943   8.244 -1.8836 -1.2500 -1.9574
    2SAPS  H18Y  265   4.646   6.903   8.120 -0.1239 -1.1059 -1.5973
    2SAPS  H18Z  266   4.680   6.843   8.284 -0.6935 -0.2544  0.1364
    3SAPS     N  267   3.953   2.003  10.765  0.5669 -0.2317 -0.2555
    3SAPS   HN1  268   3.853   1.983  10.785  0.4253 -0.5168 -1.2390
    3SAPS   HN2  269   3.976   1.957  10.675 -0.1725  2.5004 -1.9664
    3SAPS   HN3  270   4.009   1.970  10.846  1.0798  2.1080  0.4285
    3SAPS   C12  271   3.973   2.148  10.731 -0.5895 -0.5941 -0.4750
    3SAPS  H12A  272   3.915   2.167  10.642 -0.1473 -1.0221 -0.8622
    3SAPS   C13  273   3.923   2.253  10.830  0.3725  0.4431  0.0216
    3SAPS  O13A  274   3.865   2.208  10.934 -0.3563  0.4730 -0.1288
    3SAPS  O13B  275   3.902   2.367  10.787 -0.6436  0.3777  0.1718
    3SAPS   C11  276   4.125   2.173  10.701  1.0282 -0.0949 -0.4922
    3SAPS  H11A  277   4.132   2.283  10.712  1.5869 -0.1538 -0.2258
    3SAPS  H11B  278   4.147   2.153  10.594  0.0534 -0.8488 -0.5648
    3SAPS     P  279   4.380   2.114  10.771  0.1443  0.1173 -0.5038
    3SAPS   O13  280   4.433   2.193  10.879  0.0586  0.1699 -0.0551
    3SAPS   O14  281   4.426   1.969  10.765  0.0181  0.0959 -0.1422
    3SAPS   O12  282   4.224   2.115  10.791  0.5251  0.0578  0.1958
    3SAPS   O11  283   4.427   2.171  10.624  0.0196  0.2544  0.2314
    3SAPS    C1  284   4.427   2.313  10.610 -0.3688  0.2249  0.5550
    3SAPS    HA  285   4.327   2.354  10.636 -0.3204 -0.9267  2.8105
    3SAPS    HB  286   4.491   2.368  10.682  0.3038 -0.5541  0.5576
    3SAPS    C2  287   4.462   2.358  10.466 -0.0264 -0.1655  0.3498
    3SAPS    HS  288   4.426   2.463  10.453 -1.7472 -0.7642 -0.0005
    3SAPS   O21  289   4.415   2.271  10.360 -0.4043 -0.2011  0.6851
    3SAPS   C21  290   4.285   2.263  10.360  0.7013  0.3822  0.4294
    3SAPS   O22  291   4.205   2.342  10.414  0.4153 -0.2510  0.5804
    3SAPS   C22  292   4.257   2.137  10.274 -0.6675 -0.1408 -0.0544
    3SAPS   H2R  293   4.350   2.076  10.265 -0.7365  0.0406 -2.7771
    3SAPS   H2S  294   4.183   2.070  10.322 -2.2739  0.4301 -1.6402
    3SAPS    C3  295   4.620   2.360  10.450 -0.5372 -0.7652  0.3085
    3SAPS    HX  296   4.671   2.262  10.459 -1.1469 -1.0701  0.4877
    3SAPS    HY  297   4.657   2.430  10.528 -2.0477  0.1703  0.2229
    3SAPS   O31  298   4.659   2.416  10.324  0.2273  0.2297 -0.3007
    3SAPS   C31  299   4.680   2.552  10.310  0.0795 -0.0053 -0.2051
    3SAPS   O32  300   4.624   2.634  10.385 -0.8940 -0.1238 -0.1338
    3SAPS   C32  301   4.769   2.581  10.191  0.5569  0.4426  0.8997
    3SAPS   H2X  302   4.835   2.494  10.169 -0.4456  0.0515 -0.7695
    3SAPS   H2Y  303   4.840   2.662  10.219  2.8521 -0.8607 -0.8022
    3SAPS   C23  304   4.221   2.178  10.134  0.1509 -0.2295  0.2333
    3SAPS   H3R  305   4.125   2.234  10.129  1.1526  1.4962 -0.7960
    3SAPS   H3S  306   4.203   2.084  10.077  0.9670 -1.0854  1.3491
    3SAPS   C24  307   4.325   2.254  10.049 -0.2892  0.9569  0.0812
    3SAPS   H4R  308   4.421   2.201  10.064 -0.9364 -0.1218  0.4812
    3SAPS   H4S  309   4.337   2.350  10.104 -1.9712  0.0987  2.0567
    3SAPS   C25  310   4.286   2.280   9.908  0.0338 -0.2984  0.3393
    3SAPS   H5R  311   4.197   2.344   9.898  0.1868 -0.0035  0.8061
    3SAPS   C26  312   4.345   2.234   9.793  0.3956  0.1235 -0.1098
    3SAPS   H6R  313   4.311   2.277   9.697  1.2890  2.1848  0.4614
    3SAPS   C27  314   4.456   2.141   9.781 -0.0506  0.1153  0.0725
    3SAPS   H7R  315   4.524   2.161   9.867 -0.1438 -0.4705  0.2871
    3SAPS   H7S  316   4.508   2.164   9.686 -0.8092  2.1937  0.1018
    3SAPS   C28  317   4.403   2.000   9.788 -0.1499 -0.2060 -0.7270
    3SAPS   H8R  318   4.377   1.969   9.890 -0.7336  1.0534 -0.4713
    3SAPS   C29  319   4.394   1.907   9.691  0.7653  0.1950  1.0138
    3SAPS   H9R  320   4.372   1.803   9.719 -0.3379  0.6041  1.7579
    3SAPS  C210  321   4.446   1.917   9.547  0.6449  0.2775 -0.2623
    3SAPS  H10R  322   4.476   1.814   9.516 -2.0942 -1.1563  1.4394
    3SAPS  H10S  323   4.521   1.999   9.539  0.6024  0.4380  0.8213
    3SAPS  C211  324   4.322   1.964   9.465 -0.1522 -0.1967 -0.0519
    3SAPS  H11R  325   4.284   2.062   9.495 -0.4951 -0.3498  0.0190
    3SAPS  C212  326   4.263   1.907   9.355 -0.0567 -0.0703 -0.1616
    3SAPS  H12R  327   4.183   1.961   9.301  0.9515 -0.8639 -2.6304
    3SAPS  C213  328   4.300   1.791   9.269  0.0423  0.1493 -0.3475
    3SAPS  H13R  329   4.215   1.773   9.201 -0.3894  1.6274 -0.2261
    3SAPS  H13S  330   4.303   1.696   9.328  0.4341 -0.7052 -1.6927
    3SAPS  C214  331   4.429   1.812   9.195  0.7059 -0.2929 -0.0449
    3SAPS  H14R  332   4.514   1.843   9.258  1.2366  0.4302 -1.0935
    3SAPS  C215  333   4.444   1.791   9.067  0.4878 -0.2426  0.2542
    3SAPS  H15R  334   4.545   1.813   9.030 -0.0663  0.4697 -0.8666
    3SAPS  C216  335   4.353   1.741   8.961 -0.3943  0.0293 -0.5382
    3SAPS  H16R  336   4.281   1.659   8.982 -2.5517  1.8793 -0.2070
    3SAPS  H16S  337   4.423   1.687   8.894  2.2415  1.2679  1.0417
    3SAPS  C217  338   4.271   1.838   8.881 -0.1511 -0.2781  0.4987
    3SAPS  H17R  339   4.335   1.927   8.864 -0.1840 -0.1473  1.0319
    3SAPS  H17S  340   4.184   1.848   8.949  0.5703 -2.5574  1.8779
    3SAPS  C218  341   4.245   1.784   8.745 -0.2016 -0.5065  0.7536
    3SAPS  H18R  342   4.200   1.683   8.741 -0.0011 -0.5633 -1.4154
    3SAPS  H18S  343   4.348   1.774   8.703  0.0707 -1.3516  1.5930
    3SAPS  C219  344   4.164   1.877   8.657  0.2560  0.0467 -0.1766
    3SAPS  H19R  345   4.188   1.873   8.549 -1.7216 -2.7841 -0.6222
    3SAPS  H19S  346   4.202   1.975   8.693 -0.2774  0.2029 -0.0290
    3SAPS  C220  347   4.014   1.863   8.679  0.0741  0.5010 -0.5817
    3SAPS  H20R  348   3.952   1.932   8.619  0.7382  1.7011  0.0811
    3SAPS  H20S  349   3.982   1.894   8.781 -0.6783  2.1451 -1.2898
    3SAPS  H20T  350   3.980   1.759   8.658  0.0766  0.3317  0.2137
    3SAPS   C33  351   4.700   2.611  10.055  0.9342  0.0113 -0.2411
    3SAPS   H3X  352   4.765   2.666   9.984  0.5315  1.5280  0.5164
    3SAPS   H3Y  353   4.613   2.675  10.083  1.6596 -0.5155  3.8908
    3SAPS   C34  354   4.646   2.484   9.984 -0.2889 -0.1911 -0.4322
    3SAPS   H4X  355   4.587   2.427  10.059  3.0513 -1.2027  1.6106
    3SAPS   H4Y  356   4.740   2.430   9.958  0.7291  2.0359 -1.6476
    3SAPS   C35  357   4.569   2.513   9.860  0.2451 -0.5377 -0.1610
    3SAPS   H5X  358   4.517   2.610   9.874  1.1233 -0.2756  1.5984
    3SAPS   H5Y  359   4.489   2.440   9.837 -0.9141  0.4554  0.5811
    3SAPS   C36  360   4.651   2.530   9.740  0.5554 -0.1946  0.0172
    3SAPS   H6X  361   4.703   2.437   9.708  1.8899  0.3112  0.6181
    3SAPS   H6Y  362   4.735   2.602   9.754 -0.0914  0.6638 -0.3674
    3SAPS   C37  363   4.572   2.581   9.616 -0.6097  0.1423  0.4789
    3SAPS   H7X  364   4.538   2.683   9.646 -0.4610  0.5586 -0.7124
    3SAPS   H7Y  365   4.481   2.517   9.620 -0.8193  0.4371  3.9606
    3SAPS   C38  366   4.659   2.573   9.488  0.8051  0.1578  0.4331
    3SAPS   H8X  367   4.761   2.600   9.522  0.2181 -0.5734  2.9996
    3SAPS   H8Y  368   4.620   2.645   9.413  0.4496 -1.0239 -0.5541
    3SAPS   C39  369   4.667   2.434   9.425 -0.6146  0.2598 -0.0009
    3SAPS   H9X  370   4.570   2.395   9.387 -1.0800  2.1442 -0.8051
    3SAPS   H9Y  371   4.700   2.356   9.498 -1.0054  2.4339  2.6518
    3SAPS  C310  372   4.760   2.433   9.301 -0.5947  0.5795 -0.6117
    3SAPS  H10X  373   4.860   2.466   9.339 -0.9451  0.0167  0.8584
    3SAPS  H10Y  374   4.722   2.500   9.221 -4.9842  0.2548  0.9421
    3SAPS  C311  375   4.779   2.299   9.230 -0.2254 -0.5249 -0.2317
    3SAPS  H11X  376   4.804   2.213   9.295 -0.8491 -0.7128 -0.2354
    3SAPS  H11Y  377   4.848   2.312   9.144 -1.9885 -3.5929 -2.3318
    3SAPS  C312  378   4.644   2.262   9.169 -0.9218  0.6565 -0.0409
    3SAPS  H12X  379   4.594   2.343   9.112  0.2122  0.8018 -0.8554
    3SAPS  H12Y  380   4.578   2.219   9.248  0.0323 -2.0448 -0.6289
    3SAPS  C313  381   4.639   2.132   9.086 -0.5092 -0.2258 -0.2772
    3SAPS  H13X  382   4.535   2.103   9.063 -0.6885 -0.4802  0.7708
    3SAPS  H13Y  383   4.675   2.049   9.151 -0.9455  0.4459  0.8548
    3SAPS  C314  384   4.720   2.142   8.953  0.2154 -0.2737 -0.2925
    3SAPS  H14X  385   4.829   2.153   8.975 -0.0660  1.8238  0.3276
    3SAPS  H14Y  386   4.682   2.229   8.895 -1.7737 -0.6190  0.4360
    3SAPS  C315  387   4.703   2.024   8.858  0.3931 -0.5341 -0.5315
    3SAPS  H15X  388   4.596   1.993   8.857  0.2122 -0.0068  0.6989
    3SAPS  H15Y  389   4.764   1.940   8.898  0.3269 -0.0564  0.5818
    3SAPS  C316  390   4.739   2.066   8.711  0.1269  0.1697 -0.0738
    3SAPS  H16X  391   4.844   2.099   8.699  0.8257 -2.4145 -2.0465
    3SAPS  H16Y  392   4.673   2.151   8.685  0.8843  1.0749  0.9192
    3SAPS  C317  393   4.729   1.952   8.605 -0.7784  0.3161  0.2346
    3SAPS  H17X  394   4.802   1.876   8.641 -0.7075  1.3661  2.5061
    3SAPS  H17Y  395   4.772   1.986   8.509  1.6138  2.0108  1.7834
    3SAPS  C318  396   4.588   1.883   8.599  0.2909 -0.2821 -0.5295
    3SAPS  H18X  397   4.499   1.949   8.593 -0.4362 -1.2264 -0.2896
    3SAPS  H18Y  398   4.593   1.828   8.695  2.4681 -2.3690 -1.7164
    3SAPS  H18Z  399   4.581   1.813   8.514 -2.1456 -0.0395 -0.5946
    4SAPS     N  400   1.625   3.073  10.702  0.2950 -0.5765  0.1586
    4SAPS   HN1  401   1.667   3.127  10.780 -0.3058 -0.6333  0.5291
    4SAPS   HN2  402   1.694   3.002  10.671  0.8108  0.0685 -0.2009
    4SAPS   HN3  403   1.604   3.148  10.633  0.4957  0.2085  0.9314
    4SAPS   C12  404   1.505   3.006  10.769 -0.1520  0.3811  0.7608
    4SAPS  H12A  405   1.486   2.914  10.717  0.4097  0.2538  0.7781
    4SAPS   C13  406   1.530   2.975  10.919 -0.2110  0.2403  0.1882
    4SAPS  O13A  407   1.643   3.008  10.967  0.4548  0.4864  0.0416
    4SAPS  O13B  408   1.455   2.895  10.979  0.5740  0.4969 -0.6684
    4SAPS   C11  409   1.381   3.096  10.758  0.4172 -0.5901 -0.7216
    4SAPS  H11A  410   1.398   3.193  10.808 -1.4928 -0.0013 -1.1368
    4SAPS  H11B  411   1.293   3.042  10.800  0.6522 -0.0788  0.4839
    4SAPS     P  412   1.212   3.139  10.562  0.1650  0.2911 -0.3955
    4SAPS   O13  413   1.124   3.206  10.658 -0.2535 -0.0469 -0.1911
    4SAPS   O14  414   1.224   3.204  10.433 -0.1808  0.1003  0.0057
    4SAPS   O12  415   1.358   3.127  10.619 -0.4221 -0.4920  0.0736
    4SAPS   O11  416   1.184   2.985  10.538  0.1633  0.2838 -0.0511
    4SAPS    C1  417   1.286   2.918  10.456  0.1132  0.4365 -0.1740
    4SAPS    HA  418   1.371   2.984  10.428 -0.6382  1.8430  0.7748
    4SAPS    HB  419   1.324   2.830  10.512 -3.3594 -0.9077  0.2950
    4SAPS    C2  420   1.225   2.876  10.318 -0.0772 -0.1817  1.1898
    4SAPS    HS  421   1.309   2.837  10.258  1.9665  3.8704  1.1064
    4SAPS   O21  422   1.167   2.981  10.245 -0.0172 -0.4796 -0.2873
    4SAPS   C21  423   1.257   3.060  10.183 -0.1309 -0.3435  0.2795
    4SAPS   O22  424   1.377   3.054  10.204 -0.0558  0.2343  0.2506
    4SAPS   C22  425   1.185   3.148  10.086 -0.9831 -0.6176  0.0924
    4SAPS   H2R  426   1.229   3.122   9.988 -0.9047  1.8118 -0.5731
    4SAPS   H2S  427   1.075   3.140  10.080 -1.2038  2.5162 -3.0945
    4SAPS    C3  428   1.113   2.774  10.335  0.0360  0.0279 -0.0264
    4SAPS    HX  429   1.039   2.823  10.402  1.3530  0.7360  0.9701
    4SAPS    HY  430   1.153   2.682  10.383  0.0800 -0.8172 -1.6307
    4SAPS   O31  431   1.057   2.725  10.216 -0.2567  0.0312 -0.0310
    4SAPS   C31  432   1.111   2.634  10.143 -0.1616 -0.4701 -0.1810
    4SAPS   O32  433   1.222   2.582  10.166 -0.1201  0.5799 -0.4046
    4SAPS   C32  434   1.026   2.609  10.022  0.2125 -0.6045 -0.4610
    4SAPS   H2X  435   1.081   2.540   9.954  0.3666 -0.5049 -0.4380
    4SAPS   H2Y  436   1.018   2.705   9.967  2.9770 -0.2585 -0.4318
    4SAPS   C23  437   1.223   3.295  10.111 -0.5507  0.3760  0.4884
    4SAPS   H3R  438   1.333   3.302  10.096 -0.4749 -0.5746  0.5585
    4SAPS   H3S  439   1.203   3.338  10.212 -0.7941 -1.1791  1.1291
    4SAPS   C24  440   1.147   3.389  10.010 -0.1456  0.5480  0.3913
    4SAPS   H4R  441   1.142   3.487  10.063 -0.1881  0.5833  0.3210
    4SAPS   H4S  442   1.048   3.342   9.994  0.9807 -1.3358 -1.6064
    4SAPS   C25  443   1.228   3.398   9.879 -0.2848 -0.1630 -0.4039
    4SAPS   H5R  444   1.330   3.439   9.888  0.0372 -0.7179 -1.4027
    4SAPS   C26  445   1.195   3.369   9.754  0.1579  0.2209  0.4207
    4SAPS   H6R  446   1.270   3.382   9.675  0.1853  3.3668  0.8321
    4SAPS   C27  447   1.048   3.328   9.725  0.7568 -0.2958 -0.5777
    4SAPS   H7R  448   0.978   3.414   9.728  1.6041  0.4274 -1.1007
    4SAPS   H7S  449   1.008   3.260   9.803  1.5047  0.0912  0.1584
    4SAPS   C28  450   1.034   3.272   9.583 -0.5177 -0.0198 -0.1808
    4SAPS   H8R  451   1.025   3.162   9.585  1.3894 -0.1972  1.0103
    4SAPS   C29  452   1.019   3.336   9.467 -0.5415 -0.7227 -0.2400
    4SAPS   H9R  453   1.017   3.267   9.381  2.7421 -1.9432  0.4980
    4SAPS  C210  454   1.021   3.483   9.441  0.1800 -0.9960 -0.1215
    4SAPS  H10R  455   1.123   3.527   9.448  0.0705 -0.7729  0.0745
    4SAPS  H10S  456   0.958   3.546   9.507 -0.4120  0.9122 -2.3607
    4SAPS  C211  457   0.972   3.511   9.292 -0.7789  0.3522 -0.3614
    4SAPS  H11R  458   0.868   3.546   9.290 -0.8593  0.2414 -3.3957
    4SAPS  C212  459   1.031   3.487   9.179  0.3220 -0.2699 -0.4766
    4SAPS  H12R  460   0.996   3.513   9.078  1.6663  1.9090 -0.4382
    4SAPS  C213  461   1.176   3.450   9.170 -1.2524 -0.1728 -0.9227
    4SAPS  H13R  462   1.196   3.361   9.108  0.5261 -0.4370 -0.0240
    4SAPS  H13S  463   1.210   3.408   9.267 -2.7174 -0.1065 -0.3627
    4SAPS  C214  464   1.255   3.571   9.123 -0.0864 -0.4423 -0.0755
    4SAPS  H14R  465   1.252   3.661   9.186  0.8376 -0.3128 -0.2012
    4SAPS  C215  466   1.328   3.584   9.008 -0.4231 -0.8191 -0.5121
    4SAPS  H15R  467   1.381   3.678   8.988 -1.1941 -0.5219 -1.2308
    4SAPS  C216  468   1.346   3.481   8.893  0.3213 -0.5714 -0.7531
    4SAPS  H16R  469   1.289   3.385   8.899 -1.2202  0.3425  0.0566
    4SAPS  H16S  470   1.449   3.462   8.858 -0.5275 -0.8993 -3.2690
    4SAPS  C217  471   1.294   3.545   8.760 -0.1806  0.7928 -0.0584
    4SAPS  H17R  472   1.370   3.614   8.715 -0.1943  0.6931 -0.2326
    4SAPS  H17S  473   1.213   3.616   8.787 -2.3534 -1.4696 -0.3572
    4SAPS  C218  474   1.248   3.444   8.654 -0.1476  0.5745  0.1239
    4SAPS  H18R  475   1.166   3.385   8.698  1.0920 -1.5335 -0.2525
    4SAPS  H18S  476   1.326   3.372   8.622 -0.6588  0.9744 -2.1777
    4SAPS  C219  477   1.199   3.519   8.527  0.1832 -0.2924 -0.3422
    4SAPS  H19R  478   1.123   3.597   8.550  1.1706  1.1391 -1.7504
    4SAPS  H19S  479   1.152   3.447   8.456 -0.5497  1.9786 -2.2886
    4SAPS  C220  480   1.306   3.587   8.438  0.3201  0.3378  0.5742
    4SAPS  H20R  481   1.249   3.641   8.359 -1.7167  1.5921  2.7788
    4SAPS  H20S  482   1.373   3.507   8.400  2.1713  2.7696 -1.6252
    4SAPS  H20T  483   1.361   3.664   8.495 -2.0379  1.1063  1.9487
    4SAPS   C33  484   0.885   2.555  10.059  0.2857 -0.3590  0.0704
    4SAPS   H3X  485   0.847   2.608  10.148 -1.9873 -0.6555 -0.6410
    4SAPS   H3Y  486   0.899   2.446  10.080  0.4855 -0.4348 -0.4377
    4SAPS   C34  487   0.776   2.563   9.946  0.6358  0.1682  0.0806
    4SAPS   H4X  488   0.744   2.669   9.938  0.5444  0.3439  2.1811
    4SAPS   H4Y  489   0.684   2.510   9.979 -0.6075  2.6605  0.8440
    4SAPS   C35  490   0.812   2.509   9.809 -0.4189  0.3800 -0.9146
    4SAPS   H5X  491   0.899   2.572   9.778  0.5204  1.0530  2.6743
    4SAPS   H5Y  492   0.739   2.534   9.729 -1.2296  0.6887 -0.0889
    4SAPS   C36  493   0.844   2.360   9.817  0.6162 -0.1119  0.0493
    4SAPS   H6X  494   0.745   2.321   9.849  0.4026 -0.3072 -0.8466
    4SAPS   H6Y  495   0.908   2.335   9.905 -1.5640 -0.2286  1.6883
    4SAPS   C37  496   0.895   2.294   9.687  0.0722  0.2587  0.7354
    4SAPS   H7X  497   0.936   2.197   9.721  3.8532  2.4156  2.9863
    4SAPS   H7Y  498   0.983   2.354   9.654 -0.4699  1.3106  1.1451
    4SAPS   C38  499   0.797   2.285   9.574  0.0724 -0.5207  0.5457
    4SAPS   H8X  500   0.779   2.390   9.541 -0.2819  0.1416  2.6849
    4SAPS   H8Y  501   0.702   2.234   9.602  0.6688 -2.4238 -0.7389
    4SAPS   C39  502   0.848   2.211   9.451  0.0943  0.8942 -0.0836
    4SAPS   H9X  503   0.881   2.110   9.484 -0.0015  0.7462 -0.4315
    4SAPS   H9Y  504   0.940   2.261   9.415  1.4602 -1.4103 -0.0181
    4SAPS  C310  505   0.755   2.193   9.335 -0.1499 -0.0641 -0.7721
    4SAPS  H10X  506   0.754   2.299   9.300  0.7110  0.6523  1.1648
    4SAPS  H10Y  507   0.654   2.168   9.373  0.2502  0.7162  0.9201
    4SAPS  C311  508   0.798   2.111   9.212  0.0115 -0.0516  1.1843
    4SAPS  H11X  509   0.735   2.020   9.217 -0.3778 -0.0576 -1.8076
    4SAPS  H11Y  510   0.908   2.093   9.210  0.2636  0.8179 -2.7800
    4SAPS  C312  511   0.771   2.181   9.084  0.9553  0.1701  0.1028
    4SAPS  H12X  512   0.839   2.266   9.062 -2.7791  2.9336 -2.0872
    4SAPS  H12Y  513   0.667   2.221   9.085  0.4139 -1.1959  0.0164
    4SAPS  C313  514   0.767   2.081   8.969 -0.5379  0.3886  0.4494
    4SAPS  H13X  515   0.681   2.012   8.978 -0.9312  0.5409 -1.5050
    4SAPS  H13Y  516   0.863   2.026   8.964 -0.7951 -0.1397  1.2660
    4SAPS  C314  517   0.740   2.154   8.832  0.0283 -0.0136 -0.1913
    4SAPS  H14X  518   0.825   2.223   8.814 -2.2061  2.8166 -0.7226
    4SAPS  H14Y  519   0.646   2.213   8.846  1.1496  1.9537 -0.5092
    4SAPS  C315  520   0.732   2.058   8.724  0.1093 -0.7913  0.0568
    4SAPS  H15X  521   0.636   2.003   8.731 -0.5494  0.1723 -1.0693
    4SAPS  H15Y  522   0.822   1.993   8.730  1.2144  0.7976  1.4063
    4SAPS  C316  523   0.707   2.125   8.576  0.1261  0.0367 -0.3192
    4SAPS  H16X  524   0.710   2.054   8.491 -1.2026 -1.2849  0.6772
    4SAPS  H16Y  525   0.793   2.195   8.572  0.3731 -0.3284 -2.4502
    4SAPS  C317  526   0.582   2.213   8.553 -0.1168  0.4935 -0.3838
    4SAPS  H17X  527   0.533   2.252   8.645 -0.9015 -0.2582 -0.4663
    4SAPS  H17Y  528   0.504   2.151   8.504 -1.6655  0.7233  1.6181
    4SAPS  C318  529   0.606   2.337   8.468  0.2087  0.2725 -0.6124
    4SAPS  H18X  530   0.505   2.377   8.442  0.0449  0.3506  0.1433
    4SAPS  H18Y  531   0.657   2.297   8.377 -0.1156 -0.8774 -0.3011
    4SAPS  H18Z  532   0.669   2.413   8.519 -1.8422  1.8498 -0.2432
    5SAPS     N  533   5.034   2.395  10.866  0.8065 -0.2386 -0.3504
    5SAPS   HN1  534   4.990   2.474  10.814  0.3167 -1.1756 -1.3972
    5SAPS   HN2  535   5.080   2.423  10.955  2.9702 -0.9529 -1.1938
    5SAPS   HN3  536   5.105   2.361  10.798  2.0037 -0.0394  0.7625
    5SAPS   C12  537   4.937   2.283  10.896 -0.0913  0.0930 -0.4559
    5SAPS  H12A  538   5.000   2.200  10.925  0.0037 -0.0333 -1.0057
    5SAPS   C13  539   4.844   2.308  11.013 -0.9207 -0.3927 -0.0844
    5SAPS  O13A  540   4.824   2.428  11.046  0.3677  0.5485 -0.2179
    5SAPS  O13B  541   4.777   2.214  11.059 -0.4021  0.5264 -0.4376
    5SAPS   C11  542   4.869   2.253  10.758 -0.0631 -0.3656 -0.0303
    5SAPS  H11A  543   4.810   2.343  10.731  0.7979 -0.2473 -1.6096
    5SAPS  H11B  544   4.795   2.173  10.781  2.1312 -2.9358 -1.3272
    5SAPS     P  545   4.948   2.086  10.571  0.4170  0.1409  0.4111
    5SAPS   O13  546   5.055   1.996  10.612  0.2330 -0.0317 -0.4834
    5SAPS   O14  547   4.810   2.032  10.583 -0.4155 -0.6546 -0.1089
    5SAPS   O12  548   4.962   2.223  10.657 -0.0722  0.2840  0.2658
    5SAPS   O11  549   4.976   2.144  10.420  0.3861  0.8194 -0.1557
    5SAPS    C1  550   5.092   2.223  10.398  0.1155 -0.3402 -0.2258
    5SAPS    HA  551   5.094   2.315  10.461 -0.8650 -0.4697  0.0163
    5SAPS    HB  552   5.186   2.172  10.427  0.9082  1.5075  0.6561
    5SAPS    C2  553   5.096   2.284  10.257  0.3727 -0.0812 -0.2404
    5SAPS    HS  554   5.014   2.358  10.248  0.0998 -0.2591  0.7067
    5SAPS   O21  555   5.088   2.190  10.155 -0.3009  0.3500 -0.1314
    5SAPS   C21  556   4.983   2.184  10.078  0.3156 -0.3922  0.0222
    5SAPS   O22  557   4.884   2.253  10.091 -0.2517  0.5932  0.1603
    5SAPS   C22  558   5.006   2.097   9.951  0.0410 -1.1118 -0.3813
    5SAPS   H2R  559   4.979   2.162   9.865 -0.1006 -0.6433  0.0181
    5SAPS   H2S  560   5.109   2.056   9.956  0.7093  0.2492 -1.9490
    5SAPS    C3  561   5.229   2.356  10.239 -0.0795  0.2156 -0.3287
    5SAPS    HX  562   5.313   2.283  10.239  2.4132  2.9000 -0.5658
    5SAPS    HY  563   5.241   2.421  10.329  0.3144 -1.6329  1.0320
    5SAPS   O31  564   5.232   2.427  10.110  0.1357  0.1863 -0.0396
    5SAPS   C31  565   5.161   2.531  10.094  0.2810  0.7529  0.3509
    5SAPS   O32  566   5.094   2.591  10.176  0.2060 -0.0601  0.1878
    5SAPS   C32  567   5.182   2.586   9.948 -1.0504 -0.1127 -0.0276
    5SAPS   H2X  568   5.288   2.560   9.928 -0.5847 -0.6275  2.7160
    5SAPS   H2Y  569   5.155   2.693   9.954  0.4634  0.3380 -0.7136
    5SAPS   C23  570   4.918   1.974   9.954  0.4224 -0.5214 -0.0676
    5SAPS   H3R  571   4.810   1.999   9.968  0.1605 -0.2635 -2.2247
    5SAPS   H3S  572   4.959   1.901  10.027 -1.1322 -0.7048  0.6804
    5SAPS   C24  573   4.915   1.909   9.814 -1.1125  0.2154  0.8757
    5SAPS   H4R  574   4.871   1.808   9.817 -0.2913 -0.2079 -0.6486
    5SAPS   H4S  575   5.023   1.894   9.791 -1.1358 -1.1358  1.5625
    5SAPS   C25  576   4.843   1.991   9.712  0.0606 -0.3729  0.0944
    5SAPS   H5R  577   4.735   1.992   9.734  0.3287  0.2586  1.5215
    5SAPS   C26  578   4.887   2.058   9.606  0.1524  0.1922  0.0215
    5SAPS   H6R  579   4.817   2.116   9.545 -0.3180 -0.1135  0.2640
    5SAPS   C27  580   5.028   2.057   9.557  0.4201 -1.0142 -0.4481
    5SAPS   H7R  581   5.093   2.082   9.644 -2.1136  1.3405  0.9142
    5SAPS   H7S  582   5.043   2.149   9.496 -1.2453 -1.1301 -1.0733
    5SAPS   C28  583   5.084   1.933   9.497 -0.1520 -0.0363  0.6913
    5SAPS   H8R  584   5.072   1.842   9.557 -1.7367 -0.1535  0.2343
    5SAPS   C29  585   5.133   1.920   9.370  0.2064 -0.2586 -0.7704
    5SAPS   H9R  586   5.149   1.817   9.335  0.9172 -0.8334  1.1161
    5SAPS  C210  587   5.136   2.023   9.259  0.0987 -0.5836 -0.0153
    5SAPS  H10R  588   5.085   2.117   9.291 -0.7948 -0.4808 -1.6391
    5SAPS  H10S  589   5.072   1.994   9.173  0.7480  1.1302 -1.1253
    5SAPS  C211  590   5.277   2.059   9.211  0.1300  0.4040 -0.9207
    5SAPS  H11R  591   5.364   1.999   9.238 -1.3957 -0.7447  1.8056
    5SAPS  C212  592   5.305   2.167   9.138 -0.4886  0.0953  0.5503
    5SAPS  H12R  593   5.413   2.186   9.126  0.2627 -2.7620  1.8357
    5SAPS  C213  594   5.212   2.273   9.083 -0.0957 -0.0002 -0.4641
    5SAPS  H13R  595   5.249   2.376   9.101 -1.2260 -0.0010  2.2577
    5SAPS  H13S  596   5.119   2.267   9.142  1.2351 -3.0056  1.5847
    5SAPS  C214  597   5.188   2.268   8.933 -0.2485 -0.0936 -0.3507
    5SAPS  H14R  598   5.239   2.186   8.881 -0.6845 -0.5706 -0.0453
    5SAPS  C215  599   5.102   2.336   8.858 -0.7249 -0.7679 -0.1484
    5SAPS  H15R  600   5.090   2.301   8.755  0.7139  0.3880 -0.7528
    5SAPS  C216  601   5.014   2.451   8.903  0.2234 -1.1472 -0.1399
    5SAPS  H16R  602   5.054   2.488   9.000 -0.2020 -0.9699 -0.0294
    5SAPS  H16S  603   4.911   2.417   8.927 -0.8405  0.9062 -1.5119
    5SAPS  C217  604   5.032   2.574   8.810 -0.0728 -0.4650  1.2573
    5SAPS  H17R  605   4.970   2.655   8.853  0.1589 -0.0824  0.8813
    5SAPS  H17S  606   4.992   2.541   8.711  0.4932 -2.6865  1.7135
    5SAPS  C218  607   5.182   2.612   8.792  0.1549  0.5773  0.0189
    5SAPS  H18R  608   5.233   2.650   8.884  0.5479  1.1411 -0.4283
    5SAPS  H18S  609   5.241   2.520   8.768 -2.5300 -0.7769 -1.8294
    5SAPS  C219  610   5.230   2.712   8.683 -0.1371  0.2949  1.0071
    5SAPS  H19R  611   5.159   2.707   8.598  2.2546 -1.2013 -1.0350
    5SAPS  H19S  612   5.326   2.671   8.645  1.0897  1.7797  2.3573
    5SAPS  C220  613   5.249   2.856   8.733  0.5456  0.5342  0.5823
    5SAPS  H20R  614   5.321   2.870   8.816  0.6652  2.8626  0.1540
    5SAPS  H20S  615   5.149   2.886   8.770 -0.0708  0.7508 -1.1342
    5SAPS  H20T  616   5.289   2.914   8.647  3.4535 -1.3022  0.5372
    5SAPS   C33  617   5.090   2.519   9.846 -0.0706  0.7666  0.8359
    5SAPS   H3X  618   4.982   2.508   9.872 -0.3224  0.7608 -0.1553
    5SAPS   H3Y  619   5.122   2.413   9.841  0.2783  0.8999 -0.0474
    5SAPS   C34  620   5.113   2.577   9.713 -0.1792  0.3123 -0.0557
    5SAPS   H4X  621   5.223   2.594   9.714  0.0729 -1.1976  0.6309
    5SAPS   H4Y  622   5.073   2.681   9.706  1.1925  0.8828  0.3204
    5SAPS   C35  623   5.056   2.501   9.593 -0.3523  0.3071 -0.1703
    5SAPS   H5X  624   4.947   2.518   9.578 -0.2912  1.1290  0.3096
    5SAPS   H5Y  625   5.080   2.394   9.611 -0.6602  0.4447  1.1030
    5SAPS   C36  626   5.119   2.540   9.460  0.0258  0.6034  0.4017
    5SAPS   H6X  627   5.090   2.483   9.369  1.9046  2.3556 -1.4038
    5SAPS   H6Y  628   5.227   2.517   9.468 -0.1243 -0.1262  0.3472
    5SAPS   C37  629   5.114   2.686   9.423 -0.3403  0.3008 -0.0839
    5SAPS   H7X  630   5.136   2.743   9.516 -0.6532  0.2934 -0.0042
    5SAPS   H7Y  631   5.015   2.722   9.386  0.0698  0.3110 -1.2026
    5SAPS   C38  632   5.217   2.729   9.322 -0.0173  0.9907  0.6294
    5SAPS   H8X  633   5.232   2.655   9.241 -0.3561  2.5053 -0.8727
    5SAPS   H8Y  634   5.317   2.740   9.370 -0.3627  0.0882  1.5916
    5SAPS   C39  635   5.187   2.861   9.258  0.0694 -0.0161 -0.3251
    5SAPS   H9X  636   5.200   2.938   9.336 -0.4775 -2.8187  2.7888
    5SAPS   H9Y  637   5.083   2.870   9.218 -0.7694 -0.9574  1.4790
    5SAPS  C310  638   5.295   2.899   9.152  0.0996 -0.1214  0.1103
    5SAPS  H10X  639   5.295   2.828   9.066  3.1412 -1.2170  0.8668
    5SAPS  H10Y  640   5.396   2.893   9.197 -0.1124  1.7633  0.9298
    5SAPS  C311  641   5.286   3.040   9.091  0.8578  0.0599 -1.2175
    5SAPS  H11X  642   5.289   3.113   9.176 -1.3199 -1.0257 -0.1079
    5SAPS  H11Y  643   5.197   3.057   9.027  0.6630 -0.8335 -1.2004
    5SAPS  C312  644   5.406   3.065   9.003  0.0903  0.4265 -0.3075
    5SAPS  H12X  645   5.414   2.994   8.919  2.7514  1.4474 -1.0313
    5SAPS  H12Y  646   5.498   3.058   9.066  1.8223  1.3887 -2.5755
    5SAPS  C313  647   5.413   3.203   8.944 -0.3005  0.4533  0.0704
    5SAPS  H13X  648   5.363   3.277   9.011 -1.7022 -1.1067  0.8301
    5SAPS  H13Y  649   5.351   3.207   8.852 -0.7949  1.1304  0.4218
    5SAPS  C314  650   5.560   3.251   8.926 -0.3343 -0.1640  0.7870
    5SAPS  H14X  651   5.607   3.192   8.844 -0.6830 -1.7172  1.6535
    5SAPS  H14Y  652   5.623   3.224   9.014  4.5388  1.2652 -1.8483
    5SAPS  C315  653   5.585   3.397   8.910 -0.6324  0.4985  0.2194
    5SAPS  H15X  654   5.693   3.423   8.910 -0.3286 -0.6445 -1.3422
    5SAPS  H15Y  655   5.528   3.431   8.999 -2.0114 -3.2795  0.9579
    5SAPS  C316  656   5.535   3.457   8.776 -0.0851 -0.5416 -0.1217
    5SAPS  H16X  657   5.574   3.560   8.764  0.3434 -0.8257 -1.2819
    5SAPS  H16Y  658   5.426   3.469   8.761 -0.3239 -0.7198  1.3176
    5SAPS  C317  659   5.583   3.380   8.646  0.0290  0.5175 -0.6096
    5SAPS  H17X  660   5.550   3.275   8.659 -1.2294  0.9364 -0.2560
    5SAPS  H17Y  661   5.694   3.377   8.647  0.0352 -2.2363 -0.6766
    5SAPS  C318  662   5.531   3.434   8.515  0.2509 -0.4388  0.4333
    5SAPS  H18X  663   5.560   3.541   8.515  0.6674 -0.5364 -0.6808
    5SAPS  H18Y  664   5.423   3.412   8.504  0.0659  0.8057 -0.4338
    5SAPS  H18Z  665   5.578   3.377   8.433 -1.1040  1.3350 -1.6755
    6SAPS     N  666   3.543   0.971  10.644 -0.1564  0.3198  0.4273
    6SAPS   HN1  667   3.496   0.959  10.551  1.3374  0.8953 -0.4361
    6SAPS   HN2  668   3.565   0.876  10.681  1.3853 -0.4364 -2.1620
    6SAPS   HN3  669   3.487   1.023  10.715 -1.0388  1.0821 -0.7849
    6SAPS   C12  670   3.669   1.057  10.625  0.0108  0.2119  0.5250
    6SAPS  H12A  671   3.684   1.087  10.522  0.6852 -0.5456  0.3816
    6SAPS   C13  672   3.688   1.179  10.717  0.4903  0.1482 -0.3117
    6SAPS  O13A  673   3.596   1.200  10.803  0.3464  0.1925 -0.3931
    6SAPS  O13B  674   3.804   1.223  10.732 -0.1323 -0.6949 -0.4467
    6SAPS   C11  675   3.789   0.960  10.651  0.5196 -0.2550  0.4799
    6SAPS  H11A  676   3.787   0.922  10.755 -1.7016  2.2147  1.4529
    6SAPS  H11B  677   3.885   1.013  10.632  0.5748 -0.6181 -0.3071
    6SAPS     P  678   3.878   0.804  10.461 -0.0500 -0.4105 -0.4503
    6SAPS   O13  679   4.009   0.877  10.471  0.1545 -0.4915 -0.1265
    6SAPS   O14  680   3.884   0.660  10.470  0.3723  0.4569 -0.0468
    6SAPS   O12  681   3.770   0.853  10.565 -0.4969  0.1314 -0.0091
    6SAPS   O11  682   3.814   0.843  10.326  0.4567  0.0166 -0.0696
    6SAPS    C1  683   3.707   0.769  10.272 -0.4320 -0.0978  0.0474
    6SAPS    HA  684   3.743   0.666  10.253  1.0743  0.4878 -0.4065
    6SAPS    HB  685   3.622   0.759  10.343 -1.4336  0.6110 -1.0160
    6SAPS    C2  686   3.652   0.826  10.142 -0.2507  0.0520  0.1403
    6SAPS    HS  687   3.611   0.925  10.170 -1.4170 -0.3409 -0.1039
    6SAPS   O21  688   3.549   0.750  10.087  0.2889 -0.2682  0.0857
    6SAPS   C21  689   3.460   0.799  10.009  0.1983  0.5465  0.1287
    6SAPS   O22  690   3.437   0.910   9.971  0.6837 -0.2730  0.3004
    6SAPS   C22  691   3.383   0.680   9.944 -0.2295  0.0250 -0.0945
    6SAPS   H2R  692   3.422   0.579   9.968 -1.7219  0.1790  3.7077
    6SAPS   H2S  693   3.282   0.709   9.982 -0.2510 -0.0937 -0.0611
    6SAPS    C3  694   3.770   0.838  10.043 -0.4325  0.2211 -0.3223
    6SAPS    HX  695   3.808   0.735  10.026  1.6653  0.8162  0.4190
    6SAPS    HY  696   3.853   0.899  10.085 -0.2094 -0.0295 -0.3958
    6SAPS   O31  697   3.731   0.892   9.917  0.0831 -0.2815 -0.4580
    6SAPS   C31  698   3.708   1.024   9.915  0.0721 -0.2236  0.1129
    6SAPS   O32  699   3.722   1.099  10.011 -0.0330 -0.1196  0.0476
    6SAPS   C32  700   3.675   1.071   9.772 -0.3862 -0.8380 -0.1459
    6SAPS   H2X  701   3.764   1.117   9.723 -0.7136  1.6816  1.4243
    6SAPS   H2Y  702   3.613   1.163   9.782 -1.3369 -1.2849 -1.7276
    6SAPS   C23  703   3.373   0.692   9.788 -0.2128 -0.0106  0.8470
    6SAPS   H3R  704   3.473   0.682   9.741 -1.1951 -2.0784 -1.0253
    6SAPS   H3S  705   3.348   0.798   9.769  0.9789  0.1797  0.2567
    6SAPS   C24  706   3.267   0.596   9.719  0.1890  0.6354  0.1983
    6SAPS   H4R  707   3.167   0.598   9.767  0.4272  0.0730  0.7319
    6SAPS   H4S  708   3.300   0.492   9.742  0.0865 -0.0044 -2.3029
    6SAPS   C25  709   3.270   0.623   9.575 -0.0087  0.1622  0.5009
    6SAPS   H5R  710   3.290   0.726   9.541 -0.0165 -0.3911 -1.2763
    6SAPS   C26  711   3.236   0.534   9.477  0.5141 -0.3596  0.2253
    6SAPS   H6R  712   3.255   0.568   9.374  0.7993  0.6731  0.6067
    6SAPS   C27  713   3.196   0.394   9.499  0.2499  0.1532  0.6821
    6SAPS   H7R  714   3.171   0.377   9.606 -0.4998  0.7777  0.6214
    6SAPS   H7S  715   3.285   0.332   9.478 -0.1461  0.1089 -1.0087
    6SAPS   C28  716   3.101   0.345   9.389 -0.3999  0.1980  0.4986
    6SAPS   H8R  717   3.147   0.312   9.295  0.5272 -0.8319  1.2818
    6SAPS   C29  718   2.968   0.332   9.403  0.1822 -0.1935 -0.6032
    6SAPS   H9R  719   2.903   0.301   9.319  1.0277  0.4391 -1.4978
    6SAPS  C210  720   2.899   0.368   9.531 -0.3404 -0.8241 -0.3190
    6SAPS  H10R  721   2.915   0.477   9.545  3.0458 -0.7977 -3.1118
    6SAPS  H10S  722   2.958   0.324   9.615 -1.1174 -0.1615  0.5865
    6SAPS  C211  723   2.755   0.330   9.551 -0.3983  0.2956 -0.2884
    6SAPS  H11R  724   2.687   0.373   9.476  0.2459 -1.3102 -1.8654
    6SAPS  C212  725   2.717   0.222   9.625 -0.4836  0.1476 -0.0459
    6SAPS  H12R  726   2.610   0.199   9.637 -1.0684  1.8781 -1.4483
    6SAPS  C213  727   2.788   0.133   9.717 -0.0647 -0.2874  0.6945
    6SAPS  H13R  728   2.894   0.141   9.685 -0.6236  0.7853 -1.0121
    6SAPS  H13S  729   2.762   0.027   9.697  2.0158 -0.7150  0.0412
    6SAPS  C214  730   2.771   0.151   9.867 -0.1055 -0.5453 -0.3754
    6SAPS  H14R  731   2.851   0.216   9.906 -2.8399  3.5037 -0.8359
    6SAPS  C215  732   2.675   0.106   9.950 -0.0473  0.1773 -0.0798
    6SAPS  H15R  733   2.682   0.140  10.054  2.3990  0.4934 -0.2889
    6SAPS  C216  734   2.555   0.024   9.908 -0.6106  0.1497 -0.4486
    6SAPS  H16R  735   2.562  -0.025   9.808 -2.4279 -1.6563  0.2290
    6SAPS  H16S  736   2.458   0.077   9.919 -0.3604  0.1548  2.2608
    6SAPS  C217  737   2.540  -0.098  10.007 -0.1213  0.5815  0.6031
    6SAPS  H17R  738   2.526  -0.051  10.107 -1.3823 -0.6226  1.0254
    6SAPS  H17S  739   2.643  -0.139  10.012 -0.5225 -0.4920  0.2995
    6SAPS  C218  740   2.428  -0.194   9.971  0.5534  0.7356  0.1743
    6SAPS  H18R  741   2.469  -0.277   9.910  0.1058 -0.3687  1.3399
    6SAPS  H18S  742   2.353  -0.143   9.907  1.2387  0.9321 -0.4933
    6SAPS  C219  743   2.366  -0.262  10.096  0.1641 -0.2725 -0.1871
    6SAPS  H19R  744   2.290  -0.337  10.068  1.0671 -1.5111  0.5758
    6SAPS  H19S  745   2.313  -0.184  10.156  2.8567  1.4749  0.1234
    6SAPS  C220  746   2.465  -0.325  10.202  0.7545 -0.0512 -0.2106
    6SAPS  H20R  747   2.548  -0.371  10.144 -0.3843 -1.3377 -0.8971
    6SAPS  H20S  748   2.405  -0.396  10.262 -1.6603  1.4902 -0.6567
    6SAPS  H20T  749   2.497  -0.237  10.262 -2.0974  1.7990 -1.1760
    6SAPS   C33  750   3.618   0.963   9.678  0.6582  0.0193 -0.3236
    6SAPS   H3X  751   3.554   0.898   9.741  0.4620 -1.5297 -2.0265
    6SAPS   H3Y  752   3.695   0.914   9.615  0.1189  1.8393 -2.5084
    6SAPS   C34  753   3.530   1.018   9.563  0.7089 -0.4362 -0.0636
    6SAPS   H4X  754   3.574   1.116   9.534  0.9785 -0.9745 -1.5780
    6SAPS   H4Y  755   3.427   1.030   9.602  0.9481  2.9851 -0.2291
    6SAPS   C35  756   3.543   0.943   9.424  0.1706 -0.6763 -0.2583
    6SAPS   H5X  757   3.564   0.835   9.440 -0.2993 -0.7834 -0.3427
    6SAPS   H5Y  758   3.623   0.987   9.361  0.6901 -0.6773  0.3869
    6SAPS   C36  759   3.411   0.939   9.346  0.0573  0.6823  0.6615
    6SAPS   H6X  760   3.361   1.038   9.342 -0.3961  0.5719  2.6633
    6SAPS   H6Y  761   3.336   0.872   9.394 -0.0712  0.0661 -0.3568
    6SAPS   C37  762   3.427   0.888   9.206  0.3729 -0.5468 -0.0475
    6SAPS   H7X  763   3.497   0.802   9.206  1.5505  0.3944 -0.7100
    6SAPS   H7Y  764   3.462   0.967   9.137  0.1123  0.0957  0.5543
    6SAPS   C38  765   3.289   0.850   9.158 -0.3276 -0.3373 -0.9856
    6SAPS   H8X  766   3.219   0.935   9.175  2.1651  1.5223  0.7049
    6SAPS   H8Y  767   3.263   0.760   9.218  2.4460 -1.3116 -1.0789
    6SAPS   C39  768   3.272   0.811   9.014 -0.2128 -0.6936  0.6316
    6SAPS   H9X  769   3.168   0.776   8.992  0.4288 -2.0045 -0.4368
    6SAPS   H9Y  770   3.341   0.728   8.990 -0.0433 -0.8960  1.7690
    6SAPS  C310  771   3.307   0.919   8.916  0.1170 -0.2625  0.2233
    6SAPS  H10X  772   3.414   0.946   8.920 -0.4514  2.1213  3.6651
    6SAPS  H10Y  773   3.252   1.011   8.948  0.9333  0.4483 -0.3760
    6SAPS  C311  774   3.253   0.892   8.774 -0.1510 -0.1912  0.1123
    6SAPS  H11X  775   3.297   0.792   8.754  4.0839  1.0624  1.9326
    6SAPS  H11Y  776   3.288   0.967   8.699 -0.7666 -0.4344 -0.4224
    6SAPS  C312  777   3.100   0.903   8.771  0.3580  0.2770  0.5534
    6SAPS  H12X  778   3.069   1.006   8.798 -0.5891  0.1405  0.0065
    6SAPS  H12Y  779   3.056   0.822   8.832  1.0661  0.0321  0.7584
    6SAPS  C313  780   3.039   0.883   8.628  0.2210  0.0323  0.6096
    6SAPS  H13X  781   3.075   0.968   8.566  0.8371 -0.9897 -0.4874
    6SAPS  H13Y  782   2.928   0.887   8.637  0.1637 -1.9784  1.2512
    6SAPS  C314  783   3.066   0.752   8.557 -0.2333  0.2693 -0.3531
    6SAPS  H14X  784   3.060   0.669   8.631 -0.6275  0.3357 -0.3084
    6SAPS  H14Y  785   3.170   0.754   8.517  0.9431  0.7402  2.4937
    6SAPS  C315  786   2.971   0.735   8.432  0.4883  0.0512 -0.6785
    6SAPS  H15X  787   3.010   0.646   8.379 -2.5456  0.1206 -3.3793
    6SAPS  H15Y  788   2.989   0.821   8.364 -0.1002  0.3560 -0.4629
    6SAPS  C316  789   2.825   0.706   8.454  0.4693 -0.1190 -0.1172
    6SAPS  H16X  790   2.798   0.789   8.523 -0.2075 -0.9207  0.5967
    6SAPS  H16Y  791   2.807   0.613   8.512  2.9120 -1.0062 -0.6485
    6SAPS  C317  792   2.743   0.703   8.323 -0.3312  0.2281  1.0358
    6SAPS  H17X  793   2.768   0.610   8.267  0.0249  0.5613  0.6293
    6SAPS  H17Y  794   2.767   0.791   8.260 -3.5875  0.9186  0.5712
    6SAPS  C318  795   2.598   0.707   8.325  0.7185 -0.1737 -0.0824
    6SAPS  H18X  796   2.548   0.803   8.354 -1.6344 -1.6271  1.0191
    6SAPS  H18Y  797   2.541   0.648   8.400 -1.0422  1.0715 -0.3725
    6SAPS  H18Z  798   2.565   0.690   8.221  2.4408 -2.6983 -0.2871
    7SAPS     N  799   5.292   2.991  10.625  0.0841 -0.4727  0.5659
    7SAPS   HN1  800   5.310   2.942  10.535  1.1656  0.5349  0.2146
    7SAPS   HN2  801   5.228   2.933  10.683 -1.1181  0.8514  0.6094
    7SAPS   HN3  802   5.241   3.078  10.601 -1.7949 -1.4154  0.9364
    7SAPS   C12  803   5.417   3.022  10.698  0.8185  0.2111  0.7519
    7SAPS  H12A  804   5.471   3.094  10.638 -0.9057  1.6924  0.8924
    7SAPS   C13  805   5.397   3.087  10.832  0.3621  0.3081 -0.1963
    7SAPS  O13A  806   5.280   3.091  10.876  0.3699 -0.4263 -0.7008
    7SAPS  O13B  807   5.497   3.103  10.908 -0.1285  0.2942 -0.2974
    7SAPS   C11  808   5.501   2.894  10.720 -0.0486 -0.4375  0.3502
    7SAPS  H11A  809   5.443   2.816  10.774  0.6111 -1.6091 -0.5573
    7SAPS  H11B  810   5.583   2.911  10.793  0.4635  3.6978 -0.9731
    7SAPS     P  811   5.672   2.883  10.522  0.0692 -0.4737 -0.0844
    7SAPS   O13  812   5.775   2.855  10.623  1.2121 -0.0083 -0.2914
    7SAPS   O14  813   5.681   2.821  10.389 -0.3859 -0.0870  0.8139
    7SAPS   O12  814   5.544   2.842  10.591  0.3251 -0.3269 -1.3490
    7SAPS   O11  815   5.653   3.037  10.503  0.0679 -0.2934  0.7146
    7SAPS    C1  816   5.570   3.100  10.410  0.4867 -0.3024  0.4421
    7SAPS    HA  817   5.488   3.034  10.375  1.2486 -0.3888 -1.2911
    7SAPS    HB  818   5.529   3.194  10.452  0.8777 -1.0485  2.6292
    7SAPS    C2  819   5.649   3.161  10.290  0.1539  0.0036 -0.2040
    7SAPS    HS  820   5.585   3.227  10.227  0.1337 -1.3060 -1.6089
    7SAPS   O21  821   5.719   3.075  10.203 -0.0300  0.0748  0.0324
    7SAPS   C21  822   5.643   3.016  10.119 -0.7787 -0.0133 -0.1230
    7SAPS   O22  823   5.524   3.043  10.107 -0.0711 -0.6380  0.0141
    7SAPS   C22  824   5.730   2.935  10.018 -0.1249  0.2207  0.0978
    7SAPS   H2R  825   5.796   3.017   9.983  0.4023  0.0919  0.7791
    7SAPS   H2S  826   5.778   2.855  10.079 -1.4786 -0.2027  0.6534
    7SAPS    C3  827   5.755   3.254  10.353  0.2937 -0.1346 -0.3502
    7SAPS    HX  828   5.808   3.184  10.420 -1.6297 -1.4173 -0.0765
    7SAPS    HY  829   5.703   3.332  10.413  0.6514  1.2240 -1.7275
    7SAPS   O31  830   5.849   3.305  10.262  0.1213 -0.2532 -0.1664
    7SAPS   C31  831   5.811   3.400  10.173  0.1077 -0.1488 -0.1646
    7SAPS   O32  832   5.709   3.468  10.182  0.0054 -0.1484  0.2167
    7SAPS   C32  833   5.900   3.375  10.047  0.2908 -0.2542 -0.2218
    7SAPS   H2X  834   5.899   3.265  10.033 -3.1020 -0.6196  1.9912
    7SAPS   H2Y  835   6.000   3.419  10.068 -1.0526  2.7720  0.2724
    7SAPS   C23  836   5.649   2.859   9.909 -0.2485  0.4091 -0.3995
    7SAPS   H3R  837   5.616   2.932   9.832  1.0460  0.8511 -0.5704
    7SAPS   H3S  838   5.556   2.825   9.959  0.4370  0.5074  0.9959
    7SAPS   C24  839   5.711   2.738   9.849 -0.3186  0.2697 -0.0646
    7SAPS   H4R  840   5.807   2.771   9.803 -0.8191  0.0408 -1.3148
    7SAPS   H4S  841   5.642   2.702   9.770 -0.5845 -1.5066  0.9199
    7SAPS   C25  842   5.760   2.643   9.955  0.2207  0.4024 -0.0567
    7SAPS   H5R  843   5.861   2.655   9.996 -1.2637  1.9109  3.5632
    7SAPS   C26  844   5.702   2.525   9.993  0.2261 -0.1736  0.0789
    7SAPS   H6R  845   5.752   2.450  10.056  0.3792  0.0381  0.2121
    7SAPS   C27  846   5.581   2.474   9.922  0.5954 -0.0255 -1.2177
    7SAPS   H7R  847   5.616   2.457   9.818 -0.6820 -2.4827 -1.3180
    7SAPS   H7S  848   5.502   2.551   9.914 -2.2128 -2.7368 -1.6005
    7SAPS   C28  849   5.528   2.344   9.978 -0.0956 -0.5705  0.1502
    7SAPS   H8R  850   5.510   2.353  10.086 -1.5964  2.6343 -0.2484
    7SAPS   C29  851   5.498   2.235   9.903 -0.3309  0.6251  0.5522
    7SAPS   H9R  852   5.458   2.147   9.955 -3.3474  1.3699 -0.3288
    7SAPS  C210  853   5.530   2.209   9.758  0.1264 -0.1290  0.5285
    7SAPS  H10R  854   5.552   2.102   9.739  1.9911  0.5801 -1.7586
    7SAPS  H10S  855   5.616   2.270   9.724  2.0903 -2.5142  1.0029
    7SAPS  C211  856   5.398   2.236   9.682 -0.3673  0.0618 -0.2460
    7SAPS  H11R  857   5.307   2.222   9.743 -0.7658  1.5064 -0.4634
    7SAPS  C212  858   5.390   2.264   9.550  0.0434  0.3612 -0.2051
    7SAPS  H12R  859   5.287   2.287   9.516 -0.2453  0.4367  0.6945
    7SAPS  C213  860   5.506   2.286   9.452  0.1048  0.9181 -0.1943
    7SAPS  H13R  861   5.480   2.261   9.346 -2.0202  2.1306 -0.0239
    7SAPS  H13S  862   5.588   2.215   9.473 -1.9349 -1.0941  1.4093
    7SAPS  C214  863   5.565   2.424   9.449 -0.9727 -0.1764  0.0804
    7SAPS  H14R  864   5.543   2.475   9.544  2.0618 -0.8470  1.2793
    7SAPS  C215  865   5.637   2.485   9.355  0.0944 -0.7002  0.8103
    7SAPS  H15R  866   5.670   2.589   9.368 -3.9099  1.1568 -1.6084
    7SAPS  C216  867   5.657   2.424   9.224  0.2102 -0.1667  0.1568
    7SAPS  H16R  868   5.635   2.315   9.220 -0.3591 -0.0861  0.9407
    7SAPS  H16S  869   5.761   2.441   9.188  0.2933 -1.6243 -0.3619
    7SAPS  C217  870   5.558   2.491   9.119  0.3165 -0.3573 -0.8909
    7SAPS  H17R  871   5.576   2.600   9.111  0.7241 -0.4605 -1.3934
    7SAPS  H17S  872   5.455   2.485   9.161  0.7998 -1.1223  0.2449
    7SAPS  C218  873   5.575   2.418   8.986  0.3420 -0.9836 -0.6880
    7SAPS  H18R  874   5.537   2.314   8.988 -1.9870 -0.2028 -0.8975
    7SAPS  H18S  875   5.684   2.414   8.964  1.2419  1.3461  2.6079
    7SAPS  C219  876   5.509   2.495   8.879  0.2160  0.0322  0.6258
    7SAPS  H19R  877   5.556   2.595   8.868  1.5913 -0.7179 -0.5942
    7SAPS  H19S  878   5.403   2.512   8.909  0.4192 -0.3218  1.5868
    7SAPS  C220  879   5.500   2.412   8.745 -0.4264 -0.6255  0.4466
    7SAPS  H20R  880   5.458   2.476   8.664  1.7824  2.2557  1.3974
    7SAPS  H20S  881   5.436   2.323   8.763  1.4005 -2.1483 -0.3035
    7SAPS  H20T  882   5.592   2.359   8.715 -1.1288 -0.9090 -1.2923
    7SAPS   C33  883   5.848   3.457   9.926  0.0745 -0.7724  0.4633
    7SAPS   H3X  884   5.923   3.464   9.845 -0.7728 -1.9245 -0.4649
    7SAPS   H3Y  885   5.833   3.565   9.946  0.4000 -0.1772 -2.0909
    7SAPS   C34  886   5.727   3.395   9.855  0.8333  0.1950 -0.3028
    7SAPS   H4X  887   5.649   3.355   9.922 -0.3758  0.4123 -1.5390
    7SAPS   H4Y  888   5.778   3.315   9.797  0.6988 -1.0485  1.2390
    7SAPS   C35  889   5.654   3.499   9.770 -0.1458  0.2991 -0.2721
    7SAPS   H5X  890   5.623   3.572   9.848 -0.0130 -1.7488  1.8272
    7SAPS   H5Y  891   5.568   3.439   9.735  1.1744 -0.6633 -2.0353
    7SAPS   C36  892   5.746   3.565   9.663  0.1674  0.4471  0.0430
    7SAPS   H6X  893   5.837   3.616   9.702  2.2432 -3.3658  0.6671
    7SAPS   H6Y  894   5.690   3.647   9.614  0.4504  2.0058  2.1719
    7SAPS   C37  895   5.794   3.459   9.561 -0.0905 -0.9375 -0.1994
    7SAPS   H7X  896   5.756   3.356   9.580 -1.6876 -0.2809  0.3852
    7SAPS   H7Y  897   5.904   3.451   9.557 -0.0265 -0.1670 -0.2271
    7SAPS   C38  898   5.741   3.500   9.423 -0.2353  0.2676  0.5989
    7SAPS   H8X  899   5.801   3.586   9.387  1.8239 -1.5737 -0.6666
    7SAPS   H8Y  900   5.636   3.536   9.422 -0.6529 -0.9072 -0.0893
    7SAPS   C39  901   5.745   3.387   9.312  0.4848  0.5493 -0.9088
    7SAPS   H9X  902   5.673   3.397   9.229 -0.7049  0.5723  0.1061
    7SAPS   H9Y  903   5.730   3.288   9.361  2.0846  0.9312  0.4297
    7SAPS  C310  904   5.883   3.379   9.236  0.5013  0.6035 -0.9767
    7SAPS  H10X  905   5.961   3.364   9.314 -0.5296 -1.2102 -0.2357
    7SAPS  H10Y  906   5.908   3.472   9.181  0.2750  1.8232  0.8952
    7SAPS  C311  907   5.892   3.260   9.148 -0.1389 -0.3609  0.4256
    7SAPS  H11X  908   5.826   3.287   9.063 -0.3203 -2.0158 -0.0050
    7SAPS  H11Y  909   5.847   3.168   9.190 -0.7766 -0.0004  0.5383
    7SAPS  C312  910   6.036   3.236   9.108 -0.7881  0.0872 -0.5884
    7SAPS  H12X  911   6.034   3.152   9.035 -0.8917 -1.1365  0.7674
    7SAPS  H12Y  912   6.091   3.190   9.192  1.4106  1.9121 -0.9501
    7SAPS  C313  913   6.108   3.352   9.038  0.0049 -0.8110  0.4959
    7SAPS  H13X  914   6.199   3.294   9.009  0.4605 -0.6303  1.5246
    7SAPS  H13Y  915   6.131   3.440   9.102  0.2820 -1.0068  0.6713
    7SAPS  C314  916   6.041   3.401   8.909  0.9737 -0.4816 -0.3074
    7SAPS  H14X  917   5.964   3.478   8.927  0.7497  0.2157 -3.6429
    7SAPS  H14Y  918   6.002   3.313   8.855  1.3406 -0.6125 -0.3656
    7SAPS  C315  919   6.136   3.479   8.816 -0.3886  0.5772  0.6128
    7SAPS  H15X  920   6.236   3.429   8.817 -1.8150 -2.5529 -0.5160
    7SAPS  H15Y  921   6.153   3.584   8.848  2.3764  0.8054 -1.1425
    7SAPS  C316  922   6.082   3.488   8.665 -0.4906  0.5713  0.4212
    7SAPS  H16X  923   5.974   3.512   8.674 -1.0830 -1.7468  0.0177
    7SAPS  H16Y  924   6.097   3.389   8.618  2.1221 -0.1573  2.5726
    7SAPS  C317  925   6.135   3.601   8.584  0.6785  0.0123 -0.8080
    7SAPS  H17X  926   6.086   3.696   8.615 -1.8593 -0.4714 -2.9825
    7SAPS  H17Y  927   6.112   3.587   8.476 -0.5021 -0.0882 -0.5589
    7SAPS  C318  928   6.286   3.618   8.600 -0.0024  0.4336  0.3520
    7SAPS  H18X  929   6.316   3.648   8.703  1.0028 -0.4087  0.3200
    7SAPS  H18Y  930   6.330   3.696   8.534 -2.1183 -0.1472 -1.8574
    7SAPS  H18Z  931   6.340   3.525   8.574  2.6943  1.3769  2.1524
    8SAPS     N  932   3.807   3.338  10.789  0.1323 -0.6277  0.0204
    8SAPS   HN1  933   3.825   3.240  10.760  0.6483 -0.5067 -0.0791
    8SAPS   HN2  934   3.704   3.346  10.782  0.1527 -0.7912 -0.5253
    8SAPS   HN3  935   3.858   3.406  10.729  1.4840  0.6093  2.4301
    8SAPS   C12  936   3.859   3.350  10.927  0.7598 -0.8624 -0.2806
    8SAPS  H12A  937   3.810   3.276  10.988  0.1284 -0.3109 -0.1071
    8SAPS   C13  938   4.008   3.320  10.949 -0.2209  0.1212 -0.5961
    8SAPS  O13A  939   4.080   3.309  10.848 -0.0668  0.1124  0.7313
    8SAPS  O13B  940   4.061   3.310  11.069  0.0763  0.1525 -0.0353
    8SAPS   C11  941   3.825   3.495  10.972  0.3682  0.3404 -0.6617
    8SAPS  H11A  942   3.882   3.573  10.917 -0.2006  0.0747 -1.6463
    8SAPS  H11B  943   3.863   3.498  11.076  0.8501 -0.1447 -0.8216
    8SAPS     P  944   3.629   3.666  11.012 -0.5187 -0.0005  0.3227
    8SAPS   O13  945   3.497   3.679  10.945  0.5584  0.0616 -0.6343
    8SAPS   O14  946   3.633   3.680  11.157 -0.0850  0.4165 -0.0334
    8SAPS   O12  947   3.683   3.525  10.966 -0.1182 -0.4692  0.5318
    8SAPS   O11  948   3.742   3.759  10.945  0.0833 -0.3633  0.0353
    8SAPS    C1  949   3.708   3.846  10.834  0.3071 -0.1896 -0.0321
    8SAPS    HA  950   3.600   3.865  10.813  1.2035  1.7363 -3.9334
    8SAPS    HB  951   3.755   3.945  10.856 -0.0687  0.1798 -0.8263
    8SAPS    C2  952   3.779   3.793  10.713 -1.0112 -0.5347 -0.2425
    8SAPS    HS  953   3.876   3.744  10.732 -1.0323 -0.7312 -0.6253
    8SAPS   O21  954   3.793   3.907  10.622  0.1221  0.0863  0.1392
    8SAPS   C21  955   3.913   3.953  10.629  0.3515  0.2512 -0.1287
    8SAPS   O22  956   3.996   3.930  10.715  0.5131  0.3886  0.0394
    8SAPS   C22  957   3.927   4.050  10.507  0.7289  0.4903 -0.2430
    8SAPS   H2R  958   3.860   4.015  10.425 -0.2601  3.5203 -0.8259
    8SAPS   H2S  959   3.883   4.145  10.544  1.3153 -0.7783  4.3107
    8SAPS    C3  960   3.707   3.670  10.639 -0.5214 -0.3609 -0.0944
    8SAPS    HX  961   3.604   3.707  10.621  0.1814  0.6601 -2.4012
    8SAPS    HY  962   3.699   3.581  10.705 -1.2574  0.1001  0.4617
    8SAPS   O31  963   3.778   3.656  10.507  0.7596  0.6658  0.4369
    8SAPS   C31  964   3.879   3.579  10.518  0.3265  0.4654  0.2331
    8SAPS   O32  965   3.911   3.514  10.617 -0.2391  0.1397  0.0100
    8SAPS   C32  966   3.970   3.589  10.390 -0.4065  0.3186  0.1881
    8SAPS   H2X  967   3.963   3.494  10.334 -2.5317 -0.5440  1.7749
    8SAPS   H2Y  968   4.072   3.622  10.422  0.6450 -0.9458 -1.6684
    8SAPS   C23  969   4.075   4.059  10.466  0.2768  0.0457 -0.4114
    8SAPS   H3R  970   4.125   3.961  10.457  0.7434  0.1028  1.3045
    8SAPS   H3S  971   4.125   4.109  10.552  1.3532  3.3794 -2.7450
    8SAPS   C24  972   4.067   4.136  10.330  0.6865 -0.4270 -0.3697
    8SAPS   H4R  973   4.024   4.237  10.348  0.4111 -0.5982 -0.0600
    8SAPS   H4S  974   3.996   4.090  10.258 -0.5317 -0.7411  0.9833
    8SAPS   C25  975   4.207   4.145  10.278  0.0399 -0.3747 -0.4827
    8SAPS   H5R  976   4.284   4.103  10.344 -0.4000  0.9802  0.9488
    8SAPS   C26  977   4.226   4.185  10.152 -0.0518  0.2718  0.6460
    8SAPS   H6R  978   4.328   4.188  10.111  0.3733 -0.2620  1.6312
    8SAPS   C27  979   4.116   4.236  10.066  0.0046 -0.1887 -0.1488
    8SAPS   H7R  980   4.035   4.288  10.122  0.6738  0.7003  0.0222
    8SAPS   H7S  981   4.065   4.148  10.021 -0.4218 -1.3857  2.5351
    8SAPS   C28  982   4.167   4.338   9.968 -0.1688 -0.0805 -0.4845
    8SAPS   H8R  983   4.195   4.431  10.020 -1.0038 -1.0538  1.8235
    8SAPS   C29  984   4.139   4.343   9.836  0.0371  0.6623  0.3929
    8SAPS   H9R  985   4.163   4.435   9.780 -0.6593 -0.1316 -1.2524
    8SAPS  C210  986   4.065   4.237   9.762 -0.7048 -0.3388 -0.2388
    8SAPS  H10R  987   4.006   4.176   9.833 -0.0726 -0.8809 -0.1619
    8SAPS  H10S  988   4.139   4.157   9.737 -0.9051 -1.3163  2.0639
    8SAPS  C211  989   3.987   4.280   9.649  0.1317 -0.2391 -0.4020
    8SAPS  H11R  990   3.884   4.306   9.675 -0.2690 -1.9227 -0.1731
    8SAPS  C212  991   4.010   4.276   9.518  0.3504  0.2597  0.0222
    8SAPS  H12R  992   3.943   4.331   9.449  2.7775  2.3470 -0.8122
    8SAPS  C213  993   4.140   4.232   9.453  0.7682  1.2639 -0.5394
    8SAPS  H13R  994   4.220   4.197   9.522 -0.2234 -0.3601 -0.1559
    8SAPS  H13S  995   4.183   4.309   9.386  1.1381  0.4104 -1.3039
    8SAPS  C214  996   4.102   4.104   9.376 -0.1456 -0.2776  0.1078
    8SAPS  H14R  997   4.098   4.009   9.431 -0.2639 -0.4228 -0.1478
    8SAPS  C215  998   4.066   4.092   9.246  0.6730 -0.7425 -0.4700
    8SAPS  H15R  999   4.041   3.992   9.208  2.0872 -1.3719  0.1855
    8SAPS  C216 1000   4.060   4.200   9.134  0.3250 -0.4628 -0.2712
    8SAPS  H16R 1001   4.131   4.176   9.052  0.0978  0.5770 -0.7894
    8SAPS  H16S 1002   4.087   4.302   9.169  0.3084 -0.6421  0.2811
    8SAPS  C217 1003   3.928   4.215   9.057 -0.8902 -0.4510 -0.4419
    8SAPS  H17R 1004   3.850   4.256   9.124  0.2430 -1.0148  1.2730
    8SAPS  H17S 1005   3.897   4.110   9.036  0.1818 -0.4862 -2.0431
    8SAPS  C218 1006   3.928   4.295   8.924  0.6128  0.1352  0.3518
    8SAPS  H18R 1007   4.006   4.269   8.850  0.0621  0.8827 -0.5257
    8SAPS  H18S 1008   3.936   4.404   8.945  0.0925 -0.0081  1.3318
    8SAPS  C219 1009   3.793   4.273   8.846 -0.0928 -0.1724 -0.0329
    8SAPS  H19R 1010   3.794   4.170   8.806 -1.5245 -1.1543  2.3008
    8SAPS  H19S 1011   3.781   4.344   8.761  0.8188  1.0644  0.8351
    8SAPS  C220 1012   3.669   4.286   8.935 -0.0573 -0.1839  0.4786
    8SAPS  H20R 1013   3.579   4.244   8.885 -0.2605 -0.5842  1.1786
    8SAPS  H20S 1014   3.658   4.395   8.954  1.1856  0.0674 -0.1229
    8SAPS  H20T 1015   3.674   4.234   9.033  2.3585 -0.9585  0.0097
    8SAPS   C33 1016   3.919   3.693  10.287 -0.5188  0.1446  0.4791
    8SAPS   H3X 1017   3.929   3.790  10.342 -0.6840 -0.3818  1.4612
    8SAPS   H3Y 1018   3.811   3.677  10.269 -0.3113 -0.6480 -0.0935
    8SAPS   C34 1019   3.998   3.690  10.157 -0.2617 -0.2923 -0.5381
    8SAPS   H4X 1020   3.997   3.587  10.115  2.6603 -0.6837  0.1259
    8SAPS   H4Y 1021   4.106   3.714  10.173  0.0889 -0.8805 -1.8453
    8SAPS   C35 1022   3.938   3.780  10.045 -0.5390  0.0804 -0.6485
    8SAPS   H5X 1023   3.915   3.879  10.091 -1.1232 -1.1249  1.8051
    8SAPS   H5Y 1024   3.849   3.726  10.008 -0.7590  1.0259 -1.5380
    8SAPS   C36 1025   4.032   3.792   9.922  0.5042  0.6806 -0.5450
    8SAPS   H6X 1026   3.985   3.850   9.839  1.4344  0.3158 -1.3451
    8SAPS   H6Y 1027   4.046   3.691   9.879 -1.1969  0.5943 -0.9755
    8SAPS   C37 1028   4.166   3.862   9.948 -0.2882 -0.5860  0.0353
    8SAPS   H7X 1029   4.230   3.813  10.025 -0.4252 -0.4439  0.2418
    8SAPS   H7Y 1030   4.136   3.956   9.999 -1.5777 -1.0015  0.0695
    8SAPS   C38 1031   4.263   3.881   9.824  1.0949 -0.2433 -0.3945
    8SAPS   H8X 1032   4.208   3.913   9.733 -2.5751  1.2402  2.0958
    8SAPS   H8Y 1033   4.295   3.777   9.802 -2.1351 -1.4620  0.0903
    8SAPS   C39 1034   4.390   3.967   9.851  0.1356 -0.0797 -0.0815
    8SAPS   H9X 1035   4.451   3.944   9.940  0.3587 -1.9232 -0.6702
    8SAPS   H9Y 1036   4.372   4.077   9.853 -0.4060 -0.1392 -1.0306
    8SAPS  C310 1037   4.506   3.941   9.746 -0.1875 -0.0354  0.5313
    8SAPS  H10X 1038   4.540   3.836   9.740 -3.8842 -1.4719  1.8925
    8SAPS  H10Y 1039   4.590   4.010   9.771 -0.5519  1.5074 -2.0331
    8SAPS  C311 1040   4.465   3.980   9.603 -0.1017  0.0051 -0.1914
    8SAPS  H11X 1041   4.470   4.089   9.581 -0.3126  0.2864  1.1143
    8SAPS  H11Y 1042   4.365   3.943   9.572 -0.3454 -0.4755  1.1166
    8SAPS  C312 1043   4.562   3.924   9.498  0.3710  0.0409 -1.2022
    8SAPS  H12X 1044   4.560   3.813   9.501  4.0846 -0.1439  0.6626
    8SAPS  H12Y 1045   4.660   3.959   9.538  1.3723 -1.1015 -2.5416
    8SAPS  C313 1046   4.537   3.974   9.361 -0.3087  0.6899  0.4332
    8SAPS  H13X 1047   4.554   4.083   9.363  2.3823  0.4131 -1.5996
    8SAPS  H13Y 1048   4.435   3.956   9.320 -0.0359 -0.1031  0.0644
    8SAPS  C314 1049   4.628   3.899   9.259 -0.3276  0.4105 -0.2357
    8SAPS  H14X 1050   4.585   3.800   9.232  0.4500  0.3672 -1.4035
    8SAPS  H14Y 1051   4.729   3.883   9.301 -0.9552  0.4498  1.3662
    8SAPS  C315 1052   4.638   3.969   9.117 -0.0001  0.2467  0.0772
    8SAPS  H15X 1053   4.688   3.897   9.050  0.1925  1.8272 -1.5540
    8SAPS  H15Y 1054   4.703   4.058   9.125 -0.1194  0.2829  0.6623
    8SAPS  C316 1055   4.506   4.003   9.057  0.4087  0.6794  0.0595
    8SAPS  H16X 1056   4.465   4.087   9.117  0.9851  1.4056 -0.5234
    8SAPS  H16Y 1057   4.437   3.916   9.052  2.3877 -0.8868 -2.8336
    8SAPS  C317 1058   4.521   4.064   8.921  0.4733 -0.0007  0.9214
    8SAPS  H17X 1059   4.576   3.996   8.852 -0.6908  0.5231 -0.5716
    8SAPS  H17Y 1060   4.581   4.157   8.922 -0.8025  0.8401  1.5426
    8SAPS  C318 1061   4.387   4.099   8.857 -1.3177  0.2512 -0.1329
    8SAPS  H18X 1062   4.400   4.140   8.754  1.3823  1.8340  0.7589
    8SAPS  H18Y 1063   4.361   4.192   8.912  1.0620  1.7994 -1.4568
    8SAPS  H18Z 1064   4.305   4.024   8.857 -0.7082 -0.5114 -2.4929
    9SAPS     N 1065   6.097   6.753   6.315 -0.2054 -0.6201 -0.4560
    9SAPS   HN1 1066   6.100   6.837   6.253  3.3587 -0.1165  0.1700
    9SAPS   HN2 1067   6.075   6.781   6.412  2.1911 -3.9634  1.2375
    9SAPS   HN3 1068   6.193   6.713   6.309  0.9075  1.7398  0.4271
    9SAPS   C12 1069   5.989   6.674   6.266 -0.7354  0.0448  0.2230
    9SAPS  H12A 1070   5.952   6.719   6.175  0.1786 -0.4698 -0.4216
    9SAPS   C13 1071   6.039   6.541   6.221 -0.2491 -0.5340 -0.6077
    9SAPS  O13A 1072   6.160   6.502   6.237 -0.2596 -0.3158  0.2900
    9SAPS  O13B 1073   5.947   6.462   6.187 -0.2443  0.5413  0.0853
    9SAPS   C11 1074   5.873   6.666   6.376 -0.2405 -0.3801  1.2856
    9SAPS  H11A 1075   5.904   6.589   6.450 -2.5534 -2.4540  0.2443
    9SAPS  H11B 1076   5.785   6.619   6.328 -0.3452 -0.0404  1.1424
    9SAPS     P 1077   5.753   6.904   6.386 -0.0655  0.7212  0.0663
    9SAPS   O13 1078   5.772   6.934   6.245  0.2061  0.6016  0.4281
    9SAPS   O14 1079   5.608   6.885   6.424  0.1866 -0.1260  0.4557
    9SAPS   O12 1080   5.840   6.786   6.439  0.1757 -0.3279 -0.2093
    9SAPS   O11 1081   5.823   7.013   6.470  0.2827  0.1771 -0.7403
    9SAPS    C1 1082   5.854   7.145   6.441  0.0886 -0.2096  0.1739
    9SAPS    HA 1083   5.952   7.151   6.388 -0.1521 -0.4681 -0.3071
    9SAPS    HB 1084   5.782   7.191   6.370  0.8572  0.3361 -0.2836
    9SAPS    C2 1085   5.851   7.241   6.564  0.5287 -0.0212  0.1551
    9SAPS    HS 1086   5.823   7.342   6.528 -0.7827 -0.9650 -1.6221
    9SAPS   O21 1087   5.975   7.229   6.634 -0.0495  0.2027  0.0615
    9SAPS   C21 1088   6.032   7.333   6.694  0.7586 -0.2424 -0.4398
    9SAPS   O22 1089   5.994   7.449   6.687  0.2243  0.5200  0.3412
    9SAPS   C22 1090   6.153   7.288   6.773 -0.4355 -0.5622 -0.7844
    9SAPS   H2R 1091   6.152   7.177   6.779 -0.6356 -0.5488 -0.5274
    9SAPS   H2S 1092   6.245   7.308   6.713 -0.5858  0.2932 -0.7367
    9SAPS    C3 1093   5.739   7.208   6.665  0.3177  0.2103  1.0186
    9SAPS    HX 1094   5.739   7.102   6.697 -1.8897 -0.1413  0.0135
    9SAPS    HY 1095   5.645   7.217   6.606  0.4729 -0.4173  0.6664
    9SAPS   O31 1096   5.745   7.300   6.775 -0.6622  0.0041  0.3677
    9SAPS   C31 1097   5.631   7.352   6.821 -0.4700 -0.1050 -0.6586
    9SAPS   O32 1098   5.522   7.332   6.784 -0.4047 -0.6699 -0.0691
    9SAPS   C32 1099   5.657   7.453   6.927 -0.7631  0.0918 -0.3688
    9SAPS   H2X 1100   5.590   7.542   6.922 -1.3089 -0.1083  2.1447
    9SAPS   H2Y 1101   5.759   7.496   6.918 -1.2572  1.9834  2.1721
    9SAPS   C23 1102   6.168   7.349   6.917  0.1229 -0.0912 -0.2447
    9SAPS   H3R 1103   6.172   7.460   6.919  0.3299 -0.1067  1.1106
    9SAPS   H3S 1104   6.262   7.310   6.961  0.8864  0.7357 -1.1054
    9SAPS   C24 1105   6.050   7.307   7.004  0.1624 -0.1749 -0.3919
    9SAPS   H4R 1106   5.956   7.336   6.953 -0.7358 -0.9114  0.7805
    9SAPS   H4S 1107   6.056   7.356   7.103 -1.1479  1.2804 -0.9940
    9SAPS   C25 1108   6.029   7.159   7.006  0.1018  0.7110 -0.1366
    9SAPS   H5R 1109   5.993   7.111   6.914 -1.2091 -1.2837  1.3480
    9SAPS   C26 1110   6.023   7.069   7.111  0.0783 -0.5101 -0.3221
    9SAPS   H6R 1111   5.995   6.964   7.098 -2.4841  0.0562  0.0207
    9SAPS   C27 1112   6.042   7.103   7.260  0.2958 -0.3321 -0.5939
    9SAPS   H7R 1113   6.093   7.202   7.264 -0.6157  0.1002  1.7649
    9SAPS   H7S 1114   6.091   7.024   7.320 -3.3892 -0.7812  2.1489
    9SAPS   C28 1115   5.912   7.128   7.339 -0.3338  0.0372 -0.0821
    9SAPS   H8R 1116   5.823   7.146   7.277 -0.6579  1.4646  0.7474
    9SAPS   C29 1117   5.909   7.142   7.478  0.2335  0.5202  0.5639
    9SAPS   H9R 1118   5.808   7.150   7.522 -0.1425  0.7694 -0.3098
    9SAPS  C210 1119   6.015   7.133   7.588  0.5779 -0.2890  0.3750
    9SAPS  H10R 1120   5.976   7.170   7.685  1.9896 -0.4019  1.0021
    9SAPS  H10S 1121   6.094   7.210   7.579  0.9561 -0.5018  1.7094
    9SAPS  C211 1122   6.069   6.993   7.607  0.2243  0.6723 -0.0347
    9SAPS  H11R 1123   6.076   6.939   7.511 -0.1707 -0.4375  0.5407
    9SAPS  C212 1124   6.101   6.924   7.716  0.1654 -0.3297  0.0073
    9SAPS  H12R 1125   6.128   6.819   7.700  1.1244 -0.3634  1.6268
    9SAPS  C213 1126   6.083   6.977   7.853  0.6962 -0.3171 -0.8278
    9SAPS  H13R 1127   6.071   7.087   7.861  1.0081 -0.3513  0.3562
    9SAPS  H13S 1128   6.185   6.969   7.897  0.5464  0.3433 -0.3567
    9SAPS  C214 1129   6.000   6.898   7.945 -0.3366 -0.1149  0.1285
    9SAPS  H14R 1130   5.992   6.790   7.927 -1.5460  0.1641 -1.2022
    9SAPS  C215 1131   5.912   6.954   8.031 -0.4248 -0.4485 -0.5677
    9SAPS  H15R 1132   5.848   6.884   8.086  1.0720 -1.0990  0.4079
    9SAPS  C216 1133   5.890   7.102   8.058  0.4854 -0.0214 -0.7253
    9SAPS  H16R 1134   5.796   7.140   8.014 -1.0551  0.5792  2.7639
    9SAPS  H16S 1135   5.972   7.168   8.021  2.3934 -1.2306  1.1429
    9SAPS  C217 1136   5.870   7.122   8.211 -0.1838 -0.5416 -0.5463
    9SAPS  H17R 1137   5.836   7.226   8.233 -1.3563 -1.1735  0.8009
    9SAPS  H17S 1138   5.971   7.112   8.254 -0.5003  1.7147  0.8913
    9SAPS  C218 1139   5.774   7.034   8.285 -0.9014  0.3009  0.1450
    9SAPS  H18R 1140   5.809   6.929   8.295  0.1800  0.7086  0.7699
    9SAPS  H18S 1141   5.670   7.043   8.246 -0.9479 -1.1275 -0.1138
    9SAPS  C219 1142   5.769   7.049   8.441  0.3554 -0.9593 -0.1681
    9SAPS  H19R 1143   5.677   7.002   8.483 -0.5036  1.7310  1.2098
    9SAPS  H19S 1144   5.774   7.159   8.455 -0.0811 -0.4362 -3.3591
    9SAPS  C220 1145   5.891   6.997   8.523 -0.2859 -0.0124  0.0204
    9SAPS  H20R 1146   5.987   7.048   8.501 -0.6561  1.7130  2.0481
    9SAPS  H20S 1147   5.904   6.887   8.510  3.5220  0.3799 -0.6912
    9SAPS  H20T 1148   5.869   7.001   8.632  0.5018 -0.5000  0.2081
    9SAPS   C33 1149   5.653   7.389   7.068  0.3086  0.0562 -0.6328
    9SAPS   H3X 1150   5.739   7.319   7.062  0.5449  0.4084 -1.4268
    9SAPS   H3Y 1151   5.558   7.331   7.073  0.2566  0.1318 -0.7652
    9SAPS   C34 1152   5.665   7.495   7.177  0.6279  0.0789  0.1755
    9SAPS   H4X 1153   5.575   7.559   7.167  0.7830  0.1170 -1.2149
    9SAPS   H4Y 1154   5.753   7.563   7.164  0.7892 -0.0978  0.3401
    9SAPS   C35 1155   5.669   7.438   7.318 -0.1222 -0.7550 -0.2005
    9SAPS   H5X 1156   5.765   7.384   7.331  1.0615  0.2655 -3.4574
    9SAPS   H5Y 1157   5.590   7.362   7.333 -1.2216  0.4485  0.2990
    9SAPS   C36 1158   5.677   7.537   7.435  0.3524 -0.2283  0.3210
    9SAPS   H6X 1159   5.573   7.571   7.451  0.1503 -1.3521  1.5732
    9SAPS   H6Y 1160   5.739   7.622   7.399  0.2738 -0.0126  0.6885
    9SAPS   C37 1161   5.745   7.474   7.557 -0.7139 -0.2782  0.5655
    9SAPS   H7X 1162   5.848   7.512   7.573 -0.4218 -1.0479  0.5771
    9SAPS   H7Y 1163   5.762   7.365   7.542  0.9205  0.1947 -1.6592
    9SAPS   C38 1164   5.652   7.499   7.677 -0.5090  0.2282  0.0707
    9SAPS   H8X 1165   5.548   7.473   7.648 -0.0712  0.0497 -1.3848
    9SAPS   H8Y 1166   5.640   7.606   7.704  0.6688  0.4064 -0.0719
    9SAPS   C39 1167   5.683   7.417   7.801 -0.0347 -0.0478  0.1598
    9SAPS   H9X 1168   5.792   7.428   7.820  0.2391 -0.6963 -0.9169
    9SAPS   H9Y 1169   5.659   7.311   7.777 -1.4487  0.8700 -2.9688
    9SAPS  C310 1170   5.615   7.469   7.927  0.5095  0.6559 -0.9922
    9SAPS  H10X 1171   5.505   7.469   7.909  0.7305 -2.6573 -3.2227
    9SAPS  H10Y 1172   5.648   7.573   7.946  1.6926  0.0457  0.5263
    9SAPS  C311 1173   5.650   7.399   8.058  0.0461  0.3316 -0.1009
    9SAPS  H11X 1174   5.760   7.391   8.068 -0.0921 -1.5946  0.1934
    9SAPS  H11Y 1175   5.618   7.293   8.052  2.0028 -0.3865  1.2749
    9SAPS  C312 1176   5.586   7.464   8.185 -0.0044  0.0600 -0.1965
    9SAPS  H12X 1177   5.478   7.473   8.161 -0.1304  0.4082  0.4755
    9SAPS  H12Y 1178   5.624   7.567   8.202  1.0574 -0.4645  0.7816
    9SAPS  C313 1179   5.589   7.381   8.309  0.1757  0.5040  0.7250
    9SAPS  H13X 1180   5.692   7.371   8.349 -0.2036  0.3063  1.6707
    9SAPS  H13Y 1181   5.546   7.281   8.288  2.9853 -0.6662  0.1078
    9SAPS  C314 1182   5.499   7.445   8.417 -0.1383 -0.2801 -0.2255
    9SAPS  H14X 1183   5.400   7.467   8.371  0.2457  0.9211 -0.5282
    9SAPS  H14Y 1184   5.533   7.548   8.442 -2.6393 -0.1274  3.2644
    9SAPS  C315 1185   5.485   7.354   8.542  0.8448  0.2202 -0.1134
    9SAPS  H15X 1186   5.578   7.302   8.574  0.1958 -0.8738  0.0370
    9SAPS  H15Y 1187   5.428   7.261   8.523  1.5816 -0.2538 -0.0444
    9SAPS  C316 1188   5.423   7.436   8.657 -0.6470  1.0837 -0.6499
    9SAPS  H16X 1189   5.458   7.539   8.634  1.9464  0.6057  0.7706
    9SAPS  H16Y 1190   5.480   7.406   8.747  2.0473 -0.9635 -2.8869
    9SAPS  C317 1191   5.267   7.436   8.661 -0.1462  0.7802  0.4063
    9SAPS  H17X 1192   5.227   7.333   8.676  0.5722  0.2467 -1.1197
    9SAPS  H17Y 1193   5.228   7.468   8.563 -1.3028  1.5226  1.0860
    9SAPS  C318 1194   5.210   7.528   8.769 -0.8419  0.4306 -0.7341
    9SAPS  H18X 1195   5.253   7.498   8.867 -1.9895  0.5351 -0.1796
    9SAPS  H18Y 1196   5.099   7.526   8.779 -0.6602 -0.0270  2.0043
    9SAPS  H18Z 1197   5.242   7.631   8.744  2.0863  0.1408  1.3358
   10SAPS     N 1198   5.718   6.328   6.213 -0.3505 -0.0417  0.1395
   10SAPS   HN1 1199   5.645   6.401   6.227 -1.0229 -0.8455  0.9641
   10SAPS   HN2 1200   5.742   6.280   6.302  1.3710  0.5228  0.0057
   10SAPS   HN3 1201   5.801   6.382   6.181 -0.8448  0.0851 -0.9598
   10SAPS   C12 1202   5.684   6.232   6.111 -0.0031 -0.3902  0.2516
   10SAPS  H12A 1203   5.680   6.275   6.012  0.2971  1.3790  0.9698
   10SAPS   C13 1204   5.797   6.124   6.093  0.0246  0.3994  0.0080
   10SAPS  O13A 1205   5.906   6.146   6.148  0.0906  0.4328 -0.5268
   10SAPS  O13B 1206   5.789   6.044   5.999  0.2115  0.3566 -0.4469
   10SAPS   C11 1207   5.559   6.150   6.144  0.0650  0.1341  0.5566
   10SAPS  H11A 1208   5.593   6.074   6.217 -0.3293 -1.4140 -0.8078
   10SAPS  H11B 1209   5.533   6.088   6.055  0.1064  0.6092  0.2125
   10SAPS     P 1210   5.307   6.181   6.187  0.0558  0.2268  0.6523
   10SAPS   O13 1211   5.256   6.171   6.050 -0.1026 -0.0436 -0.1456
   10SAPS   O14 1212   5.310   6.051   6.262  0.2672 -0.0366  0.4082
   10SAPS   O12 1213   5.453   6.234   6.192 -0.1186 -0.3526 -0.2622
   10SAPS   O11 1214   5.227   6.293   6.264 -0.3035 -0.0553  0.0162
   10SAPS    C1 1215   5.284   6.382   6.358  0.2154  0.0191 -0.3706
   10SAPS    HA 1216   5.389   6.409   6.330  1.0685 -1.2949  1.3734
   10SAPS    HB 1217   5.233   6.480   6.347 -1.7397 -1.1484 -2.6527
   10SAPS    C2 1218   5.267   6.327   6.499  0.1484 -0.1006 -0.6155
   10SAPS    HS 1219   5.315   6.227   6.506  1.6134  0.3382 -3.0029
   10SAPS   O21 1220   5.123   6.321   6.529 -0.1169  0.1346  0.2640
   10SAPS   C21 1221   5.080   6.224   6.607  0.4756 -0.5202  0.4466
   10SAPS   O22 1222   5.147   6.145   6.670 -0.9023  0.3249 -0.5630
   10SAPS   C22 1223   4.927   6.241   6.628 -0.5356 -0.2598  0.3623
   10SAPS   H2R 1224   4.909   6.344   6.665 -3.2129 -0.2403 -0.7602
   10SAPS   H2S 1225   4.885   6.233   6.525  0.4636 -1.2208  0.0117
   10SAPS    C3 1226   5.337   6.412   6.601  0.2654  0.1287 -0.4728
   10SAPS    HX 1227   5.306   6.518   6.595 -1.3148 -0.3366 -1.1272
   10SAPS    HY 1228   5.444   6.418   6.572  0.7933  1.2722  1.5444
   10SAPS   O31 1229   5.351   6.351   6.733  0.9043  0.4306  0.8971
   10SAPS   C31 1230   5.250   6.398   6.819 -0.1951 -0.0120 -0.4365
   10SAPS   O32 1231   5.149   6.460   6.784  0.0968  0.0737  0.1194
   10SAPS   C32 1232   5.279   6.348   6.963  0.0041  0.3729 -0.2236
   10SAPS   H2X 1233   5.369   6.396   7.006  0.3488 -1.6740  1.5074
   10SAPS   H2Y 1234   5.278   6.237   6.955  0.8609  0.3521 -0.0409
   10SAPS   C23 1235   4.863   6.142   6.726  0.5610 -0.2474  0.2587
   10SAPS   H3R 1236   4.922   6.132   6.819  0.2628  0.3366  0.5135
   10SAPS   H3S 1237   4.871   6.050   6.664 -0.6160  1.1725 -2.1848
   10SAPS   C24 1238   4.723   6.185   6.753 -0.0290  0.2574 -0.3506
   10SAPS   H4R 1239   4.664   6.191   6.659 -0.5121 -0.8495 -0.1389
   10SAPS   H4S 1240   4.725   6.279   6.811  0.2281 -0.8059  1.4301
   10SAPS   C25 1241   4.658   6.074   6.837 -0.3702  0.1418 -0.2179
   10SAPS   H5R 1242   4.600   6.002   6.778  2.1092 -1.3318 -1.0028
   10SAPS   C26 1243   4.650   6.070   6.969  0.0824 -0.1485 -0.6055
   10SAPS   H6R 1244   4.593   5.983   7.007  3.7658 -2.4180  0.2840
   10SAPS   C27 1245   4.715   6.159   7.072 -0.2838 -0.8881 -0.1646
   10SAPS   H7R 1246   4.637   6.203   7.138  1.2903  0.4880  0.8503
   10SAPS   H7S 1247   4.760   6.248   7.022 -1.1139 -0.5184 -0.2773
   10SAPS   C28 1248   4.812   6.077   7.145  0.0388 -0.7542 -0.9415
   10SAPS   H8R 1249   4.905   6.068   7.087  0.4460 -1.7838 -0.1498
   10SAPS   C29 1250   4.809   6.024   7.267 -0.2153  0.4921 -0.1569
   10SAPS   H9R 1251   4.888   5.960   7.308 -2.0183 -1.9050 -0.1853
   10SAPS  C210 1252   4.692   6.050   7.359  0.3620  0.3826  0.0707
   10SAPS  H10R 1253   4.632   5.958   7.370  1.6645 -1.3551 -4.9425
   10SAPS  H10S 1254   4.618   6.129   7.333  0.3344 -0.4320 -2.6053
   10SAPS  C211 1255   4.733   6.093   7.496 -0.0441  0.0924 -0.0682
   10SAPS  H11R 1256   4.801   6.179   7.497  0.5584 -0.3810  1.0744
   10SAPS  C212 1257   4.712   6.026   7.619  0.2106  0.6898  0.0188
   10SAPS  H12R 1258   4.742   6.066   7.717  1.4802  0.4407 -0.2407
   10SAPS  C213 1259   4.635   5.895   7.638 -0.0973 -0.4605  0.3544
   10SAPS  H13R 1260   4.599   5.849   7.543  0.9793  0.4907 -0.5451
   10SAPS  H13S 1261   4.545   5.914   7.701  0.1936  2.7220 -0.0405
   10SAPS  C214 1262   4.720   5.792   7.713  0.7938  0.3648 -0.1993
   10SAPS  H14R 1263   4.707   5.790   7.822 -1.8538 -1.1022 -0.4665
   10SAPS  C215 1264   4.797   5.700   7.654  0.3472 -0.2033  0.0300
   10SAPS  H15R 1265   4.866   5.648   7.721  1.2676  2.9766  1.7991
   10SAPS  C216 1266   4.819   5.700   7.501  0.6491  0.0303  0.7254
   10SAPS  H16R 1267   4.926   5.685   7.477  0.8270  2.3057 -0.0757
   10SAPS  H16S 1268   4.794   5.799   7.458  3.0303 -0.3437 -1.8034
   10SAPS  C217 1269   4.753   5.601   7.402 -0.5453  0.3185 -0.4318
   10SAPS  H17R 1270   4.645   5.613   7.425 -0.4306  1.8251 -0.5749
   10SAPS  H17S 1271   4.790   5.497   7.418 -0.0165  0.5862  0.1197
   10SAPS  C218 1272   4.782   5.640   7.256 -0.5773 -0.9987  0.6644
   10SAPS  H18R 1273   4.890   5.667   7.255 -0.9009  0.3744 -0.0949
   10SAPS  H18S 1274   4.720   5.731   7.242  1.7894  0.8824  1.6507
   10SAPS  C219 1275   4.749   5.530   7.158 -0.5366 -0.0465 -0.0916
   10SAPS  H19R 1276   4.744   5.575   7.057  2.3670 -0.0692 -0.3336
   10SAPS  H19S 1277   4.651   5.485   7.182 -1.4743  0.9813 -1.7849
   10SAPS  C220 1278   4.864   5.430   7.150 -0.5686  0.3581 -0.0261
   10SAPS  H20R 1279   4.900   5.409   7.253 -3.1519 -2.6751  0.3894
   10SAPS  H20S 1280   4.946   5.470   7.087  0.7208  0.1520  1.4432
   10SAPS  H20T 1281   4.825   5.331   7.121 -1.0569  0.8003 -0.9145
   10SAPS   C33 1282   5.170   6.402   7.052  0.0532 -0.1438  0.3408
   10SAPS   H3X 1283   5.081   6.342   7.024 -0.5083  1.5568 -1.7087
   10SAPS   H3Y 1284   5.140   6.507   7.030  1.0493  0.1519  0.3402
   10SAPS   C34 1285   5.193   6.405   7.207  0.7541  0.0073 -0.3936
   10SAPS   H4X 1286   5.113   6.474   7.241  1.2307  1.1663 -1.5403
   10SAPS   H4Y 1287   5.289   6.456   7.229  0.4513  1.6460 -2.5727
   10SAPS   C35 1288   5.179   6.276   7.299 -0.0247  0.3557 -0.1396
   10SAPS   H5X 1289   5.261   6.212   7.261  0.5801  0.0147  1.6355
   10SAPS   H5Y 1290   5.089   6.214   7.277  0.1184 -0.2040  0.7948
   10SAPS   C36 1291   5.193   6.294   7.450  0.0042  0.0489  0.1100
   10SAPS   H6X 1292   5.193   6.194   7.497 -1.1363 -1.2066 -2.3541
   10SAPS   H6Y 1293   5.098   6.339   7.485  0.5965 -0.0840  1.9891
   10SAPS   C37 1294   5.312   6.371   7.510  0.1519  0.2013 -0.5049
   10SAPS   H7X 1295   5.307   6.470   7.459 -0.8607 -0.3165 -1.4576
   10SAPS   H7Y 1296   5.400   6.316   7.472  0.3142  1.1072 -1.4945
   10SAPS   C38 1297   5.315   6.357   7.661  0.0612 -0.2550 -0.1341
   10SAPS   H8X 1298   5.418   6.371   7.699  0.6862  0.0043 -1.8167
   10SAPS   H8Y 1299   5.273   6.257   7.684 -0.6601  0.1641  0.3940
   10SAPS   C39 1300   5.211   6.462   7.724 -0.3869  0.7039  0.0354
   10SAPS   H9X 1301   5.115   6.465   7.668 -0.7888 -2.5511  0.3540
   10SAPS   H9Y 1302   5.260   6.562   7.716  0.5118  0.3942  1.4552
   10SAPS  C310 1303   5.161   6.426   7.858  0.1912 -0.4364 -0.3560
   10SAPS  H10X 1304   5.255   6.386   7.902 -0.3385 -0.2466  0.9826
   10SAPS  H10Y 1305   5.077   6.354   7.855 -0.3926  0.2111  0.1954
   10SAPS  C311 1306   5.108   6.547   7.941 -0.1867 -0.3124  0.1761
   10SAPS  H11X 1307   5.008   6.575   7.900  0.0158  1.4396  0.7969
   10SAPS  H11Y 1308   5.171   6.638   7.931  0.0593 -0.4124  0.8065
   10SAPS  C312 1309   5.097   6.518   8.090  0.2861  0.1757 -0.2024
   10SAPS  H12X 1310   5.197   6.490   8.129 -0.1651 -0.0165  0.8374
   10SAPS  H12Y 1311   5.030   6.435   8.121  2.4091 -0.7074  2.4004
   10SAPS  C313 1312   5.040   6.648   8.166  0.2627 -0.0751 -0.3932
   10SAPS  H13X 1313   4.935   6.666   8.134  0.0397 -0.1873  0.2597
   10SAPS  H13Y 1314   5.104   6.732   8.133 -0.5715  0.7223 -0.0130
   10SAPS  C314 1315   5.040   6.609   8.313  0.2590  0.0496 -0.0895
   10SAPS  H14X 1316   5.140   6.570   8.339  0.0943  0.9244  2.1310
   10SAPS  H14Y 1317   4.959   6.534   8.329 -2.0234  1.9413 -2.0325
   10SAPS  C315 1318   5.016   6.733   8.404  0.4425  0.0630 -0.4525
   10SAPS  H15X 1319   4.921   6.783   8.378  0.5100  0.8221  0.7409
   10SAPS  H15Y 1320   5.103   6.800   8.390  0.9350 -0.7081 -1.2308
   10SAPS  C316 1321   5.003   6.688   8.553  0.3998  0.2152 -1.3085
   10SAPS  H16X 1322   5.095   6.630   8.576  0.1565  0.7211  1.1111
   10SAPS  H16Y 1323   4.915   6.620   8.565  0.8814 -0.2920 -0.6222
   10SAPS  C317 1324   4.972   6.805   8.641 -0.0045 -0.0098 -0.4088
   10SAPS  H17X 1325   4.864   6.832   8.640  0.3455  1.8045  1.7553
   10SAPS  H17Y 1326   5.033   6.892   8.610  2.0025 -1.1429  0.1916
   10SAPS  C318 1327   5.016   6.781   8.785  0.5167  0.1101 -0.1428
   10SAPS  H18X 1328   5.005   6.871   8.848  2.2020  0.7271 -0.6763
   10SAPS  H18Y 1329   5.122   6.750   8.780  0.6389  0.6026 -0.6877
   10SAPS  H18Z 1330   4.951   6.701   8.827 -0.3645  1.8545  2.0016
   11SAPS     N 1331   1.734   2.389   5.597  0.1170 -0.0573 -0.4698
   11SAPS   HN1 1332   1.770   2.413   5.502 -1.0035  1.3844 -0.5744
   11SAPS   HN2 1333   1.674   2.472   5.618 -0.3580  0.6004 -3.7205
   11SAPS   HN3 1334   1.818   2.386   5.657  0.2663 -1.0703 -0.7211
   11SAPS   C12 1335   1.657   2.262   5.607 -0.1998 -0.9171  0.6065
   11SAPS  H12A 1336   1.575   2.283   5.540  3.1070  2.0236 -3.0795
   11SAPS   C13 1337   1.721   2.146   5.538  0.6773  0.0698  0.2353
   11SAPS  O13A 1338   1.805   2.168   5.448 -0.5335  0.1197 -0.0133
   11SAPS  O13B 1339   1.659   2.038   5.537 -0.8640 -0.3521 -0.3632
   11SAPS   C11 1340   1.616   2.236   5.750 -0.2876  0.1571  0.2665
   11SAPS  H11A 1341   1.706   2.206   5.809  1.3538 -0.1536 -2.2602
   11SAPS  H11B 1342   1.556   2.143   5.753  2.5499 -1.7648  1.6430
   11SAPS     P 1343   1.392   2.345   5.810  0.0783 -0.0201  0.1328
   11SAPS   O13 1344   1.357   2.471   5.877  0.5450 -0.3248  0.4168
   11SAPS   O14 1345   1.341   2.323   5.672 -0.7468 -1.1763 -0.3165
   11SAPS   O12 1346   1.545   2.336   5.824 -0.0125  0.0269  0.2405
   11SAPS   O11 1347   1.342   2.222   5.901 -0.0426  0.0249  0.2412
   11SAPS    C1 1348   1.397   2.215   6.031 -0.2497  0.2006 -0.5755
   11SAPS    HA 1349   1.508   2.209   6.033 -0.3146 -1.4835 -0.7754
   11SAPS    HB 1350   1.368   2.306   6.088  1.9192  2.1167 -2.3752
   11SAPS    C2 1351   1.335   2.097   6.107  0.2240  0.0112  0.1486
   11SAPS    HS 1352   1.340   2.006   6.043 -1.1803 -1.4262  1.9687
   11SAPS   O21 1353   1.188   2.104   6.126  0.1803 -0.5791 -0.2399
   11SAPS   C21 1354   1.130   1.992   6.167 -0.0342 -0.3684  0.6830
   11SAPS   O22 1355   1.188   1.883   6.186  0.5729  0.1743 -0.5903
   11SAPS   C22 1356   0.980   2.006   6.188  0.2847 -0.0794  0.0232
   11SAPS   H2R 1357   0.921   2.020   6.095  1.8898 -0.1081 -1.0544
   11SAPS   H2S 1358   0.939   1.924   6.249 -0.9110 -0.2480 -0.9717
   11SAPS    C3 1359   1.408   2.080   6.242 -0.4793 -0.3691 -0.0816
   11SAPS    HX 1360   1.511   2.062   6.204 -0.1204  2.1413 -0.4407
   11SAPS    HY 1361   1.371   1.988   6.292 -0.7559 -1.0012 -1.4044
   11SAPS   O31 1362   1.395   2.202   6.312 -0.4846  0.7937 -0.2367
   11SAPS   C31 1363   1.500   2.258   6.366 -0.0094  0.6322 -0.0708
   11SAPS   O32 1364   1.609   2.200   6.381 -0.2769  0.2910  0.2987
   11SAPS   C32 1365   1.481   2.396   6.417 -0.1400 -0.3194 -0.0665
   11SAPS   H2X 1366   1.428   2.457   6.341 -0.3703 -0.1852  0.1983
   11SAPS   H2Y 1367   1.581   2.444   6.430 -1.3447  2.1589  0.7780
   11SAPS   C23 1368   0.954   2.132   6.268 -0.0705 -0.7274 -0.2710
   11SAPS   H3R 1369   0.957   2.215   6.195 -0.3738  0.4235  0.9759
   11SAPS   H3S 1370   1.041   2.149   6.336 -0.4240 -1.1581  0.2996
   11SAPS   C24 1371   0.822   2.138   6.346 -0.1656 -0.0859 -0.2980
   11SAPS   H4R 1372   0.822   2.230   6.408 -1.0823 -1.2033  1.4658
   11SAPS   H4S 1373   0.836   2.059   6.424 -2.1134  0.2639  0.4684
   11SAPS   C25 1374   0.683   2.130   6.280  0.4028  0.4580  0.3027
   11SAPS   H5R 1375   0.680   2.114   6.171  0.2064  2.6054 -0.0424
   11SAPS   C26 1376   0.569   2.131   6.348  0.6401 -0.1490  0.4047
   11SAPS   H6R 1377   0.475   2.118   6.291 -0.6468  0.6721  2.2543
   11SAPS   C27 1378   0.555   2.135   6.500 -0.5034  0.9830  0.3438
   11SAPS   H7R 1379   0.657   2.149   6.543 -1.0046  1.5187  1.3875
   11SAPS   H7S 1380   0.506   2.039   6.527 -1.2219  1.0782 -0.5678
   11SAPS   C28 1381   0.456   2.240   6.545  0.5472 -0.2032  0.1157
   11SAPS   H8R 1382   0.396   2.292   6.468  0.9136  0.6918  0.4260
   11SAPS   C29 1383   0.429   2.281   6.666  0.1851  0.3992 -0.0900
   11SAPS   H9R 1384   0.350   2.356   6.686 -1.3839 -1.7210  2.2629
   11SAPS  C210 1385   0.487   2.209   6.792  0.0330 -0.4779  0.1797
   11SAPS  H10R 1386   0.579   2.152   6.769 -0.0839 -0.4221 -0.4380
   11SAPS  H10S 1387   0.414   2.132   6.826 -1.0000 -0.0929 -1.0658
   11SAPS  C211 1388   0.535   2.299   6.898 -0.2974  0.7717 -0.4184
   11SAPS  H11R 1389   0.621   2.362   6.869 -1.2814  1.3552 -2.1932
   11SAPS  C212 1390   0.493   2.298   7.029 -0.1313 -1.2757 -0.4428
   11SAPS  H12R 1391   0.544   2.371   7.093 -2.7584  0.6771 -0.4471
   11SAPS  C213 1392   0.380   2.209   7.083  0.1105  0.0036 -0.2192
   11SAPS  H13R 1393   0.412   2.111   7.127 -0.7408  0.7867  2.3354
   11SAPS  H13S 1394   0.315   2.174   7.000 -0.2387 -2.1537  0.8748
   11SAPS  C214 1395   0.298   2.278   7.193  0.3122 -0.0027  0.3671
   11SAPS  H14R 1396   0.194   2.295   7.162  0.2982  0.1893  0.5200
   11SAPS  C215 1397   0.333   2.294   7.328  0.7442  0.2904  0.6398
   11SAPS  H15R 1398   0.258   2.355   7.380 -1.1361 -0.7890 -0.6726
   11SAPS  C216 1399   0.463   2.265   7.385 -0.4398  0.2060 -0.0820
   11SAPS  H16R 1400   0.537   2.312   7.317  0.2801 -1.5973 -0.6007
   11SAPS  H16S 1401   0.490   2.157   7.387  1.2549  0.3558 -4.2282
   11SAPS  C217 1402   0.488   2.334   7.524  0.3416  0.3113 -0.2531
   11SAPS  H17R 1403   0.477   2.444   7.514 -1.1301  0.3067  0.8794
   11SAPS  H17S 1404   0.594   2.318   7.551 -0.5114 -1.7559  2.3399
   11SAPS  C218 1405   0.398   2.287   7.635  0.1210  0.2513 -0.3810
   11SAPS  H18R 1406   0.417   2.178   7.644  1.5998  0.6151  1.4186
   11SAPS  H18S 1407   0.291   2.300   7.609  0.5553  0.9688 -1.9669
   11SAPS  C219 1408   0.426   2.351   7.770  0.1265 -0.2480  0.6126
   11SAPS  H19R 1409   0.346   2.318   7.840  1.5543 -0.9584  1.9748
   11SAPS  H19S 1410   0.414   2.460   7.753 -2.8033 -0.8421 -1.9718
   11SAPS  C220 1411   0.547   2.297   7.843 -0.4082  0.2313  0.3379
   11SAPS  H20R 1412   0.555   2.186   7.837  2.5693  0.2679  1.6778
   11SAPS  H20S 1413   0.548   2.331   7.949 -2.5654  1.3825  0.0288
   11SAPS  H20T 1414   0.635   2.332   7.785  0.1031 -1.9476 -0.3038
   11SAPS   C33 1415   1.402   2.394   6.554 -0.3555 -0.3831 -0.2310
   11SAPS   H3X 1416   1.434   2.315   6.624  1.5020  0.5726  0.0490
   11SAPS   H3Y 1417   1.293   2.375   6.547 -0.5541  0.8500 -0.8701
   11SAPS   C34 1418   1.422   2.530   6.631  0.4901  0.0660  0.7613
   11SAPS   H4X 1419   1.403   2.606   6.552 -1.6242  0.2367  1.3679
   11SAPS   H4Y 1420   1.527   2.531   6.669 -0.0970  0.2638  2.4758
   11SAPS   C35 1421   1.329   2.554   6.754 -0.1431  0.1652  0.2235
   11SAPS   H5X 1422   1.222   2.578   6.734 -0.3150  0.7587  1.7154
   11SAPS   H5Y 1423   1.369   2.642   6.810 -0.2767 -0.6706  1.6740
   11SAPS   C36 1424   1.336   2.451   6.864 -0.0276  0.2056  0.1122
   11SAPS   H6X 1425   1.431   2.393   6.870 -0.7025 -1.3800 -2.6466
   11SAPS   H6Y 1426   1.262   2.371   6.839 -0.5547  0.9925 -0.8792
   11SAPS   C37 1427   1.320   2.509   7.000 -0.2485 -0.3372 -0.3441
   11SAPS   H7X 1428   1.216   2.548   7.011  0.0246  0.3987 -0.3059
   11SAPS   H7Y 1429   1.406   2.578   7.005 -0.9221  0.4497  1.1511
   11SAPS   C38 1430   1.344   2.405   7.114  0.0751 -0.0622  0.3756
   11SAPS   H8X 1431   1.444   2.362   7.092  1.0213  1.5962  1.2340
   11SAPS   H8Y 1432   1.265   2.330   7.094  0.5224 -0.5153  0.2830
   11SAPS   C39 1433   1.348   2.464   7.259  0.0185  0.3195  0.9031
   11SAPS   H9X 1434   1.254   2.523   7.268 -0.1253 -0.2481  4.2073
   11SAPS   H9Y 1435   1.428   2.542   7.264  0.2570  0.0328  1.5980
   11SAPS  C310 1436   1.362   2.359   7.368  0.5564 -0.1516  1.5933
   11SAPS  H10X 1437   1.458   2.308   7.344  0.5326  1.2865 -2.3037
   11SAPS  H10Y 1438   1.278   2.287   7.377  0.6088 -0.4900 -0.1996
   11SAPS  C311 1439   1.371   2.403   7.508 -0.3189 -0.0317  1.1383
   11SAPS  H11X 1440   1.346   2.329   7.586  0.7756 -0.5555  1.0228
   11SAPS  H11Y 1441   1.291   2.479   7.522  1.6385  2.3817  0.0525
   11SAPS  C312 1442   1.501   2.478   7.543 -0.0509 -0.3133  0.0794
   11SAPS  H12X 1443   1.520   2.568   7.481  1.8158 -0.1633  0.7964
   11SAPS  H12Y 1444   1.573   2.396   7.522 -1.5459 -1.3060 -1.4243
   11SAPS  C313 1445   1.501   2.528   7.687 -0.2743 -0.5226 -0.5389
   11SAPS  H13X 1446   1.480   2.434   7.743 -1.4551  1.3596  2.3643
   11SAPS  H13Y 1447   1.422   2.606   7.690  0.7861  0.7308 -2.6830
   11SAPS  C314 1448   1.643   2.582   7.720  0.8633  0.0083 -0.1285
   11SAPS  H14X 1449   1.660   2.666   7.649  1.0363  1.2062  1.3074
   11SAPS  H14Y 1450   1.725   2.509   7.700 -0.0769 -0.9687 -0.5191
   11SAPS  C315 1451   1.650   2.647   7.856 -1.2499  0.4158  0.0739
   11SAPS  H15X 1452   1.568   2.720   7.865 -0.0632  1.9744 -1.1437
   11SAPS  H15Y 1453   1.741   2.710   7.859 -1.3980  0.6084  0.6349
   11SAPS  C316 1454   1.647   2.538   7.965 -0.8319  0.7065  0.2992
   11SAPS  H16X 1455   1.719   2.455   7.946 -1.0186  0.0111  2.3494
   11SAPS  H16Y 1456   1.551   2.482   7.967  0.1443 -1.2301 -2.1907
   11SAPS  C317 1457   1.674   2.601   8.108  0.2443 -0.3026 -0.3286
   11SAPS  H17X 1458   1.630   2.535   8.185 -0.0534 -0.0658 -0.2945
   11SAPS  H17Y 1459   1.612   2.693   8.114  2.8207  1.7200 -2.3496
   11SAPS  C318 1460   1.822   2.638   8.128  0.3349  0.9529  0.3382
   11SAPS  H18X 1461   1.854   2.710   8.049  0.4092 -0.6010 -1.1087
   11SAPS  H18Y 1462   1.880   2.545   8.111 -0.3903  0.4361  0.6499
   11SAPS  H18Z 1463   1.853   2.663   8.232 -0.7956 -0.3815  1.0231
   12SAPS     N 1464   2.405   4.284   6.070 -0.5682 -0.5569 -0.3419
   12SAPS   HN1 1465   2.315   4.232   6.067 -1.6611  1.3114 -1.1586
   12SAPS   HN2 1466   2.466   4.242   6.144  0.1916  0.4566 -0.3710
   12SAPS   HN3 1467   2.382   4.380   6.102 -2.1824 -0.3999 -1.8390
   12SAPS   C12 1468   2.481   4.284   5.946 -0.7397  1.3064  0.0904
   12SAPS  H12A 1469   2.410   4.285   5.865 -0.1850 -0.0732 -0.4374
   12SAPS   C13 1470   2.568   4.412   5.928 -0.2271 -0.2279  0.3462
   12SAPS  O13A 1471   2.540   4.505   6.001 -0.0029 -0.8865 -0.2390
   12SAPS  O13B 1472   2.636   4.432   5.822 -0.4586 -0.2253  0.1244
   12SAPS   C11 1473   2.566   4.148   5.939  0.0856 -0.4238 -0.2739
   12SAPS  H11A 1474   2.644   4.165   6.016 -1.8983  1.2874  1.4739
   12SAPS  H11B 1475   2.616   4.137   5.840 -1.2131 -0.3482 -0.9748
   12SAPS     P 1476   2.509   3.941   6.099  0.6433  0.0105  0.5627
   12SAPS   O13 1477   2.414   3.829   6.092  0.3379 -0.2661  0.2766
   12SAPS   O14 1478   2.652   3.914   6.119 -0.5120 -0.0414 -0.3219
   12SAPS   O12 1479   2.494   4.032   5.972 -0.0740 -0.5473  0.7504
   12SAPS   O11 1480   2.470   4.040   6.216  0.7843  0.9975  0.0417
   12SAPS    C1 1481   2.346   4.026   6.286 -0.2218 -0.8358  0.0634
   12SAPS    HA 1482   2.264   4.074   6.228  0.0987 -1.5369 -0.9868
   12SAPS    HB 1483   2.320   3.918   6.292  0.5523 -1.1493 -1.5965
   12SAPS    C2 1484   2.352   4.109   6.423 -0.8966  0.2713  0.6320
   12SAPS    HS 1485   2.388   4.212   6.405  0.5221 -0.0347  1.5876
   12SAPS   O21 1486   2.428   4.032   6.521 -0.1247  0.2798  0.1886
   12SAPS   C21 1487   2.542   4.088   6.562 -0.4073 -0.5131  0.5911
   12SAPS   O22 1488   2.576   4.202   6.538  0.7688 -0.3490  0.1668
   12SAPS   C22 1489   2.616   3.993   6.656 -0.3729 -0.0197 -0.4096
   12SAPS   H2R 1490   2.601   3.889   6.619 -1.0646 -1.1032  2.6235
   12SAPS   H2S 1491   2.723   4.020   6.662 -0.0772 -1.3461  1.0986
   12SAPS    C3 1492   2.210   4.130   6.481  0.0632  0.5741  0.3192
   12SAPS    HX 1493   2.158   4.033   6.461 -0.4221  1.1556 -1.5077
   12SAPS    HY 1494   2.150   4.196   6.414 -0.2752 -0.9128 -0.9246
   12SAPS   O31 1495   2.216   4.173   6.618 -0.0431  0.0923 -0.0321
   12SAPS   C31 1496   2.114   4.133   6.695  0.0686 -0.1219 -0.2449
   12SAPS   O32 1497   2.022   4.067   6.651 -0.3388  0.1881  0.7969
   12SAPS   C32 1498   2.131   4.170   6.841  0.7107 -0.5230  0.4719
   12SAPS   H2X 1499   2.228   4.224   6.845  1.2628 -1.2878 -1.4892
   12SAPS   H2Y 1500   2.150   4.072   6.890 -1.9892 -0.3712  1.9885
   12SAPS   C23 1501   2.560   4.004   6.793  0.4581 -0.1834 -1.3376
   12SAPS   H3R 1502   2.449   3.994   6.800  0.4188  0.7701 -0.2837
   12SAPS   H3S 1503   2.587   4.106   6.827 -1.1424  0.7374 -2.6964
   12SAPS   C24 1504   2.623   3.907   6.904  0.4272  0.7165  0.8571
   12SAPS   H4R 1505   2.584   3.926   7.007  0.2176  0.9869  0.7312
   12SAPS   H4S 1506   2.733   3.924   6.904  0.5903 -0.2517 -0.5835
   12SAPS   C25 1507   2.610   3.762   6.867  0.2975 -0.3031  0.1405
   12SAPS   H5R 1508   2.673   3.724   6.786 -0.7317  0.5911 -1.1141
   12SAPS   C26 1509   2.516   3.680   6.906 -0.2538  0.6918 -0.2416
   12SAPS   H6R 1510   2.500   3.588   6.847 -0.7913  1.4468 -1.3091
   12SAPS   C27 1511   2.404   3.714   6.999  0.5989  0.4250  1.0085
   12SAPS   H7R 1512   2.322   3.746   6.931  1.3253  0.2252  0.0209
   12SAPS   H7S 1513   2.424   3.798   7.070  3.1552 -0.3354  1.2984
   12SAPS   C28 1514   2.355   3.601   7.084  0.2799  0.3572 -0.3266
   12SAPS   H8R 1515   2.370   3.502   7.037 -2.2412  0.0379 -0.6015
   12SAPS   C29 1516   2.292   3.605   7.205 -0.2243  0.1684  0.1942
   12SAPS   H9R 1517   2.260   3.516   7.261 -0.1542  0.6832  1.0754
   12SAPS  C210 1518   2.262   3.720   7.292  0.6111  0.8031  0.5861
   12SAPS  H10R 1519   2.298   3.814   7.246 -1.3649  1.1990 -0.2191
   12SAPS  H10S 1520   2.318   3.719   7.388 -0.3684  0.6667  1.1763
   12SAPS  C211 1521   2.109   3.715   7.307 -0.7526 -0.6308 -0.4616
   12SAPS  H11R 1522   2.062   3.801   7.257 -0.7718  0.0041  0.6252
   12SAPS  C212 1523   2.035   3.643   7.397 -0.3972  0.4167 -0.6493
   12SAPS  H12R 1524   1.926   3.659   7.401 -1.0693 -3.4002  0.0717
   12SAPS  C213 1525   2.096   3.536   7.490 -0.2870 -0.1625  0.2191
   12SAPS  H13R 1526   2.204   3.517   7.475 -0.0102  2.6461 -2.5392
   12SAPS  H13S 1527   2.041   3.444   7.461  0.9214  0.0329 -3.0748
   12SAPS  C214 1528   2.075   3.596   7.632 -0.4065  0.1756 -1.0948
   12SAPS  H14R 1529   1.974   3.633   7.653 -0.5179 -1.3464  1.3973
   12SAPS  C215 1530   2.162   3.595   7.734 -0.0524  0.1216 -0.3640
   12SAPS  H15R 1531   2.128   3.637   7.830 -2.2176 -0.4000 -0.8510
   12SAPS  C216 1532   2.308   3.540   7.734 -0.0336 -0.0732  0.3784
   12SAPS  H16R 1533   2.384   3.620   7.724  0.5080 -0.5981  0.2151
   12SAPS  H16S 1534   2.321   3.470   7.648  0.9515 -0.6265  0.9595
   12SAPS  C217 1535   2.327   3.459   7.865 -0.3699  0.0954  0.6446
   12SAPS  H17R 1536   2.401   3.377   7.855 -0.7127 -0.0864 -0.6316
   12SAPS  H17S 1537   2.232   3.415   7.903 -1.0445  1.5096  0.6559
   12SAPS  C218 1538   2.363   3.568   7.977 -0.1328  0.6279 -0.1040
   12SAPS  H18R 1539   2.272   3.626   8.004 -1.6850 -1.1528 -1.2958
   12SAPS  H18S 1540   2.444   3.627   7.930  0.4150 -0.2601 -0.2960
   12SAPS  C219 1541   2.411   3.490   8.105  0.0102 -0.3088  0.1232
   12SAPS  H19R 1542   2.473   3.564   8.161 -0.5498 -0.2973  0.7392
   12SAPS  H19S 1543   2.473   3.401   8.083 -0.6788 -0.5843 -0.7404
   12SAPS  C220 1544   2.287   3.435   8.180 -0.0306 -0.4623 -0.5038
   12SAPS  H20R 1545   2.268   3.509   8.261 -1.3819  1.0480 -2.1365
   12SAPS  H20S 1546   2.306   3.332   8.219  0.6033 -0.3054 -0.3956
   12SAPS  H20T 1547   2.195   3.441   8.118  0.6694 -1.5083 -1.6822
   12SAPS   C33 1548   2.013   4.248   6.909 -0.9113  0.0767  0.4872
   12SAPS   H3X 1549   1.916   4.196   6.893 -1.0128  0.5027 -0.3207
   12SAPS   H3Y 1550   1.991   4.342   6.855  1.3303  1.2155  1.4261
   12SAPS   C34 1551   2.037   4.280   7.061  0.7075 -0.0069  0.0638
   12SAPS   H4X 1552   1.945   4.329   7.098 -0.8940 -3.2081  0.6804
   12SAPS   H4Y 1553   2.122   4.351   7.060  0.0898  0.7560 -0.8308
   12SAPS   C35 1554   2.068   4.156   7.149  0.8620  0.4168  0.6236
   12SAPS   H5X 1555   2.158   4.109   7.105  0.4399  0.0188  0.1631
   12SAPS   H5Y 1556   1.994   4.073   7.154  1.1106  0.2542  3.4360
   12SAPS   C36 1557   2.108   4.197   7.289  0.1025 -0.2745  0.0151
   12SAPS   H6X 1558   2.027   4.259   7.334 -1.6422 -3.2122  1.1679
   12SAPS   H6Y 1559   2.186   4.272   7.263  0.5438 -0.7541 -0.0502
   12SAPS   C37 1560   2.157   4.094   7.384 -0.5071  0.6048 -0.4079
   12SAPS   H7X 1561   2.247   4.040   7.347 -0.7551  0.3394 -0.6228
   12SAPS   H7Y 1562   2.076   4.019   7.388  0.8096 -1.0450 -2.5203
   12SAPS   C38 1563   2.182   4.147   7.525  0.0051  0.0603 -0.0638
   12SAPS   H8X 1564   2.092   4.174   7.584  0.1170  1.0562 -0.3428
   12SAPS   H8Y 1565   2.251   4.233   7.517 -0.7013  0.4604 -2.6473
   12SAPS   C39 1566   2.231   4.027   7.615  0.1102  0.3096 -0.1814
   12SAPS   H9X 1567   2.335   4.024   7.576  1.0572 -0.7756  2.2350
   12SAPS   H9Y 1568   2.168   3.938   7.593 -1.3161  1.3384 -0.3858
   12SAPS  C310 1569   2.251   4.056   7.762  0.4238 -0.3513  0.2860
   12SAPS  H10X 1570   2.146   4.070   7.798  0.9193  1.4376  1.1457
   12SAPS  H10Y 1571   2.307   4.151   7.770 -1.5095  0.9563 -0.7084
   12SAPS  C311 1572   2.329   3.952   7.846  0.8803 -0.5116 -0.4104
   12SAPS  H11X 1573   2.422   3.930   7.790 -0.1766 -1.6019 -1.7921
   12SAPS  H11Y 1574   2.282   3.852   7.848 -0.0646 -0.0912 -1.0273
   12SAPS  C312 1575   2.352   3.998   7.989  0.1743 -0.4048  0.0761
   12SAPS  H12X 1576   2.255   4.029   8.032  0.3718  0.2115  0.0891
   12SAPS  H12Y 1577   2.422   4.085   7.990  0.1166 -0.3565  1.1342
   12SAPS  C313 1578   2.411   3.896   8.087 -1.2939 -0.1150 -0.7037
   12SAPS  H13X 1579   2.503   3.857   8.038 -0.8668 -0.5477  0.4206
   12SAPS  H13Y 1580   2.341   3.812   8.103 -1.7429  0.1154 -1.4069
   12SAPS  C314 1581   2.449   3.963   8.217  0.4789 -0.4122 -0.0155
   12SAPS  H14X 1582   2.359   4.003   8.268  0.4771 -0.3829 -0.0412
   12SAPS  H14Y 1583   2.517   4.045   8.187  0.0905  0.5789  1.7283
   12SAPS  C315 1584   2.534   3.866   8.306  0.3666  0.5752 -0.3081
   12SAPS  H15X 1585   2.583   3.915   8.393 -1.7972 -0.2642  1.4952
   12SAPS  H15Y 1586   2.616   3.831   8.240 -0.6047  0.0120 -1.2373
   12SAPS  C316 1587   2.443   3.762   8.369  0.3249  0.2521 -0.0578
   12SAPS  H16X 1588   2.390   3.692   8.301  0.3394  1.6869 -1.5986
   12SAPS  H16Y 1589   2.362   3.825   8.412 -1.0993  0.7505 -3.2371
   12SAPS  C317 1590   2.503   3.685   8.485  0.2186  0.2323 -0.8666
   12SAPS  H17X 1591   2.425   3.625   8.535  0.2677  0.0409 -1.0168
   12SAPS  H17Y 1592   2.536   3.764   8.555 -1.9895 -0.0035  0.5376
   12SAPS  C318 1593   2.626   3.597   8.460  0.1701  0.3311 -0.6301
   12SAPS  H18X 1594   2.675   3.549   8.549  1.2229  1.4825 -0.5624
   12SAPS  H18Y 1595   2.696   3.650   8.392  1.9292 -0.1561  0.7270
   12SAPS  H18Z 1596   2.591   3.515   8.393 -0.1904  1.3538 -1.7112
   13SAPS     N 1597   5.967   5.878   6.169 -0.2813 -0.1624  0.0984
   13SAPS   HN1 1598   6.001   5.907   6.263 -0.5925  0.0309  0.1502
   13SAPS   HN2 1599   5.946   5.964   6.115  1.6341 -0.3957 -1.1340
   13SAPS   HN3 1600   5.883   5.821   6.191  0.4457 -0.6730  1.7459
   13SAPS   C12 1601   6.081   5.811   6.099  0.0989  0.7721  0.0265
   13SAPS  H12A 1602   6.137   5.748   6.166 -0.7432 -2.4989 -2.0968
   13SAPS   C13 1603   6.044   5.726   5.983  0.4774  0.4576 -0.2464
   13SAPS  O13A 1604   5.921   5.710   5.951 -0.7230  0.3650 -0.6085
   13SAPS  O13B 1605   6.133   5.680   5.907 -0.4068  0.8053 -0.4875
   13SAPS   C11 1606   6.177   5.927   6.053  0.2879  0.0942 -0.0630
   13SAPS  H11A 1607   6.140   5.983   5.964  0.9550 -1.0325 -1.0828
   13SAPS  H11B 1608   6.261   5.863   6.018  0.4879  0.1767  0.2605
   13SAPS     P 1609   6.364   6.068   6.187 -0.1682  0.2281  0.1037
   13SAPS   O13 1610   6.433   6.094   6.061  0.0277  0.3603 -0.2490
   13SAPS   O14 1611   6.349   6.183   6.278 -1.2186 -0.2204 -0.6527
   13SAPS   O12 1612   6.220   6.012   6.160 -0.0681 -0.3466 -1.2521
   13SAPS   O11 1613   6.432   5.953   6.264  0.0043  0.2520 -0.0241
   13SAPS    C1 1614   6.356   5.850   6.343  0.4092 -0.1533 -0.0872
   13SAPS    HA 1615   6.255   5.889   6.370  0.7398  1.2856 -0.8363
   13SAPS    HB 1616   6.332   5.765   6.276  1.5041 -0.3376 -0.2610
   13SAPS    C2 1617   6.432   5.807   6.470 -0.5861 -0.3480  0.0336
   13SAPS    HS 1618   6.363   5.748   6.534  1.3905 -1.5321  1.1669
   13SAPS   O21 1619   6.485   5.920   6.529 -0.1858  0.2851 -0.2923
   13SAPS   C21 1620   6.400   5.996   6.600 -0.2540 -0.2061  0.6113
   13SAPS   O22 1621   6.287   5.964   6.624 -0.8192  0.3224 -0.2663
   13SAPS   C22 1622   6.468   6.126   6.644  0.1720 -0.6461  0.0738
   13SAPS   H2R 1623   6.568   6.106   6.687 -0.1742  1.7024  2.2519
   13SAPS   H2S 1624   6.496   6.191   6.557  1.5229 -1.6000 -0.2395
   13SAPS    C3 1625   6.555   5.712   6.439  0.0109 -0.5999  0.6037
   13SAPS    HX 1626   6.615   5.762   6.360 -3.7398  1.6452 -1.1206
   13SAPS    HY 1627   6.522   5.624   6.380 -0.9412  0.1740 -0.0645
   13SAPS   O31 1628   6.637   5.693   6.558  0.0863 -0.1913  0.4487
   13SAPS   C31 1629   6.732   5.781   6.585 -0.0754  0.0584 -0.0146
   13SAPS   O32 1630   6.765   5.877   6.515 -0.5775  0.2390 -0.1511
   13SAPS   C32 1631   6.780   5.750   6.729  0.3463 -0.0800 -0.1277
   13SAPS   H2X 1632   6.700   5.705   6.791  0.3561 -0.4743 -0.3990
   13SAPS   H2Y 1633   6.797   5.850   6.776 -0.5416  1.0368 -2.0601
   13SAPS   C23 1634   6.397   6.219   6.745 -0.0544  0.5099  0.2421
   13SAPS   H3R 1635   6.398   6.164   6.842 -0.8743 -0.4346 -0.2659
   13SAPS   H3S 1636   6.290   6.222   6.713 -0.6295 -0.1775  1.9613
   13SAPS   C24 1637   6.452   6.363   6.767  0.4819 -0.2607 -0.5901
   13SAPS   H4R 1638   6.382   6.417   6.835  0.2187 -0.4619 -0.7011
   13SAPS   H4S 1639   6.442   6.411   6.668  0.6747 -0.0231 -0.4978
   13SAPS   C25 1640   6.590   6.378   6.815  0.2465  0.0535 -0.1865
   13SAPS   H5R 1641   6.663   6.395   6.735 -0.2012  0.6684 -0.4765
   13SAPS   C26 1642   6.628   6.385   6.944 -0.2510 -0.1994 -0.0489
   13SAPS   H6R 1643   6.735   6.375   6.967 -0.1803  2.8781  1.4225
   13SAPS   C27 1644   6.535   6.386   7.060 -0.6734  0.0759 -0.7105
   13SAPS   H7R 1645   6.444   6.440   7.028 -0.1225  1.1962 -0.4422
   13SAPS   H7S 1646   6.577   6.457   7.134  2.3447 -1.1935 -1.0512
   13SAPS   C28 1647   6.497   6.255   7.127  0.1512  0.4423 -0.3393
   13SAPS   H8R 1648   6.409   6.206   7.082  1.4154 -0.3179 -2.0957
   13SAPS   C29 1649   6.564   6.198   7.234 -0.6080  0.2694  0.0235
   13SAPS   H9R 1650   6.542   6.100   7.278  0.8510  0.2349  0.7168
   13SAPS  C210 1651   6.685   6.273   7.293 -0.0620 -0.2417  0.1123
   13SAPS  H10R 1652   6.741   6.330   7.216 -1.8386 -1.0488 -1.8566
   13SAPS  H10S 1653   6.761   6.193   7.307 -1.1466 -1.0362  1.8992
   13SAPS  C211 1654   6.668   6.358   7.421 -0.2309 -0.1262  0.2300
   13SAPS  H11R 1655   6.655   6.464   7.397  0.3171 -0.0106  0.4269
   13SAPS  C212 1656   6.689   6.317   7.544  0.0863  0.7949 -0.2963
   13SAPS  H12R 1657   6.673   6.391   7.624 -0.0234  0.9374 -0.4517
   13SAPS  C213 1658   6.710   6.175   7.598 -0.7852  0.4199  0.3746
   13SAPS  H13R 1659   6.809   6.161   7.647 -0.4668  2.4609  0.3887
   13SAPS  H13S 1660   6.716   6.097   7.519 -1.8209  1.2354 -0.5306
   13SAPS  C214 1661   6.609   6.120   7.699 -0.6257 -0.1532  0.5783
   13SAPS  H14R 1662   6.531   6.050   7.664 -2.1583  1.1761  1.2327
   13SAPS  C215 1663   6.617   6.147   7.831  0.4925  0.2607  0.2650
   13SAPS  H15R 1664   6.533   6.113   7.893  0.2940 -1.4178 -0.8572
   13SAPS  C216 1665   6.710   6.238   7.896  0.1715 -0.0618  0.1128
   13SAPS  H16R 1666   6.662   6.307   7.969 -0.5834 -1.7207  1.2367
   13SAPS  H16S 1667   6.752   6.319   7.832  0.2468  0.2875  0.5962
   13SAPS  C217 1668   6.825   6.169   7.973  0.2677  0.0199  0.0264
   13SAPS  H17R 1669   6.901   6.240   8.013  1.8809 -2.6130  2.0200
   13SAPS  H17S 1670   6.882   6.112   7.897 -0.0091  1.4103 -1.2574
   13SAPS  C218 1671   6.777   6.083   8.092  0.3484 -0.2436  0.6104
   13SAPS  H18R 1672   6.692   6.023   8.053 -0.3759  1.5754 -0.7249
   13SAPS  H18S 1673   6.740   6.156   8.168 -0.3350  0.2489 -0.1836
   13SAPS  C219 1674   6.873   5.979   8.143  0.5518  0.4340  0.5817
   13SAPS  H19R 1675   6.918   5.936   8.051 -1.3175  0.0422 -0.1921
   13SAPS  H19S 1676   6.829   5.897   8.204 -0.2617 -0.6163 -1.3336
   13SAPS  C220 1677   6.980   6.037   8.231 -0.3276 -0.8794  0.3903
   13SAPS  H20R 1678   7.050   6.100   8.173  0.6292 -0.6554  1.7462
   13SAPS  H20S 1679   7.046   5.963   8.281  0.3589 -0.5841 -0.0750
   13SAPS  H20T 1680   6.934   6.104   8.308 -0.0008 -0.7767  0.4964
   13SAPS   C33 1681   6.900   5.658   6.745 -0.5794 -0.1999  0.1578
   13SAPS   H3X 1682   6.994   5.706   6.711 -0.5466 -0.5290 -0.2361
   13SAPS   H3Y 1683   6.900   5.562   6.689  0.3767  0.7167 -1.4889
   13SAPS   C34 1684   6.912   5.607   6.888  0.1122 -0.8309  0.0094
   13SAPS   H4X 1685   6.829   5.540   6.919  0.0438 -1.4039 -1.3171
   13SAPS   H4Y 1686   6.923   5.679   6.971 -0.4905  1.8347 -2.0927
   13SAPS   C35 1687   7.034   5.524   6.899 -0.1518 -0.6444  0.7327
   13SAPS   H5X 1688   7.125   5.586   6.882  0.0303 -1.1120 -0.0676
   13SAPS   H5Y 1689   7.019   5.452   6.816 -0.3169 -1.2390  1.2747
   13SAPS   C36 1690   7.041   5.457   7.032 -0.5880  0.6940 -0.7139
   13SAPS   H6X 1691   6.973   5.368   7.036  0.4281 -0.3166 -3.4792
   13SAPS   H6Y 1692   7.016   5.534   7.108 -2.3868 -0.5912  0.0783
   13SAPS   C37 1693   7.192   5.407   7.049 -0.2715  0.1580  0.5205
   13SAPS   H7X 1694   7.258   5.479   6.996 -0.1295 -1.1532 -1.1687
   13SAPS   H7Y 1695   7.205   5.311   6.995 -1.5495 -0.0136  0.4813
   13SAPS   C38 1696   7.236   5.386   7.200 -0.4613 -0.0939  0.2316
   13SAPS   H8X 1697   7.235   5.482   7.257 -0.0902  1.1552 -1.7686
   13SAPS   H8Y 1698   7.337   5.340   7.208 -0.8944 -1.0872  0.0157
   13SAPS   C39 1699   7.144   5.288   7.269 -0.1196 -0.2023  0.3704
   13SAPS   H9X 1700   7.147   5.184   7.231  0.2350  0.3313 -1.1207
   13SAPS   H9Y 1701   7.040   5.323   7.256  0.1762  0.0036 -1.8971
   13SAPS  C310 1702   7.158   5.281   7.422 -0.5239 -0.0585  0.3109
   13SAPS  H10X 1703   7.189   5.382   7.457 -0.6473 -0.5210  1.8408
   13SAPS  H10Y 1704   7.252   5.228   7.448  0.1647  1.1059  0.2227
   13SAPS  C311 1705   7.049   5.216   7.505 -0.2519 -0.9297 -0.4124
   13SAPS  H11X 1706   7.062   5.107   7.488 -1.1768 -0.8687 -1.6340
   13SAPS  H11Y 1707   6.955   5.249   7.458  1.3851  0.8002 -2.7217
   13SAPS  C312 1708   7.036   5.269   7.649  0.3867 -0.5394  0.0119
   13SAPS  H12X 1709   6.938   5.251   7.698 -0.4649  1.3417 -0.8854
   13SAPS  H12Y 1710   7.033   5.380   7.645  0.8132 -0.4289  1.8143
   13SAPS  C313 1711   7.150   5.222   7.736 -0.1392  0.6669  0.3197
   13SAPS  H13X 1712   7.217   5.310   7.750  0.3904  0.1874  0.9024
   13SAPS  H13Y 1713   7.223   5.146   7.700 -0.5628  0.5349 -0.2785
   13SAPS  C314 1714   7.096   5.172   7.876  0.7320  0.1075 -0.2502
   13SAPS  H14X 1715   7.031   5.082   7.868  0.9867 -0.5103  3.0026
   13SAPS  H14Y 1716   7.033   5.252   7.920 -1.0715 -0.6192 -1.4157
   13SAPS  C315 1717   7.213   5.143   7.977  0.1872  0.6462 -0.4570
   13SAPS  H15X 1718   7.255   5.246   7.975  0.5792  0.5242 -3.2522
   13SAPS  H15Y 1719   7.287   5.073   7.933 -0.6008 -1.7512  1.8057
   13SAPS  C316 1720   7.162   5.081   8.107 -0.4500  0.1673  0.7997
   13SAPS  H16X 1721   7.130   4.976   8.090  0.9408 -0.2962  0.8526
   13SAPS  H16Y 1722   7.081   5.151   8.138 -0.9190 -0.1594  0.3121
   13SAPS  C317 1723   7.277   5.084   8.208 -0.3903 -0.7463 -0.0558
   13SAPS  H17X 1724   7.319   5.186   8.201  0.3494 -0.9164  1.3965
   13SAPS  H17Y 1725   7.364   5.030   8.165  0.7419  0.8586  0.1681
   13SAPS  C318 1726   7.240   5.050   8.351 -0.0252 -0.4977 -0.3789
   13SAPS  H18X 1727   7.308   5.041   8.438 -1.3348 -2.5662  0.5008
   13SAPS  H18Y 1728   7.182   4.956   8.351  0.4301 -0.8517  2.2102
   13SAPS  H18Z 1729   7.170   5.127   8.390 -2.3965 -2.4920 -0.4428
   14SAPS     N 1730   1.377   3.811   6.170 -0.5919 -0.1705  0.2230
   14SAPS   HN1 1731   1.365   3.912   6.191  1.3986  0.5917 -1.9011
   14SAPS   HN2 1732   1.396   3.763   6.261  3.4976  1.2185  0.3013
   14SAPS   HN3 1733   1.471   3.806   6.126  0.1291 -0.8332  1.7792
   14SAPS   C12 1734   1.264   3.758   6.084  0.0850 -0.0134  0.0761
   14SAPS  H12A 1735   1.171   3.801   6.119 -0.5331 -1.3352  0.1326
   14SAPS   C13 1736   1.274   3.805   5.938 -0.1708  1.1494  0.5754
   14SAPS  O13A 1737   1.374   3.858   5.884  0.1225 -0.5111 -0.1404
   14SAPS  O13B 1738   1.162   3.785   5.882  0.2088 -0.0220 -0.3550
   14SAPS   C11 1739   1.245   3.606   6.097 -0.2270 -0.0062  0.2909
   14SAPS  H11A 1740   1.164   3.587   6.023  1.1426  0.4006 -1.4001
   14SAPS  H11B 1741   1.220   3.573   6.200  2.0530 -2.2575  0.2123
   14SAPS     P 1742   1.364   3.383   6.018 -0.1115  0.1274  0.2245
   14SAPS   O13 1743   1.285   3.369   5.894 -0.4268  0.3957  0.6147
   14SAPS   O14 1744   1.503   3.333   6.015  1.4451  0.3033  0.0461
   14SAPS   O12 1745   1.365   3.537   6.055  0.5296  0.3074  0.3421
   14SAPS   O11 1746   1.289   3.323   6.141  0.1556 -0.0546 -0.8473
   14SAPS    C1 1747   1.345   3.325   6.274  0.6355 -0.3519 -0.7060
   14SAPS    HA 1748   1.436   3.386   6.284  0.5545 -0.3646  0.1420
   14SAPS    HB 1749   1.270   3.374   6.340  0.2699 -0.4831 -1.0142
   14SAPS    C2 1750   1.366   3.187   6.332  0.2581 -0.0315  0.2622
   14SAPS    HS 1751   1.437   3.137   6.262 -2.1115 -0.8527 -1.6960
   14SAPS   O21 1752   1.235   3.118   6.338  0.2885 -0.2738 -0.0134
   14SAPS   C21 1753   1.241   2.988   6.313  0.9430 -0.0341 -0.5982
   14SAPS   O22 1754   1.341   2.930   6.271 -0.1076  0.3538 -0.3255
   14SAPS   C22 1755   1.097   2.933   6.327  0.2857  1.0211 -0.2276
   14SAPS   H2R 1756   1.023   3.015   6.340 -1.4391 -0.1933 -1.7840
   14SAPS   H2S 1757   1.065   2.880   6.235  0.4098  1.0064 -0.2628
   14SAPS    C3 1758   1.421   3.186   6.475  0.8940 -0.4584  0.2046
   14SAPS    HX 1759   1.355   3.256   6.532  0.4853 -0.3371 -0.4060
   14SAPS    HY 1760   1.525   3.219   6.455  0.4498  0.8503 -0.0328
   14SAPS   O31 1761   1.418   3.053   6.526  0.3440  0.3183  0.5898
   14SAPS   C31 1762   1.484   3.047   6.639  0.5549 -0.1248 -0.3419
   14SAPS   O32 1763   1.536   3.142   6.689 -0.1403  0.1376 -0.1473
   14SAPS   C32 1764   1.486   2.898   6.694 -0.7103 -0.2343 -0.1051
   14SAPS   H2X 1765   1.417   2.841   6.629 -2.0842  1.7119 -0.4520
   14SAPS   H2Y 1766   1.432   2.912   6.790  0.9220  1.8864  0.5953
   14SAPS   C23 1767   1.091   2.831   6.440 -0.1530  0.1260  0.1065
   14SAPS   H3R 1768   1.182   2.767   6.441 -1.0145 -1.2166 -1.4218
   14SAPS   H3S 1769   1.025   2.746   6.411  2.0442 -0.8941 -2.2773
   14SAPS   C24 1770   1.044   2.885   6.576 -0.5462 -0.0675 -0.0795
   14SAPS   H4R 1771   1.014   2.799   6.639  1.6292 -1.3957 -0.7404
   14SAPS   H4S 1772   0.949   2.942   6.567  0.9427  2.3611 -1.5907
   14SAPS   C25 1773   1.142   2.978   6.645 -0.3612 -0.2340  0.2919
   14SAPS   H5R 1774   1.199   3.048   6.582 -0.0370 -2.5224 -2.1451
   14SAPS   C26 1775   1.152   2.989   6.782  0.1765  0.0867  0.6298
   14SAPS   H6R 1776   1.227   3.053   6.830  1.4510 -0.7614 -0.1579
   14SAPS   C27 1777   1.064   2.919   6.882 -0.4576 -0.2686  0.1221
   14SAPS   H7R 1778   1.095   2.813   6.894  0.3777 -0.3265 -2.0730
   14SAPS   H7S 1779   0.961   2.904   6.842  0.1826 -3.0806 -0.6396
   14SAPS   C28 1780   1.074   3.000   7.012  0.3095 -0.4631  0.5522
   14SAPS   H8R 1781   1.036   3.103   7.004 -0.4064 -0.7156  0.6493
   14SAPS   C29 1782   1.127   2.962   7.129 -0.2750 -0.3633 -0.0041
   14SAPS   H9R 1783   1.111   3.029   7.215  1.2014 -1.7941  1.4498
   14SAPS  C210 1784   1.190   2.829   7.153  0.3873  0.0470  0.2763
   14SAPS  H10R 1785   1.243   2.786   7.065 -0.8592 -1.8443  0.3779
   14SAPS  H10S 1786   1.110   2.754   7.167  0.7329 -0.2219  0.8793
   14SAPS  C211 1787   1.305   2.831   7.253 -0.9766  0.5834  0.4787
   14SAPS  H11R 1788   1.408   2.829   7.217 -0.2371  2.0765  2.3163
   14SAPS  C212 1789   1.298   2.851   7.385 -0.5822  0.2467 -0.3562
   14SAPS  H12R 1790   1.389   2.834   7.444 -0.4726 -2.4113 -1.1281
   14SAPS  C213 1791   1.179   2.874   7.468  1.2268  0.6041  0.1592
   14SAPS  H13R 1792   1.185   2.797   7.548 -0.6219 -3.0425 -2.9340
   14SAPS  H13S 1793   1.084   2.849   7.417  1.5431 -2.1621  0.7522
   14SAPS  C214 1794   1.149   3.004   7.536 -0.3451 -0.0320 -0.2954
   14SAPS  H14R 1795   1.067   3.055   7.484  1.3658  1.2265 -1.8808
   14SAPS  C215 1796   1.216   3.062   7.639  0.1202 -0.1855  0.1772
   14SAPS  H15R 1797   1.163   3.142   7.693 -1.9044 -0.5251 -1.1970
   14SAPS  C216 1798   1.326   2.982   7.721  0.4937 -0.1261  0.4205
   14SAPS  H16R 1799   1.419   3.042   7.728 -0.3308  1.5268 -1.6852
   14SAPS  H16S 1800   1.348   2.889   7.663 -1.1855  1.0430 -2.2683
   14SAPS  C217 1801   1.275   2.952   7.865 -0.3810  0.4264  0.0051
   14SAPS  H17R 1802   1.334   2.870   7.912 -2.1437 -2.2660 -2.1417
   14SAPS  H17S 1803   1.167   2.925   7.864 -0.4710  0.7511 -1.9415
   14SAPS  C218 1804   1.301   3.072   7.963 -0.3199 -0.3103  0.2152
   14SAPS  H18R 1805   1.230   3.153   7.935  0.9887  1.2019  1.0522
   14SAPS  H18S 1806   1.397   3.123   7.939 -1.1154  2.4739  2.4222
   14SAPS  C219 1807   1.282   3.037   8.114 -0.5041  0.1265  0.6628
   14SAPS  H19R 1808   1.326   2.940   8.144 -0.5210  0.1524  0.7751
   14SAPS  H19S 1809   1.178   3.008   8.141  0.5987 -3.4401  1.5558
   14SAPS  C220 1810   1.323   3.153   8.207  0.2088 -0.9398  0.1168
   14SAPS  H20R 1811   1.316   3.121   8.313 -0.7701  0.6206  0.5678
   14SAPS  H20S 1812   1.256   3.240   8.188  1.0155  0.1018  1.7873
   14SAPS  H20T 1813   1.430   3.174   8.186  0.1960  0.8178  1.5757
   14SAPS   C33 1814   1.631   2.841   6.711  0.0150  0.0087  0.0496
   14SAPS   H3X 1815   1.701   2.887   6.638  0.9124 -0.3126  0.7006
   14SAPS   H3Y 1816   1.630   2.732   6.686  1.9392  0.0472 -0.3265
   14SAPS   C34 1817   1.692   2.861   6.852 -0.2009 -0.7489 -0.0148
   14SAPS   H4X 1818   1.677   2.961   6.899  2.5391 -1.0678  1.7670
   14SAPS   H4Y 1819   1.801   2.846   6.833  0.1042  1.5868 -0.4989
   14SAPS   C35 1820   1.626   2.773   6.961 -0.4875 -0.0607  0.1468
   14SAPS   H5X 1821   1.610   2.670   6.923  2.8602 -1.3313  1.7951
   14SAPS   H5Y 1822   1.522   2.809   6.972 -1.1931 -1.9238 -0.1156
   14SAPS   C36 1823   1.697   2.782   7.100 -0.0857  0.4380  0.2760
   14SAPS   H6X 1824   1.804   2.756   7.091 -0.5438 -1.2759 -0.8136
   14SAPS   H6Y 1825   1.644   2.717   7.172 -0.8006  0.3316 -0.3302
   14SAPS   C37 1826   1.703   2.922   7.175  0.2702  0.2274 -0.3419
   14SAPS   H7X 1827   1.596   2.951   7.182  0.0228 -0.9267  1.2517
   14SAPS   H7Y 1828   1.764   2.988   7.110  0.3671 -1.4470 -2.0773
   14SAPS   C38 1829   1.751   2.909   7.320  0.3168 -0.1730  0.0713
   14SAPS   H8X 1830   1.861   2.906   7.330  0.3231  2.5973  1.6680
   14SAPS   H8Y 1831   1.717   2.811   7.361 -0.0093  0.4119  1.2474
   14SAPS   C39 1832   1.710   3.029   7.408  0.5763 -0.2497 -1.1879
   14SAPS   H9X 1833   1.603   3.015   7.435  0.7388  0.7597  0.1061
   14SAPS   H9Y 1834   1.717   3.124   7.351 -0.0256 -0.1007 -1.0152
   14SAPS  C310 1835   1.782   3.033   7.548 -0.4028 -0.1211 -0.4624
   14SAPS  H10X 1836   1.888   3.019   7.519 -0.3689  1.9125 -1.5479
   14SAPS  H10Y 1837   1.749   2.946   7.609 -1.8886 -0.0990 -1.1904
   14SAPS  C311 1838   1.756   3.153   7.636 -0.5779 -0.0175 -0.1435
   14SAPS  H11X 1839   1.647   3.153   7.657 -1.2106  0.0651 -3.0418
   14SAPS  H11Y 1840   1.796   3.241   7.581  1.0563  0.4325  1.6307
   14SAPS  C312 1841   1.834   3.140   7.771  0.0260  0.2179 -0.0534
   14SAPS  H12X 1842   1.832   3.240   7.819  1.3334 -0.8905  2.4465
   14SAPS  H12Y 1843   1.940   3.115   7.748  0.2852  2.5764 -1.9280
   14SAPS  C313 1844   1.773   3.045   7.874 -0.2842  0.0617 -0.3441
   14SAPS  H13X 1845   1.756   2.947   7.825 -4.1629  0.4397 -0.0713
   14SAPS  H13Y 1846   1.667   3.070   7.897  0.1288 -1.1663  3.5196
   14SAPS  C314 1847   1.859   3.032   8.002  0.1818  0.5768 -0.1832
   14SAPS  H14X 1848   1.929   3.118   8.009 -0.0874  1.1741 -3.2842
   14SAPS  H14Y 1849   1.920   2.941   7.987 -1.7500 -0.6148 -1.1714
   14SAPS  C315 1850   1.782   3.026   8.134  0.3248 -0.8705  0.3691
   14SAPS  H15X 1851   1.715   2.938   8.146 -0.3206 -0.3468  0.6922
   14SAPS  H15Y 1852   1.712   3.112   8.139  0.0758 -0.9784 -1.0169
   14SAPS  C316 1853   1.881   3.033   8.252 -0.4681  0.1422  0.3018
   14SAPS  H16X 1854   1.944   3.125   8.245  0.2283 -0.2680  1.0328
   14SAPS  H16Y 1855   1.934   2.936   8.240 -0.0673  0.6912 -3.6582
   14SAPS  C317 1856   1.804   3.020   8.380 -0.1268  0.3896  0.0849
   14SAPS  H17X 1857   1.765   2.917   8.392 -0.2086  0.2942 -0.9334
   14SAPS  H17Y 1858   1.722   3.096   8.383  0.6711  1.2877 -0.3379
   14SAPS  C318 1859   1.901   3.047   8.501  0.4538 -0.0644  0.0816
   14SAPS  H18X 1860   1.941   3.150   8.493  3.1580 -1.1148 -1.3131
   14SAPS  H18Y 1861   1.992   2.983   8.505  0.4135 -0.3779 -2.6615
   14SAPS  H18Z 1862   1.840   3.032   8.593  1.7462  0.7731  1.1088
   15SAPS     N 1863   1.278   1.485   5.622 -0.3007  0.2738 -0.6323
   15SAPS   HN1 1864   1.310   1.388   5.600 -2.8507 -0.2910 -2.3719
   15SAPS   HN2 1865   1.323   1.531   5.540 -2.9887  1.0631 -1.7758
   15SAPS   HN3 1866   1.308   1.530   5.710 -0.1906 -0.7119 -0.1539
   15SAPS   C12 1867   1.131   1.489   5.600 -0.5977  0.7944  0.0227
   15SAPS  H12A 1868   1.116   1.573   5.534 -0.7264 -0.3395 -1.4693
   15SAPS   C13 1869   1.070   1.365   5.534  0.3476  0.2371 -1.1554
   15SAPS  O13A 1870   1.158   1.280   5.497  0.0442 -0.7877  0.1591
   15SAPS  O13B 1871   0.956   1.378   5.487  0.0693  0.2938  0.0377
   15SAPS   C11 1872   1.066   1.507   5.743  0.1725  0.5988  0.0362
   15SAPS  H11A 1873   0.956   1.498   5.734 -0.0888  2.5757  0.8805
   15SAPS  H11B 1874   1.080   1.616   5.758  0.9647  0.1889  3.0677
   15SAPS     P 1875   1.036   1.348   5.937 -0.4287  0.2922  0.3460
   15SAPS   O13 1876   0.951   1.262   5.849 -0.5395  0.1035 -0.0714
   15SAPS   O14 1877   1.131   1.271   6.026  0.3615  0.5956 -0.1833
   15SAPS   O12 1878   1.127   1.435   5.849  0.4810 -0.4417 -0.0155
   15SAPS   O11 1879   0.947   1.460   6.010 -1.2830  0.2332  0.7278
   15SAPS    C1 1880   1.014   1.549   6.100 -0.1306 -0.3327 -0.5494
   15SAPS    HA 1881   1.114   1.578   6.062  0.7166 -1.9545  0.3090
   15SAPS    HB 1882   0.955   1.643   6.102 -1.4464 -1.1307  1.1552
   15SAPS    C2 1883   1.036   1.485   6.238 -0.5154 -0.4314  0.0303
   15SAPS    HS 1884   1.092   1.389   6.240  0.8231  0.3272  0.4027
   15SAPS   O21 1885   0.909   1.481   6.312  0.0098  0.1750  0.0897
   15SAPS   C21 1886   0.896   1.383   6.403 -0.2955  0.0740  0.7049
   15SAPS   O22 1887   0.960   1.278   6.400 -0.8570 -0.0565 -0.9105
   15SAPS   C22 1888   0.780   1.416   6.494 -0.4560  0.4394  0.5568
   15SAPS   H2R 1889   0.802   1.510   6.548 -1.5844 -0.0488  1.9527
   15SAPS   H2S 1890   0.696   1.429   6.423  0.8766  0.6407 -1.0339
   15SAPS    C3 1891   1.136   1.580   6.318  0.0290 -0.0574 -0.1338
   15SAPS    HX 1892   1.077   1.671   6.299  1.0270  0.1669 -2.5656
   15SAPS    HY 1893   1.229   1.598   6.259  1.4568  0.2383  2.0969
   15SAPS   O31 1894   1.145   1.544   6.460  0.3047  0.2582  0.4371
   15SAPS   C31 1895   1.257   1.485   6.503 -0.0595  0.6143 -0.0295
   15SAPS   O32 1896   1.352   1.458   6.438  0.4320 -0.2343 -0.1107
   15SAPS   C32 1897   1.238   1.445   6.653  0.0538  0.2594  0.8550
   15SAPS   H2X 1898   1.137   1.399   6.649  0.9481 -1.7007 -0.8912
   15SAPS   H2Y 1899   1.234   1.538   6.715 -2.1592  0.0228  1.1302
   15SAPS   C23 1900   0.767   1.300   6.595  0.2929  0.2180 -0.1424
   15SAPS   H3R 1901   0.767   1.203   6.542 -0.3618  1.2531 -2.1129
   15SAPS   H3S 1902   0.666   1.319   6.637 -0.4749 -1.5279 -1.0802
   15SAPS   C24 1903   0.881   1.299   6.711  0.5219 -0.0933 -0.4226
   15SAPS   H4R 1904   0.906   1.401   6.749  2.5478 -0.3711 -0.8588
   15SAPS   H4S 1905   0.975   1.263   6.664 -0.0442  0.0663 -1.7117
   15SAPS   C25 1906   0.847   1.210   6.831 -0.6449  0.2022  0.0154
   15SAPS   H5R 1907   0.803   1.114   6.800  1.7953 -1.4527  1.3370
   15SAPS   C26 1908   0.864   1.246   6.961  0.1393 -0.5467  0.2489
   15SAPS   H6R 1909   0.817   1.191   7.044 -0.9943  0.9516  0.6375
   15SAPS   C27 1910   0.930   1.371   6.995 -0.4210  0.6927  0.3044
   15SAPS   H7R 1911   0.872   1.460   6.963  3.5904  3.0618 -1.0623
   15SAPS   H7S 1912   1.029   1.364   6.946  0.3673 -1.1886  2.0039
   15SAPS   C28 1913   0.967   1.378   7.137  0.3143 -0.7878 -0.0205
   15SAPS   H8R 1914   1.000   1.286   7.188 -2.6101 -1.3506  1.0725
   15SAPS   C29 1915   0.966   1.490   7.210  0.1595 -0.2803  0.3048
   15SAPS   H9R 1916   0.991   1.481   7.317  0.5618  1.9181  0.4463
   15SAPS  C210 1917   0.922   1.624   7.168 -0.3994 -0.2352 -0.1179
   15SAPS  H10R 1918   0.819   1.651   7.200 -0.1667  0.0165  0.4319
   15SAPS  H10S 1919   0.925   1.640   7.058 -2.2101  0.0819 -0.1538
   15SAPS  C211 1920   1.009   1.734   7.230 -0.1560 -0.1928 -0.8694
   15SAPS  H11R 1921   0.984   1.762   7.333  1.1102 -1.3130 -0.2251
   15SAPS  C212 1922   1.108   1.814   7.172 -0.0868  0.7110 -0.2829
   15SAPS  H12R 1923   1.163   1.882   7.238  0.0278  0.4644 -0.1209
   15SAPS  C213 1924   1.161   1.806   7.034  0.0306  0.1918  0.7006
   15SAPS  H13R 1925   1.088   1.765   6.960 -0.5135  1.0953  0.7198
   15SAPS  H13S 1926   1.245   1.733   7.032  1.6814  2.0186  0.4090
   15SAPS  C214 1927   1.202   1.941   6.974  0.3270 -1.1118  0.2590
   15SAPS  H14R 1928   1.276   1.986   7.040  1.0585 -2.9862  0.7879
   15SAPS  C215 1929   1.168   2.021   6.871  0.5800  0.9239  0.1093
   15SAPS  H15R 1930   1.229   2.108   6.843  0.8396  0.1522 -1.8905
   15SAPS  C216 1931   1.062   1.978   6.771 -0.2087  0.0021  0.3586
   15SAPS  H16R 1932   0.967   2.016   6.815  0.4153  0.0607  1.6834
   15SAPS  H16S 1933   1.056   1.867   6.774  4.0090 -0.4249 -0.7777
   15SAPS  C217 1934   1.090   2.015   6.625  1.3262 -0.7370  0.4460
   15SAPS  H17R 1935   1.093   2.126   6.616 -0.1855 -0.6178  1.2077
   15SAPS  H17S 1936   1.007   1.981   6.559  1.5438  0.6715 -0.6252
   15SAPS  C218 1937   1.218   1.964   6.561  0.2304 -0.7523 -1.1577
   15SAPS  H18R 1938   1.301   2.030   6.595 -0.4699  0.0171 -0.9024
   15SAPS  H18S 1939   1.205   1.985   6.452  0.5788 -1.0215 -1.2531
   15SAPS  C219 1940   1.261   1.824   6.587 -0.2052  0.2559 -0.1445
   15SAPS  H19R 1941   1.198   1.751   6.533 -0.2943 -0.7289  1.2554
   15SAPS  H19S 1942   1.246   1.798   6.694  1.2825  2.1720  0.6055
   15SAPS  C220 1943   1.403   1.792   6.557  0.1814  0.1741  0.0556
   15SAPS  H20R 1944   1.420   1.807   6.448  0.9577 -1.5746 -0.1089
   15SAPS  H20S 1945   1.433   1.686   6.573 -0.0655  0.4339  2.7062
   15SAPS  H20T 1946   1.469   1.863   6.611  0.2619  0.5571 -0.5458
   15SAPS   C33 1947   1.351   1.353   6.714 -0.0663  0.0600  0.5011
   15SAPS   H3X 1948   1.456   1.384   6.700  0.2278 -1.4704 -1.0641
   15SAPS   H3Y 1949   1.349   1.251   6.669  0.7861 -0.8206  2.3868
   15SAPS   C34 1950   1.326   1.336   6.867  0.2780 -0.4613 -0.1804
   15SAPS   H4X 1951   1.229   1.282   6.872  0.8636 -1.6039 -0.7453
   15SAPS   H4Y 1952   1.313   1.437   6.910  1.1077 -0.0923 -0.7614
   15SAPS   C35 1953   1.438   1.256   6.931 -1.1290  0.0065  0.1631
   15SAPS   H5X 1954   1.535   1.309   6.941 -0.0673 -1.3256 -2.2889
   15SAPS   H5Y 1955   1.451   1.167   6.867 -1.8856 -0.6372  0.8761
   15SAPS   C36 1956   1.412   1.219   7.081  0.4252  0.4687 -0.4682
   15SAPS   H6X 1957   1.486   1.146   7.118 -0.0984  0.5656  0.8149
   15SAPS   H6Y 1958   1.319   1.158   7.085 -0.7120  2.1570  0.2762
   15SAPS   C37 1959   1.388   1.336   7.181  0.6043 -0.1013 -0.5661
   15SAPS   H7X 1960   1.301   1.395   7.142 -0.7424 -0.4043  1.7908
   15SAPS   H7Y 1961   1.476   1.402   7.167  1.7782 -1.7270 -1.1139
   15SAPS   C38 1962   1.362   1.312   7.326 -0.1160  0.5671  0.0780
   15SAPS   H8X 1963   1.448   1.256   7.371 -1.1290 -1.2885 -0.1790
   15SAPS   H8Y 1964   1.269   1.260   7.356  1.6212 -0.5469  4.3367
   15SAPS   C39 1965   1.342   1.442   7.397 -0.4023 -0.3622 -0.3416
   15SAPS   H9X 1966   1.245   1.493   7.380 -0.2960 -0.1399 -0.2820
   15SAPS   H9Y 1967   1.430   1.505   7.373 -0.9471  1.2912  1.6863
   15SAPS  C310 1968   1.346   1.413   7.547  0.9102 -0.1589 -0.1918
   15SAPS  H10X 1969   1.439   1.355   7.567  0.2363 -0.8676  0.9448
   15SAPS  H10Y 1970   1.255   1.351   7.564  0.0533  0.7654 -1.1830
   15SAPS  C311 1971   1.336   1.534   7.649 -0.1627  0.7885  0.0030
   15SAPS  H11X 1972   1.246   1.595   7.624 -0.0990  0.2441 -1.6880
   15SAPS  H11Y 1973   1.430   1.590   7.633  1.7012 -1.6639  1.5645
   15SAPS  C312 1974   1.321   1.478   7.788  0.3139 -0.4247  0.1450
   15SAPS  H12X 1975   1.394   1.396   7.804 -2.6104 -3.4619 -0.9254
   15SAPS  H12Y 1976   1.218   1.438   7.795 -0.5739  1.3290 -1.6399
   15SAPS  C313 1977   1.350   1.583   7.895  0.1202  0.6070 -1.0857
   15SAPS  H13X 1978   1.297   1.678   7.871 -2.3859 -0.3081  0.4205
   15SAPS  H13Y 1979   1.460   1.595   7.903  0.4842 -2.4704 -0.4120
   15SAPS  C314 1980   1.296   1.545   8.037 -0.0714  0.8608 -0.6623
   15SAPS  H14X 1981   1.351   1.451   8.063 -1.6927  0.2790  0.9176
   15SAPS  H14Y 1982   1.189   1.515   8.032 -0.7342  2.9817 -0.1369
   15SAPS  C315 1983   1.315   1.645   8.149 -0.2542  0.3248 -1.0250
   15SAPS  H15X 1984   1.243   1.729   8.142  0.1612  0.6425 -1.6524
   15SAPS  H15Y 1985   1.410   1.701   8.139 -1.0543  1.6605 -1.3631
   15SAPS  C316 1986   1.314   1.582   8.297 -0.7876 -0.2127  0.0809
   15SAPS  H16X 1987   1.395   1.506   8.302 -1.3633 -1.0785 -2.1926
   15SAPS  H16Y 1988   1.213   1.535   8.305 -0.6608 -0.2620  1.5855
   15SAPS  C317 1989   1.318   1.684   8.410  0.2497 -0.2904 -0.1477
   15SAPS  H17X 1990   1.227   1.745   8.393  0.1138 -1.2274 -3.4631
   15SAPS  H17Y 1991   1.401   1.757   8.397  1.2672 -1.4277 -0.2588
   15SAPS  C318 1992   1.326   1.622   8.551 -0.0994  1.0297 -0.0860
   15SAPS  H18X 1993   1.342   1.701   8.627  1.0418  1.4349 -0.7242
   15SAPS  H18Y 1994   1.416   1.557   8.550 -1.6483 -1.4278 -3.5223
   15SAPS  H18Z 1995   1.232   1.563   8.560  0.9542 -0.6031  0.8781
   16SAPS     N 1996   3.813   3.941   6.094  0.1626  0.1901 -0.1029
   16SAPS   HN1 1997   3.839   4.038   6.121 -0.2875  0.3047 -0.0612
   16SAPS   HN2 1998   3.818   3.878   6.176  1.0709 -0.5837 -0.7339
   16SAPS   HN3 1999   3.869   3.895   6.020 -1.0799 -1.4965 -0.0684
   16SAPS   C12 2000   3.669   3.939   6.053  0.1902  0.0006  0.2019
   16SAPS  H12A 2001   3.652   3.998   5.964 -1.4188  0.0490  0.5108
   16SAPS   C13 2002   3.621   3.794   6.023 -0.4433 -0.0133 -0.7365
   16SAPS  O13A 2003   3.700   3.694   6.026  0.8739 -0.4239 -0.1285
   16SAPS  O13B 2004   3.507   3.797   5.977 -0.4477 -0.9566 -0.3391
   16SAPS   C11 2005   3.577   4.006   6.164 -0.8183 -0.1937 -1.0035
   16SAPS  H11A 2006   3.593   3.934   6.247 -0.4830 -0.7702 -1.5535
   16SAPS  H11B 2007   3.473   4.015   6.128 -0.2407 -0.4892 -2.8811
   16SAPS     P 2008   3.574   4.227   6.306 -0.1330 -0.3477  0.1268
   16SAPS   O13 2009   3.678   4.328   6.349  0.1623  0.1621 -0.1692
   16SAPS   O14 2010   3.439   4.277   6.259  0.3341  0.0257 -0.1064
   16SAPS   O12 2011   3.631   4.134   6.195  0.5737 -0.5738 -0.0348
   16SAPS   O11 2012   3.554   4.128   6.430 -0.1328  0.1194 -0.3711
   16SAPS    C1 2013   3.653   4.067   6.508 -1.0138  0.0290 -0.6137
   16SAPS    HA 2014   3.631   3.959   6.522 -0.3283  0.0818  1.1538
   16SAPS    HB 2015   3.752   4.086   6.461 -0.3455 -0.1870  0.6605
   16SAPS    C2 2016   3.653   4.119   6.658  0.3000 -0.3419  0.1786
   16SAPS    HS 2017   3.725   4.050   6.707 -1.0853 -1.1419  1.1612
   16SAPS   O21 2018   3.521   4.108   6.712 -0.0618 -0.0026 -0.0457
   16SAPS   C21 2019   3.498   4.075   6.836  0.0675  0.6088 -0.2912
   16SAPS   O22 2020   3.584   4.050   6.916  0.3333  0.0908 -0.5056
   16SAPS   C22 2021   3.342   4.082   6.859  0.7786 -0.1495 -1.1549
   16SAPS   H2R 2022   3.332   4.192   6.865 -2.0928 -0.3794 -0.2469
   16SAPS   H2S 2023   3.293   4.025   6.778  0.2306 -3.5769  1.3212
   16SAPS    C3 2024   3.701   4.263   6.665  0.5552  0.0509 -0.6495
   16SAPS    HX 2025   3.623   4.321   6.611 -1.0621  0.7708  2.2344
   16SAPS    HY 2026   3.801   4.285   6.624  0.7402  2.9643  1.0923
   16SAPS   O31 2027   3.683   4.320   6.801 -0.4714  0.3466  0.2357
   16SAPS   C31 2028   3.752   4.432   6.829 -0.9938  0.2875 -0.2415
   16SAPS   O32 2029   3.847   4.480   6.764 -0.1444 -0.2249 -0.0050
   16SAPS   C32 2030   3.709   4.490   6.964 -0.3362  0.0122  0.2420
   16SAPS   H2X 2031   3.798   4.522   7.021  0.1946 -0.0868 -0.5247
   16SAPS   H2Y 2032   3.661   4.412   7.028 -1.5821  0.5163 -0.0448
   16SAPS   C23 2033   3.301   4.026   6.999  0.6143 -0.3087  0.1206
   16SAPS   H3R 2034   3.199   4.052   7.033  0.0466 -1.2050 -0.8602
   16SAPS   H3S 2035   3.361   4.066   7.084  0.8180 -0.4420  0.0405
   16SAPS   C24 2036   3.316   3.871   7.007 -0.5689 -0.2267 -0.3875
   16SAPS   H4R 2037   3.320   3.853   7.116 -0.4457  0.5682 -0.2513
   16SAPS   H4S 2038   3.419   3.847   6.973 -0.7129 -0.8327 -0.3921
   16SAPS   C25 2039   3.205   3.781   6.953  0.7061 -0.7015  0.5625
   16SAPS   H5R 2040   3.196   3.762   6.845 -1.5754  0.7740  0.4160
   16SAPS   C26 2041   3.104   3.734   7.028  0.0454 -0.2018  0.0759
   16SAPS   H6R 2042   3.040   3.665   6.972  0.9266  0.0285 -1.2456
   16SAPS   C27 2043   3.075   3.752   7.177 -0.5196  0.0157 -0.0669
   16SAPS   H7R 2044   2.967   3.751   7.198 -0.4804 -2.6950  0.3665
   16SAPS   H7S 2045   3.124   3.844   7.216 -0.0898 -0.5395  0.7299
   16SAPS   C28 2046   3.140   3.633   7.249 -0.3172  0.4487 -0.6006
   16SAPS   H8R 2047   3.137   3.542   7.188  0.4772 -0.0940  0.1613
   16SAPS   C29 2048   3.202   3.615   7.360 -1.1870 -0.0600 -0.8361
   16SAPS   H9R 2049   3.237   3.514   7.386 -1.3826 -1.0390 -4.0138
   16SAPS  C210 2050   3.225   3.724   7.460  0.0344  0.4696  0.6417
   16SAPS  H10R 2051   3.190   3.815   7.407 -0.5362 -0.0903  0.0470
   16SAPS  H10S 2052   3.335   3.735   7.476 -0.1392  1.9421  1.0031
   16SAPS  C211 2053   3.152   3.690   7.591  0.8242 -0.1969  0.7904
   16SAPS  H11R 2054   3.044   3.672   7.583  0.8678 -0.3213  0.4684
   16SAPS  C212 2055   3.213   3.695   7.705 -0.2287  0.2803 -0.7170
   16SAPS  H12R 2056   3.148   3.682   7.793 -0.3089 -0.4882 -0.8752
   16SAPS  C213 2057   3.362   3.721   7.732  0.4859  0.4775  0.7004
   16SAPS  H13R 2058   3.386   3.829   7.732  1.0651  0.3553  0.8751
   16SAPS  H13S 2059   3.423   3.674   7.651 -1.1618 -2.6190  1.0833
   16SAPS  C214 2060   3.411   3.658   7.862 -0.7254  0.6730  0.5510
   16SAPS  H14R 2061   3.414   3.548   7.874  0.9077  0.4078 -1.5722
   16SAPS  C215 2062   3.444   3.733   7.971 -0.0731 -0.1208  1.1266
   16SAPS  H15R 2063   3.465   3.678   8.064 -0.2893  0.8436  1.7609
   16SAPS  C216 2064   3.437   3.882   7.994 -0.1162 -0.6124  0.1967
   16SAPS  H16R 2065   3.438   3.944   7.901  0.5523  0.1184  0.6764
   16SAPS  H16S 2066   3.535   3.916   8.035  0.0963  1.8484 -2.0299
   16SAPS  C217 2067   3.323   3.917   8.090  0.0771 -0.0417  0.1904
   16SAPS  H17R 2068   3.326   4.027   8.102  0.6968 -0.1533  1.1096
   16SAPS  H17S 2069   3.335   3.870   8.190 -1.6050  1.5792  1.2300
   16SAPS  C218 2070   3.186   3.867   8.033  0.1811  0.2056  0.7832
   16SAPS  H18R 2071   3.170   3.757   8.036  1.2658 -0.0154 -0.6159
   16SAPS  H18S 2072   3.188   3.900   7.926 -3.1813  1.0202  0.8509
   16SAPS  C219 2073   3.065   3.942   8.093 -0.5576  1.0096  0.2332
   16SAPS  H19R 2074   2.985   3.941   8.017 -1.0437 -2.9636  0.5896
   16SAPS  H19S 2075   3.095   4.048   8.109  0.5331  1.0694 -1.8991
   16SAPS  C220 2076   3.007   3.878   8.220 -0.6282  0.7250 -0.0766
   16SAPS  H20R 2077   3.082   3.866   8.301  0.5417  1.9383 -0.9388
   16SAPS  H20S 2078   2.987   3.770   8.206  0.0170  0.7438 -1.2908
   16SAPS  H20T 2079   2.912   3.919   8.260 -0.1548  1.2846  0.4923
   16SAPS   C33 2080   3.621   4.615   6.958 -0.1711 -0.1829 -0.0794
   16SAPS   H3X 2081   3.521   4.601   6.911 -0.8382  0.0626  1.2321
   16SAPS   H3Y 2082   3.661   4.700   6.897  0.4755  1.1388  2.0920
   16SAPS   C34 2083   3.608   4.662   7.099  0.4144 -0.6236 -0.4291
   16SAPS   H4X 2084   3.587   4.771   7.101 -0.1330 -0.7366  0.4133
   16SAPS   H4Y 2085   3.703   4.655   7.155 -1.6285 -0.2963  3.3840
   16SAPS   C35 2086   3.506   4.601   7.198  0.4023 -0.9633  0.5302
   16SAPS   H5X 2087   3.511   4.490   7.197 -0.1371 -0.9998  1.2886
   16SAPS   H5Y 2088   3.408   4.632   7.154 -0.9665 -2.0959  2.6490
   16SAPS   C36 2089   3.501   4.657   7.338 -0.5139  0.0125 -0.5357
   16SAPS   H6X 2090   3.448   4.753   7.346  0.9235  0.9443 -1.5357
   16SAPS   H6Y 2091   3.607   4.669   7.369 -0.3977  0.4555 -1.0891
   16SAPS   C37 2092   3.441   4.544   7.427 -0.4330 -0.4740 -0.3959
   16SAPS   H7X 2093   3.500   4.451   7.419  0.6162 -0.0061  1.4230
   16SAPS   H7Y 2094   3.338   4.522   7.392  0.2843 -1.3307 -2.0802
   16SAPS   C38 2095   3.417   4.596   7.565  0.4339  0.5390  0.1561
   16SAPS   H8X 2096   3.353   4.524   7.621 -0.9853  3.3077  2.3499
   16SAPS   H8Y 2097   3.351   4.685   7.558 -2.2443 -1.2585  0.9063
   16SAPS   C39 2098   3.542   4.612   7.643 -0.2302 -0.4253  0.7661
   16SAPS   H9X 2099   3.598   4.704   7.615 -0.7494  0.4511  2.4475
   16SAPS   H9Y 2100   3.612   4.526   7.641  1.5145  0.9531 -0.0191
   16SAPS  C310 2101   3.519   4.620   7.796 -0.1546 -0.4751  0.8258
   16SAPS  H10X 2102   3.623   4.641   7.828  0.9347 -2.3710 -1.2107
   16SAPS  H10Y 2103   3.479   4.521   7.826 -0.8093  0.0540  1.7716
   16SAPS  C311 2104   3.422   4.726   7.835 -0.3464  0.0947  0.3605
   16SAPS  H11X 2105   3.321   4.716   7.790 -0.8629  2.1128  0.9708
   16SAPS  H11Y 2106   3.457   4.828   7.809 -0.4090  0.1891  0.6354
   16SAPS  C312 2107   3.405   4.746   7.988 -0.2546 -0.2890 -0.3181
   16SAPS  H12X 2108   3.392   4.657   8.053 -1.5190  1.1551  1.5473
   16SAPS  H12Y 2109   3.304   4.792   7.992 -0.1251  0.0860 -1.1635
   16SAPS  C313 2110   3.505   4.841   8.051  0.3537 -0.5925  0.4113
   16SAPS  H13X 2111   3.514   4.926   7.980  1.4968 -0.5646  0.5786
   16SAPS  H13Y 2112   3.605   4.794   8.064 -0.3422 -2.3862 -0.2718
   16SAPS  C314 2113   3.464   4.887   8.192  0.0041 -0.1695 -1.1215
   16SAPS  H14X 2114   3.474   4.808   8.269  2.5828  1.1177  0.0275
   16SAPS  H14Y 2115   3.358   4.920   8.193 -0.1601 -0.6237  1.0130
   16SAPS  C315 2116   3.544   5.012   8.249  0.6350  0.3507  0.4534
   16SAPS  H15X 2117   3.501   5.093   8.186 -1.4355 -1.2782 -0.3202
   16SAPS  H15Y 2118   3.655   5.002   8.237  0.3126 -1.6957 -1.6856
   16SAPS  C316 2119   3.490   5.039   8.392  0.6558  0.3536 -0.7818
   16SAPS  H16X 2120   3.379   5.050   8.393  0.3695 -2.1004 -0.2974
   16SAPS  H16Y 2121   3.540   5.133   8.425  0.7662  0.5711 -1.5596
   16SAPS  C317 2122   3.542   4.939   8.490  0.1369  0.4461 -0.4908
   16SAPS  H17X 2123   3.653   4.951   8.485  0.0284  2.8068  1.0455
   16SAPS  H17Y 2124   3.509   4.838   8.459 -1.3722  1.0660 -0.9813
   16SAPS  C318 2125   3.485   4.973   8.631 -1.1190  0.0359  0.0646
   16SAPS  H18X 2126   3.545   4.932   8.715  0.4390  0.3992 -0.8326
   16SAPS  H18Y 2127   3.377   4.950   8.624 -0.9519 -0.4715 -0.9613
   16SAPS  H18Z 2128   3.480   5.083   8.646  3.0983  0.6655 -1.7155
   17SAPC     N 2129   0.177   0.822  10.274  1.0996  0.1680 -0.5610
   17SAPC   C12 2130   0.216   0.962  10.298 -0.4623  0.7744  0.0712
   17SAPC  H12A 2131   0.317   0.959  10.336  0.1896  1.5060 -1.4963
   17SAPC  H12B 2132   0.149   0.995  10.376  1.6824  1.4385  1.7393
   17SAPC   C13 2133   0.266   0.745  10.185  0.8439 -0.0924 -0.1122
   17SAPC  H13A 2134   0.278   0.791  10.088  0.8811 -2.8816 -1.5086
   17SAPC  H13B 2135   0.364   0.741  10.231  1.3304  1.0652 -0.9943
   17SAPC  H13C 2136   0.223   0.647  10.174 -2.4075  1.1214  0.4645
   17SAPC   C14 2137   0.172   0.743  10.412 -0.0474 -0.3805 -0.0916
   17SAPC  H14A 2138   0.091   0.776  10.476 -1.2917 -2.3373 -0.5465
   17SAPC  H14B 2139   0.167   0.635  10.404  1.9796 -0.5914  0.8947
   17SAPC  H14C 2140   0.270   0.757  10.453  0.2986 -2.3359 -0.1451
   17SAPC   C15 2141   0.034   0.800  10.217 -0.6462 -0.9298 -0.3300
   17SAPC  H15A 2142  -0.018   0.875  10.276 -0.5323 -1.6631  0.7342
   17SAPC  H15B 2143   0.028   0.819  10.111 -2.0641  1.7796  0.1425
   17SAPC  H15C 2144  -0.009   0.703  10.240 -3.1893  0.0992 -0.3408
   17SAPC   C11 2145   0.224   1.057  10.179  0.1435 -0.2702 -0.0938
   17SAPC  H11A 2146   0.240   1.165  10.201 -0.9246 -0.2801  0.8462
   17SAPC  H11B 2147   0.121   1.055  10.135  0.6718 -1.6167 -1.3746
   17SAPC     P 2148   0.476   1.028  10.110 -0.0039 -0.1009  0.4295
   17SAPC   O13 2149   0.511   1.165  10.162  0.4021  0.5352 -0.2990
   17SAPC   O14 2150   0.520   0.909  10.190  0.1525  0.1580  0.9579
   17SAPC   O12 2151   0.312   1.013  10.078 -0.6318  0.2995  0.3047
   17SAPC   O11 2152   0.540   1.023   9.971 -0.2676 -0.1101  0.2521
   17SAPC    C1 2153   0.494   1.103   9.861 -0.4976  0.3004  0.5591
   17SAPC    HA 2154   0.399   1.157   9.877 -0.7801  0.6422 -1.8615
   17SAPC    HB 2155   0.574   1.179   9.846 -3.0483  3.0294 -0.0367
   17SAPC    C2 2156   0.474   1.000   9.747  0.0893  0.3723  0.1055
   17SAPC    HS 2157   0.407   0.927   9.797 -0.0108  0.1610 -0.3307
   17SAPC   O21 2158   0.600   0.939   9.726  0.6005  0.3306  0.9166
   17SAPC   C21 2159   0.612   0.812   9.742  0.5277  0.5380 -0.2103
   17SAPC   O22 2160   0.517   0.736   9.778 -0.1744 -0.7258  0.3770
   17SAPC   C22 2161   0.757   0.777   9.720 -0.0824  0.0212 -0.5278
   17SAPC   H2R 2162   0.801   0.831   9.633  0.2335 -0.1809 -0.4941
   17SAPC   H2S 2163   0.808   0.817   9.810  0.9070 -1.4003 -0.4158
   17SAPC    C3 2164   0.413   1.069   9.624  0.0152 -0.2757  0.2435
   17SAPC    HX 2165   0.311   1.102   9.652 -0.6810 -1.0768 -1.2378
   17SAPC    HY 2166   0.403   0.991   9.546  3.4815 -1.1824  0.5433
   17SAPC   O31 2167   0.494   1.176   9.569 -0.0389 -0.3460  0.9964
   17SAPC   C31 2168   0.456   1.302   9.604 -0.4861  0.1459  0.0908
   17SAPC   O32 2169   0.367   1.323   9.681 -0.4279  0.2293 -0.2911
   17SAPC   C32 2170   0.534   1.416   9.524 -0.1806  0.7334 -0.5171
   17SAPC   H2X 2171   0.613   1.448   9.596  1.3995 -2.1237 -0.8428
   17SAPC   H2Y 2172   0.479   1.513   9.533 -0.4445  0.6108 -0.8018
   17SAPC   C23 2173   0.790   0.627   9.714  0.0217 -0.0784  0.1659
   17SAPC   H3R 2174   0.733   0.563   9.785 -0.1139 -1.4742 -1.1268
   17SAPC   H3S 2175   0.897   0.606   9.737  0.2068  1.0119  0.3385
   17SAPC   C24 2176   0.744   0.564   9.585  0.6135 -0.2019  0.5019
   17SAPC   H4R 2177   0.633   0.574   9.583  0.6392  0.1207  0.6796
   17SAPC   H4S 2178   0.764   0.454   9.586 -2.1862 -0.8078 -0.0002
   17SAPC   C25 2179   0.821   0.623   9.474  0.0686  0.3837  0.4204
   17SAPC   H5R 2180   0.928   0.633   9.499 -0.1272 -0.3391  1.6202
   17SAPC   C26 2181   0.763   0.674   9.362 -0.2766 -0.1222  0.1343
   17SAPC   H6R 2182   0.825   0.715   9.282 -1.5079 -0.2358 -0.9081
   17SAPC   C27 2183   0.615   0.682   9.323 -0.3387 -0.3277 -0.0882
   17SAPC   H7R 2184   0.552   0.621   9.391  1.0514 -1.8928 -0.1248
   17SAPC   H7S 2185   0.612   0.650   9.216  2.0981  1.7520 -0.8800
   17SAPC   C28 2186   0.575   0.829   9.338  0.1199  0.2120  1.0234
   17SAPC   H8R 2187   0.591   0.868   9.440 -0.5369  1.6234  0.6157
   17SAPC   C29 2188   0.531   0.913   9.246  0.6002 -0.6040 -0.3027
   17SAPC   H9R 2189   0.509   1.019   9.267 -3.2068 -1.0401 -1.3543
   17SAPC  C210 2190   0.510   0.882   9.102 -0.3847  0.0643  0.5439
   17SAPC  H10R 2191   0.589   0.806   9.084  1.2958  1.2413  2.4874
   17SAPC  H10S 2192   0.539   0.971   9.042 -0.6668  0.0815  0.4313
   17SAPC  C211 2193   0.377   0.828   9.063  0.0543  0.2160  0.8489
   17SAPC  H11R 2194   0.292   0.837   9.132 -1.6102 -1.1906 -0.9113
   17SAPC  C212 2195   0.350   0.762   8.952  0.5110 -0.5573  0.5104
   17SAPC  H12R 2196   0.244   0.738   8.939  0.2048  1.0284 -0.1465
   17SAPC  C213 2197   0.441   0.726   8.839 -0.6115 -0.0130  0.3523
   17SAPC  H13R 2198   0.439   0.618   8.814 -1.5699  0.1780 -0.4361
   17SAPC  H13S 2199   0.546   0.755   8.862 -1.0805  0.8620  1.5207
   17SAPC  C214 2200   0.403   0.810   8.713 -0.0104 -1.1750 -0.2285
   17SAPC  H14R 2201   0.446   0.910   8.700  3.1005 -2.2531  0.7539
   17SAPC  C215 2202   0.316   0.776   8.626  0.4484  0.2346  0.2594
   17SAPC  H15R 2203   0.284   0.835   8.538  0.0130 -2.0490 -1.1844
   17SAPC  C216 2204   0.245   0.647   8.632 -0.1080 -0.2197  0.1025
   17SAPC  H16R 2205   0.140   0.673   8.606  0.0267 -1.5158 -1.9556
   17SAPC  H16S 2206   0.227   0.610   8.735  1.6533 -0.2399  0.4340
   17SAPC  C217 2207   0.301   0.540   8.541 -0.3373 -0.7840 -0.1539
   17SAPC  H17R 2208   0.390   0.488   8.583 -0.0509  1.1211  1.8187
   17SAPC  H17S 2209   0.337   0.581   8.444  2.5340 -1.3505  0.5700
   17SAPC  C218 2210   0.205   0.433   8.508 -0.3370 -0.5765 -0.3302
   17SAPC  H18R 2211   0.107   0.481   8.488 -0.1505 -0.4690 -0.9905
   17SAPC  H18S 2212   0.187   0.370   8.599  1.3360  1.0550  1.2105
   17SAPC  C219 2213   0.251   0.344   8.391  0.4313  0.1379  0.4387
   17SAPC  H19R 2214   0.189   0.252   8.402 -1.7429  1.4168 -0.5060
   17SAPC  H19S 2215   0.359   0.317   8.393  0.0922 -1.3561  0.2526
   17SAPC  C220 2216   0.199   0.398   8.254 -0.2535  0.1243 -0.2786
   17SAPC  H20R 2217   0.252   0.490   8.224  0.3738 -0.6658 -1.6927
   17SAPC  H20S 2218   0.093   0.427   8.260 -0.3785 -0.6189  2.3203
   17SAPC  H20T 2219   0.215   0.331   8.167  2.5104  0.1678  0.0785
   17SAPC   C33 2220   0.584   1.375   9.388  0.0807 -0.9021 -0.3828
   17SAPC   H3X 2221   0.634   1.276   9.384  0.0128 -0.9232 -0.7166
   17SAPC   H3Y 2222   0.661   1.452   9.366 -2.2780  2.6605  2.4933
   17SAPC   C34 2223   0.485   1.360   9.272  0.1493 -0.0582 -0.7169
   17SAPC   H4X 2224   0.421   1.450   9.263  0.6179  0.4953  1.0040
   17SAPC   H4Y 2225   0.414   1.280   9.303  0.1698  1.1456  2.9669
   17SAPC   C35 2226   0.555   1.346   9.141 -0.4023  0.5483  0.4940
   17SAPC   H5X 2227   0.646   1.286   9.164 -0.5690  0.3842  0.7304
   17SAPC   H5Y 2228   0.566   1.452   9.110  0.1817  0.5907  0.8376
   17SAPC   C36 2229   0.465   1.284   9.036 -0.1513 -0.5825 -0.1198
   17SAPC   H6X 2230   0.371   1.342   9.023 -0.3149 -0.8955 -0.3552
   17SAPC   H6Y 2231   0.433   1.180   9.061  0.4941 -1.5166 -2.8870
   17SAPC   C37 2232   0.541   1.274   8.906 -0.4022  0.2865  0.0993
   17SAPC   H7X 2233   0.615   1.198   8.940  0.9611  1.4500 -0.1644
   17SAPC   H7Y 2234   0.582   1.374   8.880 -1.8512  0.9768  0.3477
   17SAPC   C38 2235   0.447   1.231   8.789 -0.0470  0.1163  0.0498
   17SAPC   H8X 2236   0.362   1.303   8.780  0.8269  1.0972 -0.6450
   17SAPC   H8Y 2237   0.407   1.132   8.818  0.5455  0.4079  2.0427
   17SAPC   C39 2238   0.509   1.222   8.650  0.4671 -0.0212 -0.3818
   17SAPC   H9X 2239   0.521   1.327   8.616 -2.5775  1.8822  3.6248
   17SAPC   H9Y 2240   0.444   1.175   8.573 -0.2867 -1.8554  1.3050
   17SAPC  C310 2241   0.644   1.156   8.649 -0.6781  0.1809  0.6869
   17SAPC  H10X 2242   0.639   1.055   8.695 -0.3548 -0.6442 -0.9922
   17SAPC  H10Y 2243   0.714   1.209   8.717 -0.9084  1.2976  0.0782
   17SAPC  C311 2244   0.711   1.158   8.511  0.6845  0.7159 -0.1374
   17SAPC  H11X 2245   0.815   1.120   8.513 -0.7597 -3.8798  1.7022
   17SAPC  H11Y 2246   0.720   1.260   8.469  0.9101  0.3658 -0.9449
   17SAPC  C312 2247   0.641   1.072   8.407 -0.7464  0.1029 -0.1037
   17SAPC  H12X 2248   0.538   1.107   8.385 -0.7271 -0.0630 -0.4556
   17SAPC  H12Y 2249   0.621   0.968   8.441 -1.2759 -0.2525 -1.4698
   17SAPC  C313 2250   0.710   1.062   8.268 -0.9036  0.2066 -0.2035
   17SAPC  H13X 2251   0.821   1.061   8.277 -0.6510 -1.5886 -2.4966
   17SAPC  H13Y 2252   0.682   1.151   8.207 -0.3770 -0.7217 -1.8700
   17SAPC  C314 2253   0.664   0.940   8.192 -0.2246 -0.3417  0.5984
   17SAPC  H14X 2254   0.554   0.953   8.181  0.0504  1.3166 -0.5566
   17SAPC  H14Y 2255   0.678   0.849   8.254 -0.2072 -1.4737 -1.0104
   17SAPC  C315 2256   0.713   0.937   8.050 -0.1129  0.1337 -0.5250
   17SAPC  H15X 2257   0.822   0.914   8.060  0.0302  0.6740 -0.8024
   17SAPC  H15Y 2258   0.711   1.031   7.990  1.7811  0.0034 -0.8701
   17SAPC  C316 2259   0.640   0.841   7.952  0.3658  0.2198 -0.3706
   17SAPC  H16X 2260   0.532   0.859   7.972 -0.0479 -2.5122  0.1343
   17SAPC  H16Y 2261   0.668   0.736   7.973  1.1901 -0.1569 -2.9368
   17SAPC  C317 2262   0.673   0.858   7.809 -0.1836 -0.1826 -0.2519
   17SAPC  H17X 2263   0.688   0.965   7.783  1.5890 -0.7817 -2.0063
   17SAPC  H17Y 2264   0.594   0.805   7.750 -0.4258 -1.9778  1.5786
   17SAPC  C318 2265   0.813   0.795   7.773  0.0293 -1.2312  0.0529
   17SAPC  H18X 2266   0.905   0.850   7.801 -0.1584 -0.6700 -0.4316
   17SAPC  H18Y 2267   0.833   0.704   7.835  1.4153 -0.7461  0.3582
   17SAPC  H18Z 2268   0.835   0.762   7.670  0.6792  0.7690 -0.4801
   18SAPC     N 2269   2.263   6.704  10.753 -0.1142  0.6622 -0.1913
   18SAPC   C12 2270   2.274   6.690  10.601  0.6140 -0.6255  0.3257
   18SAPC  H12A 2271   2.313   6.596  10.567  0.4832 -0.2802 -0.8272
   18SAPC  H12B 2272   2.351   6.749  10.553  1.4854 -2.8959 -1.1989
   18SAPC   C13 2273   2.400   6.684  10.814 -0.0196 -1.2717 -0.7564
   18SAPC  H13A 2274   2.454   6.603  10.768  0.7830 -1.1373 -0.0671
   18SAPC  H13B 2275   2.457   6.775  10.804 -0.5680 -0.9855 -1.3699
   18SAPC  H13C 2276   2.394   6.651  10.916 -0.9330 -0.5625 -0.5670
   18SAPC   C14 2277   2.207   6.835  10.788 -0.6849 -0.2675 -0.2187
   18SAPC  H14A 2278   2.269   6.916  10.751 -1.6765  1.3890  1.5798
   18SAPC  H14B 2279   2.116   6.859  10.735 -0.4838 -0.6583 -0.7581
   18SAPC  H14C 2280   2.208   6.848  10.895  1.5714 -1.2536 -0.0614
   18SAPC   C15 2281   2.173   6.596  10.804 -0.0002 -0.2444  0.2059
   18SAPC  H15A 2282   2.153   6.598  10.911 -1.0519  0.4952  0.0160
   18SAPC  H15B 2283   2.087   6.609  10.740 -0.2680 -3.0829 -0.1420
   18SAPC  H15C 2284   2.217   6.501  10.779 -0.8435  0.0654 -2.7933
   18SAPC   C11 2285   2.144   6.716  10.523 -0.2031  0.0445  0.3146
   18SAPC  H11A 2286   2.157   6.718  10.413  2.1453 -1.3805  0.4841
   18SAPC  H11B 2287   2.112   6.819  10.549  0.1162  0.7646 -1.9647
   18SAPC     P 2288   2.047   6.473  10.492  0.0694 -0.3527 -0.5628
   18SAPC   O13 2289   2.183   6.438  10.440 -0.1341  0.5255 -0.0221
   18SAPC   O14 2290   1.993   6.388  10.594 -0.1711  0.4860 -0.8527
   18SAPC   O12 2291   2.038   6.621  10.547 -0.0399 -0.0126  0.2488
   18SAPC   O11 2292   1.944   6.472  10.379  0.1819  0.5238 -0.0460
   18SAPC    C1 2293   1.812   6.530  10.383  0.3667  0.5647  0.1449
   18SAPC    HA 2294   1.806   6.603  10.466  2.3917  2.9811 -1.6888
   18SAPC    HB 2295   1.796   6.587  10.289  0.0237 -1.5827 -1.1763
   18SAPC    C2 2296   1.708   6.416  10.384  0.5645 -0.0631  0.1635
   18SAPC    HS 2297   1.726   6.354  10.475 -2.7859 -0.4368  0.7182
   18SAPC   O21 2298   1.729   6.342  10.257 -0.2819 -0.0209 -0.1648
   18SAPC   C21 2299   1.664   6.233  10.250  0.5611 -0.9323 -0.6244
   18SAPC   O22 2300   1.608   6.177  10.346  0.4014  0.3895 -0.6028
   18SAPC   C22 2301   1.687   6.178  10.109 -0.1695 -0.2483  1.2151
   18SAPC   H2R 2302   1.651   6.259  10.043  1.2573  0.7864  1.6508
   18SAPC   H2S 2303   1.795   6.157  10.092 -0.3901 -0.3717 -0.1818
   18SAPC    C3 2304   1.560   6.479  10.393 -0.0824 -0.4066  0.1099
   18SAPC    HX 2305   1.549   6.530  10.491 -1.7869  3.3256 -1.7959
   18SAPC    HY 2306   1.489   6.394  10.387  0.6882 -1.0212 -0.5491
   18SAPC   O31 2307   1.548   6.578  10.286  0.5356  0.1378  0.5661
   18SAPC   C31 2308   1.502   6.535  10.162 -0.2066 -0.3679 -0.2240
   18SAPC   O32 2309   1.471   6.419  10.134 -0.0188 -0.1115  0.0811
   18SAPC   C32 2310   1.507   6.652  10.069 -0.4255  0.6980 -0.3230
   18SAPC   H2X 2311   1.501   6.608   9.967  3.7072 -1.1687  0.0186
   18SAPC   H2Y 2312   1.613   6.684  10.080 -0.3167  0.0362  0.6775
   18SAPC   C23 2313   1.592   6.064  10.089 -0.1392  0.1743  0.4269
   18SAPC   H3R 2314   1.485   6.081  10.116 -0.1248  2.7236 -0.7858
   18SAPC   H3S 2315   1.621   5.971  10.143 -1.0970  0.6195  1.7506
   18SAPC   C24 2316   1.592   5.991   9.946 -0.5323 -0.0264 -0.5212
   18SAPC   H4R 2317   1.523   5.904   9.954 -1.7292  1.0761  2.6995
   18SAPC   H4S 2318   1.691   5.948   9.919  0.3136  1.7868 -0.4454
   18SAPC   C25 2319   1.543   6.086   9.842  0.4459 -0.2672 -0.2606
   18SAPC   H5R 2320   1.437   6.115   9.849 -0.1245 -1.7678 -2.0082
   18SAPC   C26 2321   1.617   6.146   9.746 -0.3276  0.3134 -0.8543
   18SAPC   H6R 2322   1.565   6.210   9.673 -1.0445  1.1386  0.3496
   18SAPC   C27 2323   1.762   6.116   9.710  0.1848  0.1363 -0.0819
   18SAPC   H7R 2324   1.805   6.106   9.812 -0.8651  0.6216  0.4204
   18SAPC   H7S 2325   1.809   6.208   9.669  0.8040 -0.0723  0.1326
   18SAPC   C28 2326   1.772   5.992   9.614 -0.6678 -0.1397 -0.0654
   18SAPC   H8R 2327   1.773   5.889   9.654  0.6423 -0.5382 -1.0284
   18SAPC   C29 2328   1.789   6.005   9.481 -0.7358  0.0000  0.0662
   18SAPC   H9R 2329   1.811   5.911   9.428 -0.4340  0.9604 -1.5557
   18SAPC  C210 2330   1.822   6.135   9.409  0.0305 -0.4712  0.4464
   18SAPC  H10R 2331   1.931   6.158   9.416 -0.8120  3.9197  2.8516
   18SAPC  H10S 2332   1.769   6.222   9.454 -0.7517  0.0192 -1.3423
   18SAPC  C211 2333   1.790   6.136   9.263 -0.1970  0.0063  0.3428
   18SAPC  H11R 2334   1.696   6.080   9.254  0.4950 -1.5562  2.0503
   18SAPC  C212 2335   1.862   6.164   9.155  0.6671 -0.8567 -0.1511
   18SAPC  H12R 2336   1.811   6.161   9.058  0.6318 -0.9880 -0.1281
   18SAPC  C213 2337   2.000   6.214   9.155 -0.5757 -0.7640  0.1556
   18SAPC  H13R 2338   2.036   6.263   9.248  0.4747  0.7042 -0.9730
   18SAPC  H13S 2339   2.017   6.302   9.089  1.0799 -0.4025  1.0239
   18SAPC  C214 2340   2.106   6.114   9.121 -0.2400 -0.1817 -0.4403
   18SAPC  H14R 2341   2.154   6.066   9.208 -1.0144  2.5214  1.6247
   18SAPC  C215 2342   2.152   6.080   9.003 -0.0680  0.5758  0.5243
   18SAPC  H15R 2343   2.222   5.996   8.993 -2.9638 -1.8856 -0.5005
   18SAPC  C216 2344   2.106   6.152   8.877 -0.3401  0.1366  0.2267
   18SAPC  H16R 2345   2.192   6.199   8.824 -0.4884 -1.3550 -1.4419
   18SAPC  H16S 2346   2.032   6.231   8.900  0.7210  1.0708  0.5124
   18SAPC  C217 2347   2.052   6.065   8.771  0.3566  0.3449 -0.3619
   18SAPC  H17R 2348   1.995   6.116   8.690 -1.2968  0.0775  0.5790
   18SAPC  H17S 2349   1.981   5.991   8.815 -0.3951  0.9534 -0.5443
   18SAPC  C218 2350   2.153   5.981   8.695 -1.2895 -0.2429  0.4412
   18SAPC  H18R 2351   2.201   5.911   8.768  1.7145 -0.1795 -1.2871
   18SAPC  H18S 2352   2.230   6.046   8.649 -0.8759 -0.7304  0.4342
   18SAPC  C219 2353   2.089   5.909   8.583  0.3103  0.2750 -0.3527
   18SAPC  H19R 2354   2.041   5.987   8.519  0.0887 -1.6683 -2.7108
   18SAPC  H19S 2355   2.009   5.844   8.624  1.5065 -1.2032 -0.2651
   18SAPC  C220 2356   2.186   5.827   8.496  0.3165 -0.7530 -0.1154
   18SAPC  H20R 2357   2.121   5.756   8.440  0.1455 -1.2901  0.7556
   18SAPC  H20S 2358   2.262   5.775   8.557  1.0112  0.8317  0.4250
   18SAPC  H20T 2359   2.251   5.888   8.430  1.2212 -1.2761  0.2753
   18SAPC   C33 2360   1.399   6.755  10.106 -0.1269  0.2668  0.6792
   18SAPC   H3X 2361   1.439   6.851  10.068  3.9739 -0.3028  2.9844
   18SAPC   H3Y 2362   1.401   6.778  10.215  1.4129 -0.5208  0.8522
   18SAPC   C34 2363   1.257   6.713  10.062 -0.0730  0.7208  0.1583
   18SAPC   H4X 2364   1.192   6.749  10.144 -1.1911 -0.1548 -0.3221
   18SAPC   H4Y 2365   1.236   6.607  10.038 -0.2302  1.1278 -1.6639
   18SAPC   C35 2366   1.210   6.800   9.948  0.6155 -0.8058 -0.0128
   18SAPC   H5X 2367   1.224   6.907   9.974 -0.8101 -0.2106 -1.5445
   18SAPC   H5Y 2368   1.101   6.790   9.929  0.3440 -0.2138  1.1046
   18SAPC   C36 2369   1.286   6.782   9.816  0.1274  0.2020 -0.0793
   18SAPC   H6X 2370   1.264   6.676   9.790  0.6168 -1.0480  3.9779
   18SAPC   H6Y 2371   1.394   6.794   9.840  0.1234  1.1277 -0.4610
   18SAPC   C37 2372   1.255   6.881   9.701  0.4299  0.2260 -0.8325
   18SAPC   H7X 2373   1.348   6.896   9.643  0.8326 -0.5041 -0.3805
   18SAPC   H7Y 2374   1.219   6.974   9.750 -0.0876  0.0879 -0.9461
   18SAPC   C38 2375   1.144   6.844   9.609 -0.4164  0.5380 -0.5447
   18SAPC   H8X 2376   1.106   6.938   9.563 -2.6533 -0.2709 -0.5082
   18SAPC   H8Y 2377   1.054   6.814   9.667 -0.3952  2.7230  0.7041
   18SAPC   C39 2378   1.180   6.749   9.499  0.0500  0.8912 -0.1951
   18SAPC   H9X 2379   1.199   6.643   9.527 -1.1484  0.2389 -1.7072
   18SAPC   H9Y 2380   1.280   6.783   9.465  0.2739  0.2157 -0.2192
   18SAPC  C310 2381   1.085   6.752   9.377 -0.5884 -0.3518 -0.6398
   18SAPC  H10X 2382   1.076   6.862   9.364 -2.1773 -0.3300  0.3411
   18SAPC  H10Y 2383   0.986   6.708   9.404  0.6714 -2.4332  0.8795
   18SAPC  C311 2384   1.136   6.679   9.259  0.1522 -0.0938  0.0711
   18SAPC  H11X 2385   1.138   6.570   9.281 -1.7621 -0.0398  0.7801
   18SAPC  H11Y 2386   1.237   6.712   9.225 -0.1339  0.0748 -0.6418
   18SAPC  C312 2387   1.039   6.689   9.137  0.0367  0.0911  0.5310
   18SAPC  H12X 2388   1.029   6.796   9.108  1.3905 -0.3823 -2.0096
   18SAPC  H12Y 2389   0.945   6.648   9.180 -0.8405  0.2201 -1.1722
   18SAPC  C313 2390   1.075   6.606   9.017 -0.5004  0.2617 -0.2274
   18SAPC  H13X 2391   1.090   6.502   9.053  2.0877  0.6573  0.0385
   18SAPC  H13Y 2392   1.171   6.651   8.983 -0.0446 -1.9556 -2.1227
   18SAPC  C314 2393   0.970   6.606   8.896  0.7109  0.0865 -0.6197
   18SAPC  H14X 2394   0.870   6.568   8.926  0.5131  1.4189  0.5185
   18SAPC  H14Y 2395   1.019   6.533   8.828  0.6335 -0.6172  0.0769
   18SAPC  C315 2396   0.944   6.747   8.836 -0.2260  0.0153  0.9282
   18SAPC  H15X 2397   1.042   6.798   8.840 -1.3323  2.3422 -0.1092
   18SAPC  H15Y 2398   0.883   6.806   8.908 -1.2796  1.1519 -0.8141
   18SAPC  C316 2399   0.895   6.733   8.685 -0.1196 -0.6339 -0.0587
   18SAPC  H16X 2400   0.805   6.668   8.678 -0.8414  0.0542  1.9915
   18SAPC  H16Y 2401   0.982   6.692   8.630  0.8052  0.3190  0.6518
   18SAPC  C317 2402   0.851   6.865   8.620 -0.0042  0.1852 -0.9013
   18SAPC  H17X 2403   0.925   6.942   8.590  1.0946 -0.9080 -1.0677
   18SAPC  H17Y 2404   0.776   6.904   8.694  0.3148 -0.1972 -0.3715
   18SAPC  C318 2405   0.774   6.829   8.489 -0.1420  0.3619 -0.0572
   18SAPC  H18X 2406   0.708   6.912   8.455 -0.2729  0.3864  0.2596
   18SAPC  H18Y 2407   0.713   6.738   8.502 -1.0288  0.9049 -0.3086
   18SAPC  H18Z 2408   0.852   6.805   8.413  1.2971 -0.6873  1.6874
   19SAPC     N 2409   6.151   2.635  10.572  0.6549  0.4766 -0.1241
   19SAPC   C12 2410   6.179   2.567  10.439  0.4608  0.9536  0.3270
   19SAPC  H12A 2411   6.282   2.574  10.406  0.2304  0.1480 -0.5986
   19SAPC  H12B 2412   6.138   2.622  10.356  1.3866 -0.4384 -1.1056
   19SAPC   C13 2413   6.245   2.587  10.664  0.0063  0.0204 -0.1975
   19SAPC  H13A 2414   6.346   2.607  10.631  0.0419 -1.2709 -0.9405
   19SAPC  H13B 2415   6.228   2.621  10.765 -0.2818  0.2568 -0.3244
   19SAPC  H13C 2416   6.245   2.479  10.670  0.6209  0.0003 -0.4790
   19SAPC   C14 2417   6.163   2.776  10.547  0.0349 -0.8392  0.5634
   19SAPC  H14A 2418   6.145   2.835  10.635  0.7114 -0.3549  0.3787
   19SAPC  H14B 2419   6.255   2.808  10.502 -0.6708  0.8284  0.2308
   19SAPC  H14C 2420   6.085   2.813  10.482 -0.5596 -1.8902  0.6492
   19SAPC   C15 2421   6.013   2.618  10.633  0.3288  0.0364  0.5534
   19SAPC  H15A 2422   6.001   2.648  10.736 -0.2582 -0.5377  0.6596
   19SAPC  H15B 2423   5.945   2.666  10.564  0.2616 -0.8310  0.0059
   19SAPC  H15C 2424   5.994   2.512  10.639  0.3606  0.1279  3.2079
   19SAPC   C11 2425   6.133   2.420  10.414  0.2576  0.2266  0.4144
   19SAPC  H11A 2426   6.144   2.395  10.306  3.1596 -2.3863  1.1755
   19SAPC  H11B 2427   6.025   2.409  10.440  0.7346  0.2202  2.6210
   19SAPC     P 2428   6.326   2.247  10.449  0.4207  0.0466  0.4780
   19SAPC   O13 2429   6.449   2.326  10.472 -0.5647  1.1414  0.0854
   19SAPC   O14 2430   6.318   2.116  10.514 -0.8303 -0.0305 -0.2303
   19SAPC   O12 2431   6.201   2.328  10.501 -0.1125  0.2275  0.3421
   19SAPC   O11 2432   6.301   2.217  10.296 -0.0942 -0.2852 -0.1987
   19SAPC    C1 2433   6.401   2.134  10.225 -0.0612  0.0191 -0.6384
   19SAPC    HA 2434   6.384   2.157  10.118 -1.7993 -0.9927 -0.6115
   19SAPC    HB 2435   6.508   2.157  10.243  0.0012 -1.7763  1.7873
   19SAPC    C2 2436   6.390   1.979  10.259  0.6485 -0.1108 -0.0384
   19SAPC    HS 2437   6.406   1.960  10.367  0.3818 -1.7669 -0.2739
   19SAPC   O21 2438   6.490   1.902  10.182 -0.4182  0.4876 -0.1000
   19SAPC   C21 2439   6.510   1.780  10.206  0.4324 -0.3805  0.3144
   19SAPC   O22 2440   6.454   1.718  10.296 -1.1128  0.3298  0.1491
   19SAPC   C22 2441   6.615   1.732  10.115 -0.3466  0.8494  0.4302
   19SAPC   H2R 2442   6.704   1.799  10.117  0.9282 -0.7793 -0.2530
   19SAPC   H2S 2443   6.648   1.634  10.155 -1.6380  0.2298  0.0153
   19SAPC    C3 2444   6.252   1.930  10.215 -0.0196  0.3437 -0.7620
   19SAPC    HX 2445   6.181   1.992  10.274  0.1198  1.3617 -1.6362
   19SAPC    HY 2446   6.228   1.828  10.253  0.5073  0.3394 -0.4295
   19SAPC   O31 2447   6.216   1.960  10.081  0.0729  0.3754  0.0626
   19SAPC   C31 2448   6.231   1.869   9.992 -0.4784  0.7984 -0.5455
   19SAPC   O32 2449   6.223   1.750  10.010 -0.5742 -0.5219 -0.0268
   19SAPC   C32 2450   6.231   1.937   9.855 -1.4072 -0.2051  0.2429
   19SAPC   H2X 2451   6.314   2.011   9.860 -1.0251 -0.5356 -0.9207
   19SAPC   H2Y 2452   6.137   1.991   9.829 -0.4590  1.1901 -0.4155
   19SAPC   C23 2453   6.549   1.716   9.972 -1.3852  0.1129 -0.8984
   19SAPC   H3R 2454   6.517   1.817   9.938  0.0728  0.8461 -0.1847
   19SAPC   H3S 2455   6.468   1.640   9.979 -0.7585 -0.7607 -2.5749
   19SAPC   C24 2456   6.649   1.662   9.871 -0.2582  0.6094  0.3622
   19SAPC   H4R 2457   6.749   1.711   9.872 -0.3096  0.7413 -0.5233
   19SAPC   H4S 2458   6.599   1.680   9.774 -1.1122  0.5043  0.7727
   19SAPC   C25 2459   6.679   1.519   9.894 -1.0857  0.2464 -0.5717
   19SAPC   H5R 2460   6.718   1.482   9.990  1.2534  1.5612 -0.9424
   19SAPC   C26 2461   6.673   1.430   9.794  0.2722 -0.1645 -0.5695
   19SAPC   H6R 2462   6.704   1.326   9.813  3.2129  0.3628 -1.9968
   19SAPC   C27 2463   6.623   1.437   9.659 -0.0371 -0.0125  0.8842
   19SAPC   H7R 2464   6.647   1.345   9.602 -0.7575  0.0476  0.4824
   19SAPC   H7S 2465   6.667   1.522   9.602 -1.8111 -0.8369 -1.8608
   19SAPC   C28 2466   6.472   1.457   9.650 -0.5426 -0.0657 -0.6360
   19SAPC   H8R 2467   6.419   1.465   9.746 -2.6206 -1.0748 -1.6246
   19SAPC   C29 2468   6.408   1.460   9.536  0.0287 -0.5439  1.1747
   19SAPC   H9R 2469   6.300   1.480   9.535 -0.0150 -0.7900  0.6916
   19SAPC  C210 2470   6.475   1.438   9.403 -0.5493 -0.6662 -0.9517
   19SAPC  H10R 2471   6.572   1.386   9.408  0.1376  0.6240 -0.3102
   19SAPC  H10S 2472   6.482   1.540   9.360 -1.3122 -0.7615 -1.3297
   19SAPC  C211 2473   6.380   1.352   9.329  0.1927 -0.0149  0.6794
   19SAPC  H11R 2474   6.326   1.283   9.395 -3.4124  2.6800  0.8794
   19SAPC  C212 2475   6.332   1.372   9.204 -0.4074  0.8683 -0.1066
   19SAPC  H12R 2476   6.262   1.296   9.167 -0.2284  0.5694  0.1738
   19SAPC  C213 2477   6.371   1.480   9.111  0.5622 -0.3136 -0.1714
   19SAPC  H13R 2478   6.414   1.565   9.169  1.2575 -0.3895 -0.5669
   19SAPC  H13S 2479   6.282   1.521   9.057 -0.6919 -2.8522 -0.2017
   19SAPC  C214 2480   6.459   1.420   9.001 -0.1837 -0.0359 -0.2951
   19SAPC  H14R 2481   6.566   1.426   9.023 -0.2907 -1.2231  0.6956
   19SAPC  C215 2482   6.411   1.359   8.888 -0.8554 -0.0122  0.1717
   19SAPC  H15R 2483   6.480   1.313   8.816 -0.6934 -1.2865  1.1075
   19SAPC  C216 2484   6.266   1.342   8.851  0.1973  0.6333  0.1123
   19SAPC  H16R 2485   6.194   1.399   8.913  0.1559  0.5666  0.1263
   19SAPC  H16S 2486   6.251   1.234   8.875  0.6459  0.7876  1.1307
   19SAPC  C217 2487   6.238   1.369   8.701  0.0591 -0.3151  0.0271
   19SAPC  H17R 2488   6.308   1.315   8.634  0.3186  1.2809 -1.0369
   19SAPC  H17S 2489   6.258   1.477   8.687 -1.6453  0.2618  1.7256
   19SAPC  C218 2490   6.101   1.328   8.654  1.1290 -0.4541 -0.2084
   19SAPC  H18R 2491   6.019   1.395   8.686  0.8549 -0.4880 -0.8254
   19SAPC  H18S 2492   6.071   1.223   8.673 -2.0186  0.5097  0.6965
   19SAPC  C219 2493   6.084   1.335   8.495 -0.2410 -0.8163 -0.5031
   19SAPC  H19R 2494   6.167   1.274   8.453  1.7078 -1.5398  3.8431
   19SAPC  H19S 2495   6.090   1.444   8.474  2.5302 -0.3459  1.9440
   19SAPC  C220 2496   5.948   1.277   8.459  1.2720  0.2304 -0.9238
   19SAPC  H20R 2497   5.959   1.168   8.475 -1.0652  0.0030 -0.5499
   19SAPC  H20S 2498   5.926   1.300   8.352  0.3838 -3.2142 -1.6170
   19SAPC  H20T 2499   5.864   1.303   8.526  1.5562 -1.7779  0.2931
   19SAPC   C33 2500   6.265   1.838   9.742  0.1122  0.1494  0.2793
   19SAPC   H3X 2501   6.186   1.760   9.744  2.3753 -2.4604 -2.2236
   19SAPC   H3Y 2502   6.361   1.788   9.768  0.5148  1.2193  0.9110
   19SAPC   C34 2503   6.265   1.892   9.593 -0.5841  0.8598 -0.0482
   19SAPC   H4X 2504   6.363   1.944   9.586 -0.2735  0.9717  3.4749
   19SAPC   H4Y 2505   6.187   1.971   9.590 -0.8645  0.5711 -0.3776
   19SAPC   C35 2506   6.252   1.791   9.479  1.2441 -0.6073 -0.5556
   19SAPC   H5X 2507   6.145   1.761   9.475  0.0857  2.7555  0.9845
   19SAPC   H5Y 2508   6.318   1.707   9.509  0.7657 -0.9994 -0.5951
   19SAPC   C36 2509   6.297   1.847   9.343 -0.2650  0.2753 -0.0676
   19SAPC   H6X 2510   6.406   1.825   9.348 -0.5257 -0.9105  0.6556
   19SAPC   H6Y 2511   6.300   1.958   9.342  4.3892  0.3717 -0.5499
   19SAPC   C37 2512   6.210   1.798   9.232  0.6715 -0.0617 -0.1543
   19SAPC   H7X 2513   6.104   1.817   9.258  0.9923 -1.4259  2.4741
   19SAPC   H7Y 2514   6.213   1.687   9.224  0.9101 -0.1802  1.3977
   19SAPC   C38 2515   6.236   1.848   9.086  0.4830 -0.3370 -0.0107
   19SAPC   H8X 2516   6.341   1.831   9.055  0.3280 -0.9800 -0.2051
   19SAPC   H8Y 2517   6.238   1.958   9.099  0.7297 -0.1795 -1.2053
   19SAPC   C39 2518   6.138   1.798   8.989 -0.1558  0.1809  0.2956
   19SAPC   H9X 2519   6.047   1.851   9.026 -0.7195  1.3505 -2.5434
   19SAPC   H9Y 2520   6.131   1.687   8.992 -0.1383  0.1661 -0.1858
   19SAPC  C310 2521   6.161   1.852   8.847  1.2627  0.0880  0.0938
   19SAPC  H10X 2522   6.133   1.959   8.840  0.9276 -0.0899 -2.0717
   19SAPC  H10Y 2523   6.077   1.807   8.790  0.6288  0.5597  0.6392
   19SAPC  C311 2524   6.293   1.814   8.780 -0.9747  0.5765  1.1440
   19SAPC  H11X 2525   6.319   1.706   8.779  0.3666  0.7912 -2.2092
   19SAPC  H11Y 2526   6.377   1.877   8.816 -0.6663  0.7416  0.1673
   19SAPC  C312 2527   6.286   1.836   8.631 -0.0101 -0.6938  0.3792
   19SAPC  H12X 2528   6.304   1.943   8.607  1.7872 -0.8443  0.9062
   19SAPC  H12Y 2529   6.187   1.815   8.586  1.0595 -1.5158 -1.7174
   19SAPC  C313 2530   6.391   1.760   8.547  0.0821  0.6458  0.5016
   19SAPC  H13X 2531   6.367   1.652   8.535 -0.8246  0.9897 -1.1032
   19SAPC  H13Y 2532   6.490   1.769   8.597  0.6068 -2.5789  0.2591
   19SAPC  C314 2533   6.388   1.798   8.399 -0.0893  0.3520 -0.4503
   19SAPC  H14X 2534   6.374   1.906   8.376 -0.4343  0.2983 -0.4998
   19SAPC  H14Y 2535   6.295   1.752   8.360 -0.4704  1.7637 -1.2628
   19SAPC  C315 2536   6.502   1.750   8.317  0.4166  0.5943 -0.5689
   19SAPC  H15X 2537   6.480   1.749   8.208  1.4209  3.0808 -0.8690
   19SAPC  H15Y 2538   6.508   1.643   8.346 -0.8388  0.6780  0.0632
   19SAPC  C316 2539   6.633   1.836   8.333 -0.3158  0.5262  0.2178
   19SAPC  H16X 2540   6.659   1.858   8.439  2.5072 -0.8408 -0.0838
   19SAPC  H16Y 2541   6.623   1.931   8.277 -1.7147 -0.0261 -0.5088
   19SAPC  C317 2542   6.758   1.762   8.277  0.0592 -0.9190  0.5769
   19SAPC  H17X 2543   6.741   1.746   8.168  0.9341  1.1894  0.0882
   19SAPC  H17Y 2544   6.775   1.660   8.318 -1.4275 -1.4881 -0.1457
   19SAPC  C318 2545   6.883   1.843   8.301 -0.4758 -0.5326  0.0374
   19SAPC  H18X 2546   6.909   1.850   8.409 -2.8768  0.5021  0.6008
   19SAPC  H18Y 2547   6.864   1.946   8.265  2.2285 -0.2321 -0.8062
   19SAPC  H18Z 2548   6.969   1.815   8.236  0.5176 -1.0035  1.4852
   20SAPC     N 2549   2.403   5.848  11.270  0.4565  0.4048  1.3230
   20SAPC   C12 2550   2.404   5.942  11.153 -0.2813  0.0934  0.1091
   20SAPC  H12A 2551   2.496   5.999  11.156 -0.6026  0.6569 -0.4171
   20SAPC  H12B 2552   2.321   6.011  11.146 -1.6067 -1.4842 -0.0418
   20SAPC   C13 2553   2.402   5.932  11.396  0.3132 -0.2608 -0.8396
   20SAPC  H13A 2554   2.479   6.008  11.401  1.3489 -1.3715  1.5638
   20SAPC  H13B 2555   2.303   5.975  11.389 -0.4732 -2.0019 -0.8425
   20SAPC  H13C 2556   2.404   5.867  11.482  1.8951 -1.0616 -1.4396
   20SAPC   C14 2557   2.281   5.760  11.260  0.0114 -0.0019 -0.3363
   20SAPC  H14A 2558   2.279   5.673  11.325 -1.4989 -2.3465 -3.2656
   20SAPC  H14B 2559   2.194   5.822  11.271  0.5959  0.8962 -0.6405
   20SAPC  H14C 2560   2.275   5.707  11.166 -0.2591 -0.3934 -0.0995
   20SAPC   C15 2561   2.522   5.757  11.265 -0.2922  0.1077 -0.3901
   20SAPC  H15A 2562   2.539   5.699  11.355 -0.5200 -2.6182 -2.0063
   20SAPC  H15B 2563   2.525   5.695  11.177 -2.0549  0.4991 -0.7672
   20SAPC  H15C 2564   2.605   5.826  11.265 -1.0637  1.0649 -0.1206
   20SAPC   C11 2565   2.416   5.890  11.011 -0.0349 -0.1106  0.2587
   20SAPC  H11A 2566   2.394   5.980  10.950  1.4927  0.6229  0.7413
   20SAPC  H11B 2567   2.335   5.817  10.990 -0.4642 -0.2366  2.1044
   20SAPC     P 2568   2.664   5.912  10.955  0.0169 -0.2908  0.1964
   20SAPC   O13 2569   2.689   5.989  11.076 -0.1136 -0.3345 -0.5995
   20SAPC   O14 2570   2.782   5.832  10.902 -0.0157 -0.0100 -0.9968
   20SAPC   O12 2571   2.537   5.821  10.976  0.6082  0.3728  0.0214
   20SAPC   O11 2572   2.616   6.017  10.849  0.5928 -0.1503  0.2338
   20SAPC    C1 2573   2.555   5.979  10.725  0.2874  0.4565  0.0011
   20SAPC    HA 2574   2.510   5.877  10.726 -3.8929  2.0936 -0.0506
   20SAPC    HB 2575   2.478   6.056  10.702  0.1852  0.3163 -0.1307
   20SAPC    C2 2576   2.651   5.991  10.594 -0.0763  0.6749  0.1284
   20SAPC    HS 2577   2.691   6.094  10.599 -0.7798  1.0512 -1.5149
   20SAPC   O21 2578   2.559   5.977  10.477 -0.3557 -0.5052 -0.2493
   20SAPC   C21 2579   2.606   6.042  10.373 -0.1077 -0.1710  0.2160
   20SAPC   O22 2580   2.705   6.112  10.369 -0.2118  0.3754 -0.2593
   20SAPC   C22 2581   2.500   6.022  10.256 -0.5224 -0.0893 -0.1545
   20SAPC   H2R 2582   2.473   5.914  10.256 -1.5466  0.1242  1.8700
   20SAPC   H2S 2583   2.405   6.073  10.280 -2.1470 -3.1589  0.4144
   20SAPC    C3 2584   2.759   5.884  10.595  0.2347  0.3851 -0.3161
   20SAPC    HX 2585   2.706   5.793  10.631 -1.6080  0.8471 -1.7039
   20SAPC    HY 2586   2.842   5.919  10.660  2.7562  1.0299 -3.6120
   20SAPC   O31 2587   2.812   5.866  10.460  0.0684 -0.6972 -0.1962
   20SAPC   C31 2588   2.840   5.745  10.421  0.1038  0.2472  0.3165
   20SAPC   O32 2589   2.817   5.638  10.481 -0.4389 -0.5903 -0.3496
   20SAPC   C32 2590   2.899   5.748  10.274  0.8656  0.7520  0.2649
   20SAPC   H2X 2591   2.880   5.648  10.231  2.1691  0.6939 -0.2180
   20SAPC   H2Y 2592   3.008   5.770  10.284  1.2394 -0.7299 -0.3368
   20SAPC   C23 2593   2.563   6.080  10.128 -0.3634 -0.4488 -0.2150
   20SAPC   H3R 2594   2.670   6.056  10.114 -0.8039 -2.0810 -0.9665
   20SAPC   H3S 2595   2.547   6.189  10.140  0.5406 -0.1940 -1.1998
   20SAPC   C24 2596   2.490   6.037  10.003  0.0528  0.2959  0.1641
   20SAPC   H4R 2597   2.502   5.928   9.985  0.6879  0.5193 -0.8386
   20SAPC   H4S 2598   2.543   6.098   9.927  2.7883 -0.8968  0.9861
   20SAPC   C25 2599   2.342   6.046  10.015  0.4906  0.1407  0.8853
   20SAPC   H5R 2600   2.303   5.963  10.077  1.1700 -1.0492 -0.2407
   20SAPC   C26 2601   2.256   6.132   9.959  0.9095 -0.1097 -0.6680
   20SAPC   H6R 2602   2.152   6.112   9.990  1.2994  1.5941  2.1270
   20SAPC   C27 2603   2.279   6.256   9.872  0.3070 -0.2236 -0.0556
   20SAPC   H7R 2604   2.383   6.262   9.832 -0.2829  1.5740 -1.4935
   20SAPC   H7S 2605   2.272   6.345   9.938  0.7786 -0.3843  0.2188
   20SAPC   C28 2606   2.180   6.261   9.759 -0.1358  0.1948 -0.5384
   20SAPC   H8R 2607   2.078   6.272   9.798  0.6586  4.2725  0.7758
   20SAPC   C29 2608   2.201   6.227   9.635 -0.0068 -0.1627 -0.2000
   20SAPC   H9R 2609   2.117   6.248   9.568 -2.0875  3.7807  3.1895
   20SAPC  C210 2610   2.317   6.179   9.556  0.8665  0.2004 -1.1276
   20SAPC  H10R 2611   2.403   6.154   9.622 -0.3251 -1.0674  0.0036
   20SAPC  H10S 2612   2.348   6.257   9.483 -0.3815  0.4010 -1.4777
   20SAPC  C211 2613   2.291   6.052   9.478 -0.1716 -0.5485  0.3032
   20SAPC  H11R 2614   2.188   6.018   9.463 -0.6705  0.8131  0.5566
   20SAPC  C212 2615   2.383   5.985   9.411  0.4689  0.0397  0.6407
   20SAPC  H12R 2616   2.358   5.888   9.365 -0.0483  0.5425 -0.1573
   20SAPC  C213 2617   2.535   6.019   9.409  0.8763 -0.4006 -0.4591
   20SAPC  H13R 2618   2.591   5.987   9.499  1.7589 -0.0229 -0.8527
   20SAPC  H13S 2619   2.539   6.130   9.397  0.7697 -0.6111 -2.9386
   20SAPC  C214 2620   2.601   5.948   9.292  0.5965  0.0545 -0.2832
   20SAPC  H14R 2621   2.663   5.860   9.312  0.2283 -0.2655 -0.5416
   20SAPC  C215 2622   2.610   5.990   9.164 -0.0055 -0.1119  0.1575
   20SAPC  H15R 2623   2.665   5.926   9.094  0.4655  0.2687  0.1739
   20SAPC  C216 2624   2.553   6.121   9.122  0.3588 -0.2153 -0.6686
   20SAPC  H16R 2625   2.598   6.212   9.168 -0.0312  0.5183 -1.6977
   20SAPC  H16S 2626   2.446   6.134   9.149  0.5906 -0.9096  0.6484
   20SAPC  C217 2627   2.567   6.141   8.966  0.6841 -0.1233  0.7046
   20SAPC  H17R 2628   2.672   6.164   8.940  0.1252  0.8047 -0.8427
   20SAPC  H17S 2629   2.509   6.232   8.938  0.3286 -0.4714  0.3057
   20SAPC  C218 2630   2.518   6.029   8.876 -0.2019  0.4710 -0.1014
   20SAPC  H18R 2631   2.418   5.993   8.908  0.5899 -2.2356 -0.4605
   20SAPC  H18S 2632   2.580   5.939   8.895 -0.0226  0.0115 -2.6148
   20SAPC  C219 2633   2.547   6.062   8.729  0.7617 -0.1368  0.1902
   20SAPC  H19R 2634   2.656   6.085   8.719  0.3731  1.3592 -0.9510
   20SAPC  H19S 2635   2.486   6.148   8.694  1.5780  0.1161 -0.6704
   20SAPC  C220 2636   2.511   5.941   8.644 -0.5945 -0.3909 -1.0327
   20SAPC  H20R 2637   2.490   5.979   8.542 -0.0664  0.6364 -0.7747
   20SAPC  H20S 2638   2.427   5.880   8.681 -1.1559  0.2686 -1.1887
   20SAPC  H20T 2639   2.598   5.872   8.650 -2.1925 -2.3791 -0.0354
   20SAPC   C33 2640   2.846   5.861  10.182  0.1610 -0.2865 -0.6859
   20SAPC   H3X 2641   2.875   5.952  10.240  0.3084 -0.8581  0.1569
   20SAPC   H3Y 2642   2.735   5.857  10.170 -0.0138 -4.7421  0.7266
   20SAPC   C34 2643   2.925   5.861  10.051  0.3265 -0.2737 -0.2522
   20SAPC   H4X 2644   2.994   5.776  10.033  1.8847  1.5303 -3.6323
   20SAPC   H4Y 2645   2.979   5.957  10.038 -1.0699  0.4494 -0.9699
   20SAPC   C35 2646   2.836   5.851   9.928  0.5823  0.0778  0.8206
   20SAPC   H5X 2647   2.756   5.929   9.924 -0.3616 -0.8805  0.4830
   20SAPC   H5Y 2648   2.781   5.755   9.936  0.5964  0.1137  1.3619
   20SAPC   C36 2649   2.908   5.873   9.790 -0.1590 -1.2570 -0.6395
   20SAPC   H6X 2650   3.000   5.811   9.782  0.4687 -0.6493  1.1906
   20SAPC   H6Y 2651   2.940   5.979   9.781 -0.0508 -1.3737 -1.7104
   20SAPC   C37 2652   2.823   5.854   9.664 -0.0167 -0.3030  0.3907
   20SAPC   H7X 2653   2.736   5.923   9.661  0.7005  0.7130  1.8018
   20SAPC   H7Y 2654   2.794   5.747   9.656 -0.8234 -0.0851  0.3087
   20SAPC   C38 2655   2.906   5.870   9.534  0.0621 -0.5335  0.2950
   20SAPC   H8X 2656   2.836   5.847   9.450  1.3528 -1.0787 -0.6709
   20SAPC   H8Y 2657   2.992   5.799   9.531  0.8975  0.3603  2.0057
   20SAPC   C39 2658   2.967   6.009   9.520 -0.0026  0.2960 -1.2353
   20SAPC   H9X 2659   3.033   6.041   9.604 -2.0892  2.6855 -0.3747
   20SAPC   H9Y 2660   2.893   6.091   9.514  0.3147  0.6441 -0.4982
   20SAPC  C310 2661   3.052   6.026   9.396 -0.3926 -0.2523  0.0591
   20SAPC  H10X 2662   3.123   5.940   9.386 -0.1105  0.0299 -0.4303
   20SAPC  H10Y 2663   3.114   6.118   9.398  0.8889 -1.1027  1.5351
   20SAPC  C311 2664   2.961   6.051   9.273 -0.7203  0.2427  0.2486
   20SAPC  H11X 2665   2.909   6.149   9.277 -1.6157 -0.1075 -1.7872
   20SAPC  H11Y 2666   2.882   5.974   9.264  0.1329 -0.9587  2.3715
   20SAPC  C312 2667   3.056   6.062   9.148 -0.1985  0.1928 -0.4155
   20SAPC  H12X 2668   3.118   5.971   9.136  1.1235  0.8230  1.2566
   20SAPC  H12Y 2669   3.127   6.147   9.158 -1.2588  1.2817 -1.7474
   20SAPC  C313 2670   2.976   6.109   9.022 -1.0794  0.3596  0.5377
   20SAPC  H13X 2671   2.937   6.213   9.027  0.5793  1.0583 -0.2748
   20SAPC  H13Y 2672   2.898   6.030   9.023  0.2215 -0.9579  2.1369
   20SAPC  C314 2673   3.046   6.088   8.884 -0.2687 -0.7806  0.4064
   20SAPC  H14X 2674   3.087   5.984   8.879 -1.5296 -1.2508 -0.5602
   20SAPC  H14Y 2675   3.121   6.169   8.874 -1.8839  0.4289 -3.9077
   20SAPC  C315 2676   2.950   6.122   8.767 -0.3897 -0.3608  0.2625
   20SAPC  H15X 2677   2.942   6.232   8.755  0.5902 -0.3145 -0.0595
   20SAPC  H15Y 2678   2.849   6.082   8.790  0.1673 -2.1035 -0.1683
   20SAPC  C316 2679   2.997   6.077   8.627 -0.6585  0.1408  0.2906
   20SAPC  H16X 2680   2.983   5.967   8.632 -1.9399  0.2415 -0.5904
   20SAPC  H16Y 2681   3.100   6.108   8.601 -0.5098  0.8710  1.6229
   20SAPC  C317 2682   2.904   6.112   8.510 -0.3082  0.3274  0.1059
   20SAPC  H17X 2683   2.875   6.220   8.515 -0.4070  0.2905  0.3201
   20SAPC  H17Y 2684   2.812   6.057   8.536 -0.3319 -0.6502 -1.8734
   20SAPC  C318 2685   2.952   6.081   8.369 -0.3961 -0.3626 -0.4980
   20SAPC  H18X 2686   2.997   5.980   8.357 -0.1895 -0.2289 -0.8423
   20SAPC  H18Y 2687   3.025   6.154   8.330 -0.9411 -0.1264 -1.0950
   20SAPC  H18Z 2688   2.862   6.083   8.304 -1.4521 -2.4638  0.7962
   21SAPC     N 2689   1.583   5.109  11.168  0.1158 -0.9091  0.3323
   21SAPC   C12 2690   1.718   5.154  11.180  0.7906 -0.5447 -0.1954
   21SAPC  H12A 2691   1.764   5.099  11.260 -0.3710  0.4455  1.1944
   21SAPC  H12B 2692   1.715   5.241  11.243 -0.4109  0.0331 -1.0019
   21SAPC   C13 2693   1.509   5.218  11.094 -0.6771  0.2494 -0.1119
   21SAPC  H13A 2694   1.560   5.253  11.006 -2.3850 -0.4786 -1.4578
   21SAPC  H13B 2695   1.413   5.183  11.058 -0.2349 -0.6560 -0.4380
   21SAPC  H13C 2696   1.483   5.301  11.157 -0.7305 -0.7742  1.2680
   21SAPC   C14 2697   1.586   4.980  11.094 -0.2530  0.6573  0.0059
   21SAPC  H14A 2698   1.638   4.991  11.001  1.0149  2.4281  0.8829
   21SAPC  H14B 2699   1.627   4.901  11.155  1.1114  0.0702 -1.5964
   21SAPC  H14C 2700   1.486   4.941  11.078  0.0315 -0.1959  0.2110
   21SAPC   C15 2701   1.515   5.094  11.293  0.7382 -0.2037 -0.8233
   21SAPC  H15A 2702   1.579   5.051  11.368  1.1215  1.4862 -0.1376
   21SAPC  H15B 2703   1.477   5.186  11.336 -2.2901 -2.1030  1.0144
   21SAPC  H15C 2704   1.432   5.026  11.276 -1.6090  2.0022  0.9927
   21SAPC   C11 2705   1.792   5.198  11.048  0.2582  0.7837 -0.2619
   21SAPC  H11A 2706   1.892   5.233  11.082  0.0796  0.9106  0.1357
   21SAPC  H11B 2707   1.743   5.287  11.003 -0.5341 -0.0318 -1.0573
   21SAPC     P 2708   1.917   5.101  10.843  0.3291 -0.0755 -0.0340
   21SAPC   O13 2709   2.024   5.192  10.876  0.3964 -0.6352 -0.1690
   21SAPC   O14 2710   1.957   4.961  10.804  0.8259 -0.4640 -0.5936
   21SAPC   O12 2711   1.807   5.094  10.954  0.3515  0.4306  0.1976
   21SAPC   O11 2712   1.836   5.172  10.725  0.5886 -0.2154  0.3831
   21SAPC    C1 2713   1.720   5.109  10.665  1.1760  0.5402  0.2332
   21SAPC    HA 2714   1.759   5.013  10.623  1.9930  1.0293 -0.1538
   21SAPC    HB 2715   1.643   5.096  10.743  0.8402  0.1572 -0.1518
   21SAPC    C2 2716   1.655   5.191  10.551  0.0636  0.6620  0.1315
   21SAPC    HS 2717   1.555   5.217  10.591  1.0661  2.5792  1.5363
   21SAPC   O21 2718   1.646   5.110  10.435  0.3201 -0.8188 -0.1320
   21SAPC   C21 2719   1.577   4.997  10.448  0.1295  0.4718  0.3690
   21SAPC   O22 2720   1.510   4.972  10.551 -0.4635  0.0214  0.4891
   21SAPC   C22 2721   1.582   4.914  10.319 -0.6589  0.2498  0.1666
   21SAPC   H2R 2722   1.590   4.980  10.230 -2.3680 -2.4773 -2.2015
   21SAPC   H2S 2723   1.675   4.853  10.312 -0.5356  0.4140  0.3714
   21SAPC    C3 2724   1.741   5.325  10.532  0.2055  0.3783 -0.2941
   21SAPC    HX 2725   1.840   5.287  10.499  0.4676  0.1125  0.7636
   21SAPC    HY 2726   1.742   5.360  10.638  1.5443 -1.4329  0.3424
   21SAPC   O31 2727   1.669   5.414  10.444 -0.0230  0.2811 -0.3522
   21SAPC   C31 2728   1.711   5.410  10.324 -0.3161  0.2677  0.3847
   21SAPC   O32 2729   1.813   5.349  10.285 -0.2178 -0.6949 -0.2797
   21SAPC   C32 2730   1.621   5.502  10.239 -0.6138  0.6134  0.2915
   21SAPC   H2X 2731   1.613   5.604  10.281 -0.2520  0.3691  0.9795
   21SAPC   H2Y 2732   1.519   5.457  10.245 -0.2595 -0.0287  2.9266
   21SAPC   C23 2733   1.456   4.828  10.316  0.0588  0.0401 -0.6400
   21SAPC   H3R 2734   1.361   4.878  10.344 -2.0517 -2.2116 -3.1508
   21SAPC   H3S 2735   1.467   4.744  10.388 -0.8380  0.9310  0.5820
   21SAPC   C24 2736   1.419   4.758  10.184 -0.1616 -0.5104  0.2812
   21SAPC   H4R 2737   1.320   4.710  10.197 -0.3186 -0.1524  0.4259
   21SAPC   H4S 2738   1.489   4.672  10.175  0.3626  0.0560 -1.5955
   21SAPC   C25 2739   1.424   4.849  10.059 -0.7316  0.3486 -0.6002
   21SAPC   H5R 2740   1.334   4.910  10.043 -2.8588 -3.0689 -3.3265
   21SAPC   C26 2741   1.526   4.868   9.966  0.0119  0.0794 -0.7767
   21SAPC   H6R 2742   1.517   4.955   9.898  1.1311  1.1333  0.3665
   21SAPC   C27 2743   1.655   4.798   9.959 -0.1606  0.7189  0.1487
   21SAPC   H7R 2744   1.677   4.770   9.854 -2.2721 -0.0000 -0.1484
   21SAPC   H7S 2745   1.644   4.703  10.015 -0.4939  1.2259  0.9660
   21SAPC   C28 2746   1.767   4.879  10.011 -0.2107 -0.0223  0.3594
   21SAPC   H8R 2747   1.790   4.864  10.117  0.1153 -2.5114 -0.0085
   21SAPC   C29 2748   1.834   4.972   9.942 -0.6636 -0.0995 -0.3854
   21SAPC   H9R 2749   1.908   5.025  10.003 -0.5900 -0.2532 -0.3405
   21SAPC  C210 2750   1.829   5.009   9.800 -0.6840  0.2538  0.1062
   21SAPC  H10R 2751   1.820   4.916   9.740 -1.9095  0.7497 -0.5075
   21SAPC  H10S 2752   1.928   5.047   9.766 -0.2642 -1.6492 -0.9026
   21SAPC  C211 2753   1.717   5.098   9.768  0.1502 -0.0057 -0.5093
   21SAPC  H11R 2754   1.702   5.184   9.835 -0.6776 -1.3540  1.1073
   21SAPC  C212 2755   1.620   5.060   9.683  0.0777 -0.8583 -0.0651
   21SAPC  H12R 2756   1.531   5.123   9.679  2.2466  2.3896 -1.8234
   21SAPC  C213 2757   1.618   4.937   9.606  0.7286 -0.3459 -0.1867
   21SAPC  H13R 2758   1.629   4.850   9.675  0.1965 -1.2566 -1.2220
   21SAPC  H13S 2759   1.702   4.945   9.534 -0.4259  0.3920 -1.5068
   21SAPC  C214 2760   1.490   4.915   9.532 -0.7057  0.4086  0.1701
   21SAPC  H14R 2761   1.403   4.872   9.583 -0.7569 -0.5913 -0.7305
   21SAPC  C215 2762   1.466   4.947   9.405 -0.0610  0.2044  0.1227
   21SAPC  H15R 2763   1.368   4.916   9.366  0.3498 -1.0607  0.0385
   21SAPC  C216 2764   1.559   5.010   9.302  0.2111 -0.4741  0.1099
   21SAPC  H16R 2765   1.559   4.948   9.210 -0.5479  0.0520 -0.2544
   21SAPC  H16S 2766   1.664   5.017   9.338  0.0065 -3.5281  1.6047
   21SAPC  C217 2767   1.513   5.152   9.289 -0.1065 -0.6170 -0.7821
   21SAPC  H17R 2768   1.519   5.205   9.387  0.3979  1.2012 -1.7459
   21SAPC  H17S 2769   1.404   5.160   9.274 -0.2205 -0.9410 -0.1551
   21SAPC  C218 2770   1.579   5.238   9.177 -0.4981 -0.2233 -0.1178
   21SAPC  H18R 2771   1.689   5.248   9.189 -0.0823 -0.3602 -3.1614
   21SAPC  H18S 2772   1.538   5.342   9.173  0.0831  0.0005 -0.4018
   21SAPC  C219 2773   1.548   5.172   9.041 -0.0955 -0.4314  0.2175
   21SAPC  H19R 2774   1.439   5.156   9.026 -0.5724  1.9431  0.8226
   21SAPC  H19S 2775   1.599   5.073   9.036  0.7713  0.0331 -0.4111
   21SAPC  C220 2776   1.582   5.255   8.918  0.5663  0.4074  0.0412
   21SAPC  H20R 2777   1.690   5.282   8.908  1.0141 -1.2851  0.0670
   21SAPC  H20S 2778   1.533   5.354   8.926  1.0308  0.5827  0.8579
   21SAPC  H20T 2779   1.537   5.212   8.826 -4.2601  0.7364  1.9840
   21SAPC   C33 2780   1.679   5.511  10.096 -0.2247 -0.1882 -0.4953
   21SAPC   H3X 2781   1.686   5.412  10.045 -1.3788  0.2180 -1.4930
   21SAPC   H3Y 2782   1.781   5.555  10.105 -1.4159  2.4591  1.5693
   21SAPC   C34 2783   1.602   5.593   9.990  0.0802 -0.5052  0.2302
   21SAPC   H4X 2784   1.607   5.700  10.019 -0.3956 -0.3683 -0.1951
   21SAPC   H4Y 2785   1.495   5.561   9.985 -0.2178  0.5426 -0.3520
   21SAPC   C35 2786   1.653   5.567   9.846 -0.3096  0.5161 -0.0933
   21SAPC   H5X 2787   1.659   5.457   9.835 -1.2877  0.5165 -0.8139
   21SAPC   H5Y 2788   1.757   5.604   9.844  0.0488 -0.4371  0.4627
   21SAPC   C36 2789   1.556   5.613   9.740 -0.7810  0.5472  0.4244
   21SAPC   H6X 2790   1.559   5.723   9.723  0.5101  0.1685 -2.5069
   21SAPC   H6Y 2791   1.457   5.575   9.772 -0.1304 -0.9535  0.7607
   21SAPC   C37 2792   1.583   5.553   9.600  0.2393  0.2560  0.6854
   21SAPC   H7X 2793   1.540   5.452   9.589 -0.4059  0.5413  0.5308
   21SAPC   H7Y 2794   1.693   5.548   9.583  0.5538  0.5753  2.4718
   21SAPC   C38 2795   1.538   5.647   9.484  0.3086 -0.8560 -1.0567
   21SAPC   H8X 2796   1.579   5.749   9.502  3.2210 -2.1944  0.7215
   21SAPC   H8Y 2797   1.428   5.653   9.489  0.2495 -1.6047 -1.3448
   21SAPC   C39 2798   1.576   5.596   9.347 -0.0134 -0.7313  0.1600
   21SAPC   H9X 2799   1.534   5.493   9.342 -2.0255  0.0607 -0.2382
   21SAPC   H9Y 2800   1.687   5.586   9.347  0.0831  0.1554  0.9379
   21SAPC  C310 2801   1.530   5.681   9.226 -0.3538 -0.2538 -0.2882
   21SAPC  H10X 2802   1.430   5.724   9.245  0.4616  3.1478 -2.8420
   21SAPC  H10Y 2803   1.528   5.610   9.140  0.2036  0.4442 -0.8937
   21SAPC  C311 2804   1.621   5.813   9.210  0.6837  0.0557  0.6739
   21SAPC  H11X 2805   1.724   5.775   9.196  0.9471  0.9826 -0.0150
   21SAPC  H11Y 2806   1.609   5.872   9.304 -1.8776 -0.4274  0.7403
   21SAPC  C312 2807   1.582   5.886   9.085  0.1896  0.2818  0.1506
   21SAPC  H12X 2808   1.654   5.968   9.065  2.1791 -1.7975 -1.9273
   21SAPC  H12Y 2809   1.478   5.923   9.094  0.3100  0.0475  3.9839
   21SAPC  C313 2810   1.593   5.806   8.951 -0.9595  0.2025 -0.2411
   21SAPC  H13X 2811   1.523   5.720   8.952  0.3598 -0.8861  0.4491
   21SAPC  H13Y 2812   1.699   5.774   8.950 -0.4676  1.6696 -2.4111
   21SAPC  C314 2813   1.571   5.899   8.823  0.2395 -0.2196 -0.2314
   21SAPC  H14X 2814   1.574   5.841   8.728  1.7093  0.8081 -0.8590
   21SAPC  H14Y 2815   1.651   5.977   8.816 -2.9013  3.3261  0.3705
   21SAPC  C315 2816   1.440   5.971   8.824 -0.1340  0.5139 -0.3037
   21SAPC  H15X 2817   1.431   6.033   8.916  0.9765 -0.5916  0.5946
   21SAPC  H15Y 2818   1.357   5.896   8.832  0.6463 -0.2305  1.4049
   21SAPC  C316 2819   1.402   6.065   8.711  0.7714 -0.2537  0.0954
   21SAPC  H16X 2820   1.423   6.025   8.609 -2.0742 -0.6985 -0.4095
   21SAPC  H16Y 2821   1.465   6.155   8.722 -1.6086  1.8173 -2.0799
   21SAPC  C317 2822   1.248   6.099   8.718 -0.7804  0.1317 -0.2667
   21SAPC  H17X 2823   1.221   6.142   8.817  0.0664 -0.6687  0.3259
   21SAPC  H17Y 2824   1.206   5.997   8.704 -0.4565  0.1159 -1.1693
   21SAPC  C318 2825   1.211   6.191   8.610  0.4182 -0.0203  0.5946
   21SAPC  H18X 2826   1.255   6.293   8.601  0.1311 -0.0288 -1.2519
   21SAPC  H18Y 2827   1.105   6.223   8.617  0.7706  1.6003 -0.7962
   21SAPC  H18Z 2828   1.214   6.131   8.516  0.6986  1.1981 -0.1993
   22SAPC     N 2829   5.660   1.681  10.841 -0.0840 -0.0120  0.3652
   22SAPC   C12 2830   5.588   1.746  10.720 -0.4934 -0.0214  0.2876
   22SAPC  H12A 2831   5.517   1.815  10.764  0.0138 -1.2805  3.3372
   22SAPC  H12B 2832   5.537   1.666  10.668 -1.8303  1.7376 -1.2459
   22SAPC   C13 2833   5.729   1.783  10.925 -0.0652  0.4187  0.0222
   22SAPC  H13A 2834   5.784   1.740  11.007 -1.3585  1.0982  1.2880
   22SAPC  H13B 2835   5.793   1.843  10.861  0.6187  0.6015  0.8631
   22SAPC  H13C 2836   5.661   1.848  10.978 -1.8444 -2.1125  1.0279
   22SAPC   C14 2837   5.559   1.598  10.926  0.3631 -0.0512  0.2823
   22SAPC  H14A 2838   5.607   1.546  11.008 -0.0463 -1.1314 -0.1373
   22SAPC  H14B 2839   5.473   1.656  10.955  0.5854  1.2001 -1.4711
   22SAPC  H14C 2840   5.522   1.512  10.872  1.2548  0.7731 -1.7276
   22SAPC   C15 2841   5.761   1.586  10.797  0.5014 -0.2157 -0.6990
   22SAPC  H15A 2842   5.852   1.637  10.769 -0.9296  1.8723 -1.8051
   22SAPC  H15B 2843   5.778   1.515  10.876  0.0169  0.3126 -0.1111
   22SAPC  H15C 2844   5.715   1.528  10.718 -1.8401  1.4300 -0.6450
   22SAPC   C11 2845   5.669   1.807  10.609  0.2182 -0.0523  0.0031
   22SAPC  H11A 2846   5.608   1.842  10.523  0.0062 -0.7073 -0.1202
   22SAPC  H11B 2847   5.724   1.724  10.561  1.5015  0.8357 -0.1223
   22SAPC     P 2848   5.904   1.942  10.612 -0.1966  0.6795 -0.0256
   22SAPC   O13 2849   5.972   2.049  10.697  0.5461 -0.0808 -0.2426
   22SAPC   O14 2850   5.980   1.815  10.617  0.0181 -0.2857 -0.2340
   22SAPC   O12 2851   5.757   1.914  10.657  0.9608  0.3178  0.0449
   22SAPC   O11 2852   5.889   1.990  10.465 -0.0446 -0.1181  0.0414
   22SAPC    C1 2853   5.825   2.102  10.419 -0.4325 -0.0301 -0.4651
   22SAPC    HA 2854   5.727   2.126  10.466 -0.2521 -0.5745  0.2056
   22SAPC    HB 2855   5.890   2.189  10.442  0.4795 -0.7673 -0.1758
   22SAPC    C2 2856   5.818   2.109  10.268 -0.4246  0.4859  0.1662
   22SAPC    HS 2857   5.771   2.205  10.235  1.2776  1.3109  0.0632
   22SAPC   O21 2858   5.735   2.000  10.226  0.7316 -0.3123  0.1178
   22SAPC   C21 2859   5.597   2.015  10.247 -0.0867 -0.0990 -0.3776
   22SAPC   O22 2860   5.548   2.118  10.296 -0.5526  0.4405  0.2199
   22SAPC   C22 2861   5.536   1.882  10.227  0.2294  0.6889  0.3703
   22SAPC   H2R 2862   5.603   1.817  10.167 -0.2313 -0.8063  1.4265
   22SAPC   H2S 2863   5.521   1.827  10.322 -1.3960  1.6427  0.7071
   22SAPC    C3 2864   5.956   2.093  10.203  0.7964 -0.0270  0.2070
   22SAPC    HX 2865   5.992   1.991  10.224 -0.3048 -0.3341  0.6727
   22SAPC    HY 2866   6.024   2.160  10.259 -1.2868  1.1026  1.5254
   22SAPC   O31 2867   5.962   2.118  10.063 -0.1311  0.2537 -0.2362
   22SAPC   C31 2868   5.984   2.244  10.025  0.8794  0.3425  0.3027
   22SAPC   O32 2869   5.998   2.341  10.103 -0.0435  0.8246 -0.6135
   22SAPC   C32 2870   5.958   2.255   9.878  0.3281  0.3085 -0.3963
   22SAPC   H2X 2871   5.849   2.239   9.860  0.2080 -1.3794  1.4507
   22SAPC   H2Y 2872   6.006   2.164   9.836 -0.2510  0.8394 -2.3068
   22SAPC   C23 2873   5.396   1.890  10.148 -0.2166  0.1980 -0.0965
   22SAPC   H3R 2874   5.417   1.918  10.042  0.9023  1.3681  0.4104
   22SAPC   H3S 2875   5.323   1.958  10.197 -1.0553  1.7605 -3.2265
   22SAPC   C24 2876   5.328   1.747  10.132 -0.4216  0.2300  0.6063
   22SAPC   H4R 2877   5.341   1.694  10.229  0.5598 -1.4256 -0.3932
   22SAPC   H4S 2878   5.392   1.686  10.065 -1.4523 -0.0121 -0.1658
   22SAPC   C25 2879   5.186   1.728  10.087  0.0184  0.1685  0.2199
   22SAPC   H5R 2880   5.113   1.733  10.169  0.0035  1.2097  0.1667
   22SAPC   C26 2881   5.145   1.694   9.960  0.2999 -0.0442 -0.3448
   22SAPC   H6R 2882   5.041   1.692   9.923  1.2428  2.0316 -3.5434
   22SAPC   C27 2883   5.246   1.675   9.847  0.3260  0.9148 -0.4582
   22SAPC   H7R 2884   5.182   1.625   9.771 -1.2199 -0.1829  1.4894
   22SAPC   H7S 2885   5.313   1.588   9.866  0.4906  1.5946  2.4703
   22SAPC   C28 2886   5.319   1.799   9.800  0.3361  1.1865  0.0412
   22SAPC   H8R 2887   5.289   1.897   9.841 -0.7957  0.7905  0.1758
   22SAPC   C29 2888   5.410   1.790   9.698  0.5536 -0.5724  0.3032
   22SAPC   H9R 2889   5.439   1.888   9.658 -1.2884 -0.1480 -0.0681
   22SAPC  C210 2890   5.460   1.670   9.619 -0.0751 -0.5494  0.3142
   22SAPC  H10R 2891   5.416   1.574   9.655 -2.4336  0.5317  0.4550
   22SAPC  H10S 2892   5.571   1.674   9.621 -0.1111  2.0954 -0.1818
   22SAPC  C211 2893   5.420   1.694   9.471 -0.2581  1.1517  0.1213
   22SAPC  H11R 2894   5.365   1.787   9.451 -0.3922  1.1439  0.4557
   22SAPC  C212 2895   5.452   1.604   9.373  0.0385 -0.1321 -0.1897
   22SAPC  H12R 2896   5.440   1.633   9.267  0.2345  0.7861  0.0300
   22SAPC  C213 2897   5.537   1.477   9.395  0.2706  0.3410  0.9352
   22SAPC  H13R 2898   5.580   1.475   9.498  0.8807 -1.2859  0.6824
   22SAPC  H13S 2899   5.630   1.474   9.335  0.5405 -2.2319  1.3779
   22SAPC  C214 2900   5.466   1.346   9.378 -0.0433 -0.0681  0.3017
   22SAPC  H14R 2901   5.388   1.352   9.300  1.2286  1.2639 -0.9481
   22SAPC  C215 2902   5.499   1.236   9.451 -0.6175 -0.4034 -0.6681
   22SAPC  H15R 2903   5.444   1.143   9.430 -1.2217 -0.3941  0.8068
   22SAPC  C216 2904   5.599   1.220   9.562  0.0085  0.3060 -0.2283
   22SAPC  H16R 2905   5.676   1.297   9.538  1.3758 -1.1976 -0.8253
   22SAPC  H16S 2906   5.646   1.120   9.564  0.9520  0.7389  0.8657
   22SAPC  C217 2907   5.532   1.256   9.697  0.1102  0.8964  0.5011
   22SAPC  H17R 2908   5.462   1.174   9.725 -1.4108  1.9016 -0.2295
   22SAPC  H17S 2909   5.479   1.351   9.676  0.1317  0.5290 -1.4219
   22SAPC  C218 2910   5.626   1.274   9.815  0.6130  0.0029  0.6865
   22SAPC  H18R 2911   5.709   1.343   9.788 -0.7789  2.3911  2.1788
   22SAPC  H18S 2912   5.667   1.171   9.832  0.0283 -0.8248 -2.3129
   22SAPC  C219 2913   5.574   1.345   9.935 -0.1528  0.4460  0.6824
   22SAPC  H19R 2914   5.540   1.450   9.924  0.1700  0.4226 -0.6468
   22SAPC  H19S 2915   5.652   1.352  10.014  0.7977  0.5296 -0.2441
   22SAPC  C220 2916   5.451   1.282  10.014 -0.4838 -0.5807  0.0054
   22SAPC  H20R 2917   5.371   1.260   9.940 -0.6281  1.0561 -0.3623
   22SAPC  H20S 2918   5.404   1.347  10.090 -0.2296  1.6797 -1.6892
   22SAPC  H20T 2919   5.477   1.178  10.046 -0.7106 -1.2517 -1.8457
   22SAPC   C33 2920   6.022   2.369   9.805 -0.3751 -1.0075 -0.2983
   22SAPC   H3X 2921   6.131   2.354   9.790  0.1554  1.9273  0.1108
   22SAPC   H3Y 2922   6.007   2.462   9.863 -1.1175 -0.1672 -1.7586
   22SAPC   C34 2923   5.968   2.388   9.670 -0.2418  0.0899  0.6922
   22SAPC   H4X 2924   5.991   2.494   9.647  1.2741 -0.3821 -0.1043
   22SAPC   H4Y 2925   5.860   2.365   9.660 -0.3645  0.5494  0.9353
   22SAPC   C35 2926   6.026   2.291   9.555  0.2618 -0.6413 -1.1009
   22SAPC   H5X 2927   5.954   2.292   9.471 -1.6736 -2.8161  0.3967
   22SAPC   H5Y 2928   6.014   2.189   9.597 -1.3074 -0.1781 -0.3298
   22SAPC   C36 2929   6.169   2.330   9.527 -0.5057  0.1876  0.1950
   22SAPC   H6X 2930   6.222   2.234   9.509  0.9958  1.2825 -1.4573
   22SAPC   H6Y 2931   6.214   2.378   9.616 -1.0838  0.3455  0.4079
   22SAPC   C37 2932   6.197   2.420   9.404  0.6226  0.5394 -0.3520
   22SAPC   H7X 2933   6.299   2.461   9.412  0.9944 -0.5300  0.5305
   22SAPC   H7Y 2934   6.127   2.506   9.397 -0.2630 -0.2287 -1.6247
   22SAPC   C38 2935   6.189   2.340   9.269 -0.7193 -0.2116 -0.4785
   22SAPC   H8X 2936   6.223   2.236   9.282  0.3808  0.1081 -0.6990
   22SAPC   H8Y 2937   6.267   2.387   9.205  0.2011 -1.3145 -0.1867
   22SAPC   C39 2938   6.057   2.331   9.196  0.1491 -0.1207  0.0123
   22SAPC   H9X 2939   6.041   2.438   9.170  0.8052  0.2903  1.2474
   22SAPC   H9Y 2940   5.972   2.296   9.259 -0.3961 -1.5046 -1.4161
   22SAPC  C310 2941   6.056   2.240   9.077 -0.5179 -0.6346 -0.7064
   22SAPC  H10X 2942   6.069   2.134   9.109 -0.0767 -0.3807 -0.0278
   22SAPC  H10Y 2943   6.146   2.247   9.013 -1.2397 -0.5141 -1.7236
   22SAPC  C311 2944   5.924   2.255   8.997 -0.0729  0.2783 -0.6226
   22SAPC  H11X 2945   5.915   2.358   8.957  1.7587 -0.4081 -3.1091
   22SAPC  H11Y 2946   5.836   2.217   9.052 -0.4345  0.0553 -1.3398
   22SAPC  C312 2947   5.919   2.143   8.891  0.7439  0.3826  0.4195
   22SAPC  H12X 2948   5.877   2.052   8.940  1.7445 -1.0392 -1.2525
   22SAPC  H12Y 2949   6.020   2.112   8.858  0.8500  0.4598  0.6691
   22SAPC  C313 2950   5.832   2.187   8.767  0.0668  0.3905  0.0765
   22SAPC  H13X 2951   5.862   2.291   8.742 -0.0312  0.8649  1.7888
   22SAPC  H13Y 2952   5.726   2.186   8.799  0.3998  0.8820  1.2436
   22SAPC  C314 2953   5.839   2.105   8.635  0.2235 -0.2784 -0.0443
   22SAPC  H14X 2954   5.748   2.132   8.576  0.1654 -0.0463  0.1517
   22SAPC  H14Y 2955   5.840   1.995   8.652  1.7959 -0.0352  1.6430
   22SAPC  C315 2956   5.969   2.136   8.563 -0.6201 -0.4507 -0.2126
   22SAPC  H15X 2957   6.051   2.109   8.633  0.4108  1.5105 -0.6006
   22SAPC  H15Y 2958   5.966   2.246   8.549  0.5710 -0.3440  0.2794
   22SAPC  C316 2959   5.996   2.068   8.423 -0.3563  0.8215  0.2774
   22SAPC  H16X 2960   5.909   2.092   8.358  0.3507 -0.2866 -1.1566
   22SAPC  H16Y 2961   5.996   1.958   8.441 -0.9547  0.8777  0.6552
   22SAPC  C317 2962   6.132   2.111   8.354 -0.1916  0.6434 -0.2210
   22SAPC  H17X 2963   6.223   2.107   8.417  0.4680 -0.9275 -1.1897
   22SAPC  H17Y 2964   6.114   2.212   8.313  1.4808  0.7857 -0.6762
   22SAPC  C318 2965   6.172   2.040   8.222  0.4661  0.8079 -0.6321
   22SAPC  H18X 2966   6.214   1.941   8.249 -0.3373  0.7682  0.5785
   22SAPC  H18Y 2967   6.254   2.097   8.175  0.8744  0.3521 -0.4727
   22SAPC  H18Z 2968   6.089   2.023   8.150  0.0308 -2.9327  0.5163
   23SAPC     N 2969   1.727   3.792  10.532  0.0372  0.5499  0.5621
   23SAPC   C12 2970   1.867   3.835  10.511  0.3149  1.0543 -0.4260
   23SAPC  H12A 2971   1.885   3.912  10.585  0.0954  1.3423 -0.6675
   23SAPC  H12B 2972   1.879   3.871  10.410  0.7517  0.1322 -0.7146
   23SAPC   C13 2973   1.701   3.671  10.440  0.3279  0.3664 -0.5714
   23SAPC  H13A 2974   1.698   3.707  10.338  0.2901  0.1199 -0.6557
   23SAPC  H13B 2975   1.777   3.597  10.460 -1.5300 -1.9452 -1.5576
   23SAPC  H13C 2976   1.603   3.637  10.471  1.0985  0.1195  1.8083
   23SAPC   C14 2977   1.701   3.754  10.669 -0.6022  0.0533 -0.4894
   23SAPC  H14A 2978   1.597   3.728  10.682 -0.6133 -0.4387 -1.4724
   23SAPC  H14B 2979   1.757   3.664  10.689 -2.1683 -1.7937 -3.7098
   23SAPC  H14C 2980   1.725   3.836  10.736  0.7089 -1.3523  0.8181
   23SAPC   C15 2981   1.644   3.909  10.494  0.0147  0.3970 -0.0189
   23SAPC  H15A 2982   1.539   3.886  10.504 -0.6832  2.0129 -2.6813
   23SAPC  H15B 2983   1.669   4.003  10.541 -0.1140  0.8952 -0.9144
   23SAPC  H15C 2984   1.654   3.940  10.391  2.3536 -2.8224 -0.9108
   23SAPC   C11 2985   1.985   3.730  10.528 -0.4929  0.0909  0.4485
   23SAPC  H11A 2986   2.081   3.784  10.516 -0.1456 -1.0609 -2.7037
   23SAPC  H11B 2987   1.983   3.649  10.452  1.5110 -1.0224  1.4924
   23SAPC     P 2988   2.027   3.536  10.715 -0.3001 -0.0602  0.1577
   23SAPC   O13 2989   2.094   3.547  10.845 -0.4358  0.2578 -0.6856
   23SAPC   O14 2990   1.901   3.458  10.702 -0.4462 -0.4867 -0.2425
   23SAPC   O12 2991   1.987   3.677  10.663 -0.2327  0.2421 -0.2372
   23SAPC   O11 2992   2.137   3.487  10.608  0.1766 -0.9050 -0.4407
   23SAPC    C1 2993   2.175   3.353  10.585  0.5167  0.6705  0.6036
   23SAPC    HA 2994   2.284   3.347  10.605  0.4630 -1.6389  0.5181
   23SAPC    HB 2995   2.135   3.280  10.658 -1.2187  1.5549  0.5841
   23SAPC    C2 2996   2.141   3.318  10.437  0.6790  0.0754 -0.0889
   23SAPC    HS 2997   2.176   3.217  10.408 -2.4133 -1.5270  1.2886
   23SAPC   O21 2998   2.179   3.420  10.345  0.6484  0.6762  0.4912
   23SAPC   C21 2999   2.302   3.429  10.325 -0.2862 -0.0997 -1.0773
   23SAPC   O22 3000   2.387   3.350  10.376 -0.4533  0.5071  0.4492
   23SAPC   C22 3001   2.325   3.544  10.229 -0.0212 -0.2501 -0.3170
   23SAPC   H2R 3002   2.271   3.635  10.261  1.4497  1.1594 -1.6240
   23SAPC   H2S 3003   2.432   3.570  10.244 -0.3711  1.2411 -0.2688
   23SAPC    C3 3004   1.993   3.300  10.420  0.3173  0.2147 -0.0750
   23SAPC    HX 3005   1.948   3.402  10.432  1.8929  1.0037 -0.6870
   23SAPC    HY 3006   1.945   3.245  10.504  2.8304 -1.5629  0.3143
   23SAPC   O31 3007   1.951   3.247  10.289 -0.0274  0.2446  0.2226
   23SAPC   C31 3008   1.937   3.116  10.293 -0.0205  0.6332  0.5154
   23SAPC   O32 3009   1.956   3.045  10.387 -0.5118 -0.3391  0.1968
   23SAPC   C32 3010   1.885   3.073  10.154  0.3654  0.1136 -0.3875
   23SAPC   H2X 3011   1.953   3.119  10.079  0.0557  0.6175 -0.3628
   23SAPC   H2Y 3012   1.788   3.125  10.139 -0.4233 -0.2161  2.8398
   23SAPC   C23 3013   2.302   3.506  10.079  0.1169  0.0237  0.0427
   23SAPC   H3R 3014   2.236   3.576  10.023  2.1436  1.0131 -1.2354
   23SAPC   H3S 3015   2.255   3.405  10.073  1.3089 -0.4550 -2.4705
   23SAPC   C24 3016   2.432   3.499   9.995 -0.1224 -0.2335 -0.1301
   23SAPC   H4R 3017   2.480   3.599   9.996 -2.1963  0.8173  0.0354
   23SAPC   H4S 3018   2.394   3.477   9.893 -1.2923  0.4835  0.1335
   23SAPC   C25 3019   2.536   3.406  10.036 -0.2139  0.4331  0.2739
   23SAPC   H5R 3020   2.545   3.375  10.141 -2.0975 -0.6731  0.1663
   23SAPC   C26 3021   2.624   3.355   9.950 -0.9365  0.1935  0.4841
   23SAPC   H6R 3022   2.685   3.267   9.975  0.1464  0.5846 -0.6657
   23SAPC   C27 3023   2.634   3.387   9.799 -0.6259 -0.4149 -0.3424
   23SAPC   H7R 3024   2.574   3.476   9.768 -0.6402  0.1027  1.0932
   23SAPC   H7S 3025   2.596   3.303   9.738 -1.4025  0.8415 -1.6658
   23SAPC   C28 3026   2.777   3.433   9.782 -0.0560 -0.3223  0.2306
   23SAPC   H8R 3027   2.817   3.504   9.855  0.4029 -1.1176  0.7634
   23SAPC   C29 3028   2.864   3.390   9.689  0.7226 -0.6058  0.1507
   23SAPC   H9R 3029   2.964   3.435   9.690  0.1063  0.8330  1.0395
   23SAPC  C210 3030   2.837   3.279   9.588 -0.5513  0.4046 -0.9960
   23SAPC  H10R 3031   2.770   3.307   9.504  0.3056 -0.5592 -2.0332
   23SAPC  H10S 3032   2.794   3.193   9.643  0.9211  1.5305  2.1314
   23SAPC  C211 3033   2.971   3.255   9.524 -0.1192 -0.5051  0.2182
   23SAPC  H11R 3034   3.026   3.166   9.559 -1.2275 -0.8610  1.1052
   23SAPC  C212 3035   3.020   3.315   9.408 -0.5839  0.8517  0.5157
   23SAPC  H12R 3036   3.118   3.278   9.376 -1.2076  1.7123 -2.7480
   23SAPC  C213 3037   2.948   3.412   9.313 -0.0413 -0.4213  0.2076
   23SAPC  H13R 3038   3.025   3.483   9.277 -0.0829 -0.3112  0.3357
   23SAPC  H13S 3039   2.871   3.472   9.366  0.6944  0.3813  0.3773
   23SAPC  C214 3040   2.868   3.353   9.201 -0.3563  0.3780  0.0973
   23SAPC  H14R 3041   2.792   3.280   9.233  1.4034 -1.1823  0.8907
   23SAPC  C215 3042   2.884   3.366   9.068 -0.5580 -0.3600 -0.1282
   23SAPC  H15R 3043   2.820   3.309   8.999  0.0926 -2.1536  0.6739
   23SAPC  C216 3044   2.985   3.454   8.993  0.1210  0.8890 -0.4747
   23SAPC  H16R 3045   3.085   3.443   9.041  0.1903 -1.4291 -0.9953
   23SAPC  H16S 3046   2.958   3.561   8.995  0.5304  1.0454  3.7761
   23SAPC  C217 3047   3.024   3.399   8.851  0.1154 -0.4432 -0.3695
   23SAPC  H17R 3048   2.938   3.384   8.782 -1.1253 -0.6669  1.1617
   23SAPC  H17S 3049   3.083   3.307   8.871  1.2635  0.2599 -0.4654
   23SAPC  C218 3050   3.128   3.489   8.777  0.1864  0.2530 -0.0032
   23SAPC  H18R 3051   3.191   3.429   8.708  0.9721  0.6882  0.3298
   23SAPC  H18S 3052   3.195   3.529   8.856  1.4086  0.7185 -1.2397
   23SAPC  C219 3053   3.072   3.614   8.701 -0.2119  0.6178 -0.7717
   23SAPC  H19R 3054   3.149   3.680   8.656  2.0917 -1.4149 -0.0159
   23SAPC  H19S 3055   3.018   3.674   8.778  1.8378  1.5341  0.0135
   23SAPC  C220 3056   2.987   3.564   8.576  0.2728  0.0059  0.0456
   23SAPC  H20R 3057   2.925   3.474   8.597  0.4818 -0.5595 -1.6204
   23SAPC  H20S 3058   3.050   3.528   8.492  0.7129 -0.2731  0.4903
   23SAPC  H20T 3059   2.916   3.643   8.544 -0.6087 -0.8773 -0.2283
   23SAPC   C33 3060   1.879   2.913  10.147  0.4105  0.1523 -0.1650
   23SAPC   H3X 3061   1.790   2.890  10.209  0.8605  0.7521  0.7343
   23SAPC   H3Y 3062   1.965   2.861  10.194  2.0078  2.5233 -0.2744
   23SAPC   C34 3063   1.851   2.857   9.999 -0.9477 -0.4512 -0.5545
   23SAPC   H4X 3064   1.761   2.915   9.969 -2.2237 -2.1707 -0.2177
   23SAPC   H4Y 3065   1.815   2.752   9.995 -3.1931  0.3157 -2.1698
   23SAPC   C35 3066   1.967   2.879   9.899  0.1123 -0.2040  0.3552
   23SAPC   H5X 3067   2.058   2.824   9.930  0.3304 -0.6913 -1.0810
   23SAPC   H5Y 3068   2.002   2.984   9.908  1.2469 -0.5736  0.3876
   23SAPC   C36 3069   1.952   2.850   9.751  0.0579  0.2344  0.5658
   23SAPC   H6X 3070   2.026   2.906   9.690  1.0243 -0.3600  1.1609
   23SAPC   H6Y 3071   1.856   2.897   9.721  0.4173  1.1802  0.8676
   23SAPC   C37 3072   1.949   2.701   9.706  0.5511  1.0123 -0.2383
   23SAPC   H7X 3073   1.860   2.664   9.760  0.0277  3.0415  0.3984
   23SAPC   H7Y 3074   2.035   2.642   9.746  1.2734  1.6180 -0.8597
   23SAPC   C38 3075   1.936   2.674   9.558 -0.4592 -0.4642  0.1166
   23SAPC   H8X 3076   1.970   2.570   9.534 -0.2368  0.0831 -2.1550
   23SAPC   H8Y 3077   2.007   2.745   9.511 -1.9391 -0.8153 -2.8237
   23SAPC   C39 3078   1.799   2.687   9.497 -0.5367 -0.1621  0.4648
   23SAPC   H9X 3079   1.772   2.794   9.491  0.2201  0.1285  1.8947
   23SAPC   H9Y 3080   1.722   2.653   9.570  0.4615 -1.4023  0.9835
   23SAPC  C310 3081   1.780   2.614   9.368  0.4342 -0.0635  0.8092
   23SAPC  H10X 3082   1.671   2.605   9.347  0.6244 -1.8774  0.4045
   23SAPC  H10Y 3083   1.821   2.512   9.384  2.0097 -0.1504 -2.8342
   23SAPC  C311 3084   1.849   2.671   9.247 -0.0877 -0.3761 -0.0062
   23SAPC  H11X 3085   1.959   2.675   9.260  0.1804 -1.1313 -1.7672
   23SAPC  H11Y 3086   1.821   2.777   9.231 -0.6111 -0.6997 -1.3743
   23SAPC  C312 3087   1.821   2.591   9.123 -0.2446 -0.4575 -0.0187
   23SAPC  H12X 3088   1.716   2.563   9.099 -1.1973  0.4201  2.6964
   23SAPC  H12Y 3089   1.878   2.495   9.129  0.3900  0.0008  2.1967
   23SAPC  C313 3090   1.867   2.680   9.006  0.5180  0.3545 -0.0345
   23SAPC  H13X 3091   1.970   2.719   9.019  0.5520 -0.0885  1.1118
   23SAPC  H13Y 3092   1.798   2.766   8.993 -0.6385 -0.4246  0.7747
   23SAPC  C314 3093   1.857   2.604   8.875 -0.4117  0.1304  0.0632
   23SAPC  H14X 3094   1.752   2.597   8.841 -0.1082  0.8339 -1.0785
   23SAPC  H14Y 3095   1.894   2.499   8.887 -1.3101 -0.4565 -1.9519
   23SAPC  C315 3096   1.948   2.662   8.764 -0.0423  0.4367  0.0111
   23SAPC  H15X 3097   2.046   2.610   8.764  0.2818  0.9848 -1.4593
   23SAPC  H15Y 3098   1.959   2.771   8.784 -0.8132  0.0144  3.4329
   23SAPC  C316 3099   1.882   2.640   8.629  0.2280  0.4011 -0.3104
   23SAPC  H16X 3100   1.955   2.675   8.552 -2.0223  2.4881 -1.6837
   23SAPC  H16Y 3101   1.792   2.705   8.614 -0.8294 -1.0984 -0.6825
   23SAPC  C317 3102   1.833   2.495   8.596  0.2845  0.1997 -0.1745
   23SAPC  H17X 3103   1.743   2.471   8.655 -0.2122 -2.0815 -1.7333
   23SAPC  H17Y 3104   1.912   2.427   8.635  0.9660  0.7420 -0.5823
   23SAPC  C318 3105   1.812   2.480   8.453 -0.1337  0.0917  0.2765
   23SAPC  H18X 3106   1.761   2.384   8.432 -1.8350  1.0760 -0.3716
   23SAPC  H18Y 3107   1.912   2.474   8.406 -0.5638  1.9645 -1.0268
   23SAPC  H18Z 3108   1.742   2.556   8.411 -1.4984 -0.6789  1.0650
   24SAPC     N 3109   2.922   4.530  11.174 -0.1645  0.0245  0.3951
   24SAPC   C12 3110   3.021   4.503  11.061 -0.4243 -0.3155  0.3178
   24SAPC  H12A 3111   3.119   4.522  11.103 -0.1206 -0.3159 -0.3862
   24SAPC  H12B 3112   3.011   4.587  10.994  0.2978 -2.5458 -2.7879
   24SAPC   C13 3113   2.926   4.428  11.283 -0.2028 -0.0469  0.0306
   24SAPC  H13A 3114   2.884   4.468  11.374 -0.5605  0.4565 -0.3475
   24SAPC  H13B 3115   2.863   4.346  11.253 -0.6031  0.2669 -0.0004
   24SAPC  H13C 3116   3.022   4.392  11.318 -0.7216 -0.2109  1.3629
   24SAPC   C14 3117   2.947   4.668  11.235  0.0668  0.7167  0.2723
   24SAPC  H14A 3118   3.047   4.675  11.275  0.7791  0.9511 -1.4324
   24SAPC  H14B 3119   2.929   4.747  11.163 -0.6677  0.7432  0.4793
   24SAPC  H14C 3120   2.870   4.695  11.305 -0.3642  1.1078 -0.3361
   24SAPC   C15 3121   2.787   4.520  11.110 -0.1594 -0.7414  0.2436
   24SAPC  H15A 3122   2.779   4.428  11.054  2.0738 -0.4186 -0.6974
   24SAPC  H15B 3123   2.711   4.530  11.186  0.7262  1.0199  0.9420
   24SAPC  H15C 3124   2.779   4.595  11.033  1.8762 -0.8395 -0.1200
   24SAPC   C11 3125   3.025   4.372  10.985 -1.2682 -0.2801  0.9086
   24SAPC  H11A 3126   3.056   4.285  11.047  1.6408  0.0220  0.0262
   24SAPC  H11B 3127   3.109   4.382  10.912 -0.9367  1.1681  1.4692
   24SAPC     P 3128   2.864   4.209  10.859 -0.0866 -0.2629 -0.0197
   24SAPC   O13 3129   2.860   4.120  10.976 -0.3247  0.0307  0.0029
   24SAPC   O14 3130   2.744   4.225  10.777 -0.0923  0.2498  0.1752
   24SAPC   O12 3131   2.910   4.353  10.904  0.8572  0.0028 -0.1632
   24SAPC   O11 3132   2.979   4.166  10.766 -0.2933 -0.9955 -0.0945
   24SAPC    C1 3133   3.030   4.249  10.663 -0.5521  0.2681 -0.2972
   24SAPC    HA 3134   2.956   4.294  10.594  0.9339  1.1138 -1.4008
   24SAPC    HB 3135   3.075   4.347  10.688  0.4248  0.7566 -3.4714
   24SAPC    C2 3136   3.126   4.167  10.567  0.7880  0.4994 -0.1793
   24SAPC    HS 3137   3.155   4.244  10.492 -0.0734 -0.5429 -1.6331
   24SAPC   O21 3138   3.055   4.058  10.514 -0.4450  0.0792  0.0291
   24SAPC   C21 3139   2.985   4.091  10.403  0.6857 -0.0168 -0.8299
   24SAPC   O22 3140   2.986   4.196  10.343  0.2619  0.6416  0.1407
   24SAPC   C22 3141   2.893   3.979  10.375 -0.4519  0.0991 -0.0199
   24SAPC   H2R 3142   2.943   3.891  10.330 -1.2984 -1.7894  2.5419
   24SAPC   H2S 3143   2.850   3.959  10.475  1.2015  0.0540  0.7038
   24SAPC    C3 3144   3.267   4.116  10.637  0.2659  0.0984 -0.1762
   24SAPC    HX 3145   3.250   4.022  10.694 -1.9541  0.2580 -0.4688
   24SAPC    HY 3146   3.297   4.201  10.701  1.1334 -0.5761  0.3387
   24SAPC   O31 3147   3.368   4.106  10.530 -0.2912  0.5117 -0.2009
   24SAPC   C31 3148   3.428   3.994  10.519  1.0694 -0.2215  0.8793
   24SAPC   O32 3149   3.421   3.902  10.596  0.7393 -0.4886  0.0112
   24SAPC   C32 3150   3.500   3.992  10.383  0.6163 -0.0786 -0.5965
   24SAPC   H2X 3151   3.607   4.008  10.409  0.8011 -0.1810 -1.2767
   24SAPC   H2Y 3152   3.462   4.072  10.315 -2.2082  0.8852  1.8895
   24SAPC   C23 3153   2.770   4.017  10.292 -0.2543  0.1465  0.1884
   24SAPC   H3R 3154   2.798   4.029  10.185 -1.9038  1.1951 -0.1666
   24SAPC   H3S 3155   2.733   4.118  10.321 -0.5541  0.2939 -0.6897
   24SAPC   C24 3156   2.665   3.902  10.304  0.0033 -0.6630 -0.7688
   24SAPC   H4R 3157   2.578   3.941  10.246  0.0121  0.5884  0.0078
   24SAPC   H4S 3158   2.621   3.891  10.405  0.6169 -0.4755 -0.4771
   24SAPC   C25 3159   2.704   3.778  10.235  0.2696  0.7125  0.7594
   24SAPC   H5R 3160   2.748   3.700  10.299 -1.3170 -1.4082 -0.5708
   24SAPC   C26 3161   2.680   3.745  10.101 -0.4255 -0.1743 -0.6389
   24SAPC   H6R 3162   2.712   3.645  10.069  0.0701 -1.5826  3.5676
   24SAPC   C27 3163   2.606   3.824   9.996 -0.1119 -0.0780 -0.5838
   24SAPC   H7R 3164   2.532   3.898  10.033 -0.6629 -0.9549  0.0996
   24SAPC   H7S 3165   2.544   3.762   9.928 -3.7441  3.9765 -1.4280
   24SAPC   C28 3166   2.710   3.905   9.917 -0.1701 -0.4055  0.0535
   24SAPC   H8R 3167   2.744   3.990   9.977 -1.7146 -0.7165  1.4531
   24SAPC   C29 3168   2.748   3.899   9.791 -0.2221 -0.1929 -0.7847
   24SAPC   H9R 3169   2.822   3.973   9.758 -1.4515  0.7687 -1.4738
   24SAPC  C210 3170   2.699   3.800   9.685 -0.1734 -0.8473 -0.3215
   24SAPC  H10R 3171   2.632   3.857   9.617  0.7792 -0.5950 -1.0898
   24SAPC  H10S 3172   2.638   3.722   9.733  0.1970 -0.9225  0.0293
   24SAPC  C211 3173   2.812   3.740   9.607 -0.1423 -0.3820  0.0333
   24SAPC  H11R 3174   2.888   3.687   9.668  1.4082 -1.4646 -2.6398
   24SAPC  C212 3175   2.843   3.747   9.475  0.0007 -0.4232  0.9914
   24SAPC  H12R 3176   2.931   3.698   9.432 -0.9076 -1.6144  0.4071
   24SAPC  C213 3177   2.766   3.830   9.371 -0.0388 -0.1011 -0.2146
   24SAPC  H13R 3178   2.656   3.842   9.374  0.0287  0.4208  1.3872
   24SAPC  H13S 3179   2.788   3.770   9.280  0.7481  0.4066 -0.3732
   24SAPC  C214 3180   2.812   3.976   9.366  0.0893 -0.9097  0.4766
   24SAPC  H14R 3181   2.818   4.021   9.466  0.4477  0.0566  0.0394
   24SAPC  C215 3182   2.830   4.054   9.257 -0.1740  0.0473  0.3778
   24SAPC  H15R 3183   2.862   4.159   9.271  1.5022 -0.6171  1.9407
   24SAPC  C216 3184   2.817   4.002   9.112  0.2541 -0.5059  0.4554
   24SAPC  H16R 3185   2.715   4.025   9.072  0.2734 -0.1899  0.5841
   24SAPC  H16S 3186   2.830   3.894   9.090  0.4897  0.1330 -3.2864
   24SAPC  C217 3187   2.917   4.087   9.027  0.0418 -0.1670  0.0976
   24SAPC  H17R 3188   2.908   4.052   8.922 -0.1299  3.7748 -1.3409
   24SAPC  H17S 3189   3.019   4.062   9.064 -0.4752  1.6107  2.9927
   24SAPC  C218 3190   2.907   4.238   9.022 -0.0124 -0.0708  0.6862
   24SAPC  H18R 3191   2.893   4.296   9.116 -0.7643 -0.4825  0.8379
   24SAPC  H18S 3192   2.821   4.250   8.952 -0.3765 -1.3298  0.8928
   24SAPC  C219 3193   3.016   4.289   8.927 -0.3866  0.2913  0.0951
   24SAPC  H19R 3194   3.042   4.207   8.858  1.7354  0.2334  0.8903
   24SAPC  H19S 3195   3.113   4.308   8.978  0.3169 -2.5189 -0.0662
   24SAPC  C220 3196   2.977   4.396   8.825  0.7271  0.2136 -0.2711
   24SAPC  H20R 3197   2.963   4.488   8.886 -2.4206  0.4047 -1.1326
   24SAPC  H20S 3198   2.879   4.371   8.779 -0.1106  2.3009  0.2678
   24SAPC  H20T 3199   3.051   4.404   8.743  0.1585 -4.4677 -1.5604
   24SAPC   C33 3200   3.472   3.855  10.319  0.1068 -0.5448 -0.3224
   24SAPC   H3X 3201   3.366   3.839  10.289  0.3663  0.3361 -1.8477
   24SAPC   H3Y 3202   3.510   3.787  10.397  3.0936  1.2489 -0.0688
   24SAPC   C34 3203   3.559   3.826  10.197  0.4768 -0.0422  0.3042
   24SAPC   H4X 3204   3.531   3.724  10.162  1.2142 -0.5605  1.1654
   24SAPC   H4Y 3205   3.664   3.831  10.233 -0.0110  2.8276  1.6210
   24SAPC   C35 3206   3.527   3.919  10.075  0.4411 -0.4502 -0.4620
   24SAPC   H5X 3207   3.543   4.026  10.098 -0.9617 -0.6081  1.4632
   24SAPC   H5Y 3208   3.418   3.913  10.053  0.4463 -0.7478 -0.4117
   24SAPC   C36 3209   3.617   3.887   9.953 -0.1433  0.1909  0.2783
   24SAPC   H6X 3210   3.720   3.906   9.990  0.8199 -0.8529 -1.7224
   24SAPC   H6Y 3211   3.587   3.955   9.870 -1.1446 -0.1216  0.3813
   24SAPC   C37 3212   3.603   3.743   9.888  0.7058 -0.6374 -0.2515
   24SAPC   H7X 3213   3.646   3.682   9.970  2.8709  0.8766 -0.1617
   24SAPC   H7Y 3214   3.675   3.744   9.804  1.0106  1.4755 -0.0163
   24SAPC   C38 3215   3.460   3.701   9.848 -0.1652 -0.0387 -0.3359
   24SAPC   H8X 3216   3.395   3.695   9.938 -2.1579 -1.0278 -1.7507
   24SAPC   H8Y 3217   3.477   3.600   9.805  2.5701  0.6349 -0.9978
   24SAPC   C39 3218   3.398   3.782   9.740  0.5417 -0.5071 -0.0220
   24SAPC   H9X 3219   3.481   3.784   9.667 -0.6116  1.6715 -1.3835
   24SAPC   H9Y 3220   3.377   3.888   9.768 -0.1914 -0.7489  0.3703
   24SAPC  C310 3221   3.288   3.710   9.669  0.2551  0.0114  0.2017
   24SAPC  H10X 3222   3.194   3.689   9.724  0.3577  1.9214  1.1999
   24SAPC  H10Y 3223   3.324   3.610   9.639  1.1733  0.3292  0.2228
   24SAPC  C311 3224   3.247   3.764   9.528  0.2938 -0.4889 -0.8226
   24SAPC  H11X 3225   3.154   3.715   9.493  0.9592 -0.8787 -2.1253
   24SAPC  H11Y 3226   3.319   3.741   9.446 -0.4060  2.6543 -2.4826
   24SAPC  C312 3227   3.230   3.913   9.536 -0.4522 -0.2518  0.0480
   24SAPC  H12X 3228   3.333   3.951   9.556  0.6701 -3.7408  1.6921
   24SAPC  H12Y 3229   3.178   3.940   9.630  0.9916  1.6162  0.3827
   24SAPC  C313 3230   3.169   3.977   9.412 -0.4703 -0.1416 -0.5246
   24SAPC  H13X 3231   3.071   3.926   9.397  0.3152 -1.4921 -1.1961
   24SAPC  H13Y 3232   3.241   3.950   9.332 -1.2340 -0.0466 -1.2633
   24SAPC  C314 3233   3.166   4.139   9.412  0.3065  0.7505 -0.2018
   24SAPC  H14X 3234   3.119   4.173   9.318 -2.0823  1.4422  1.1548
   24SAPC  H14Y 3235   3.269   4.180   9.414 -0.4649  3.0341 -2.3819
   24SAPC  C315 3236   3.079   4.213   9.508  0.0200 -0.3053  0.3552
   24SAPC  H15X 3237   3.129   4.237   9.604  0.1927 -1.9786  0.7098
   24SAPC  H15Y 3238   3.006   4.139   9.546 -1.5372  1.2091  0.4291
   24SAPC  C316 3239   3.015   4.342   9.450  0.6025  0.1353  0.1934
   24SAPC  H16X 3240   2.942   4.366   9.531  1.1106 -1.3742  1.1406
   24SAPC  H16Y 3241   2.965   4.313   9.355 -1.3757  0.6031  1.0291
   24SAPC  C317 3242   3.114   4.452   9.427 -0.3120 -0.4022  0.5806
   24SAPC  H17X 3243   3.206   4.442   9.487  0.2308  0.6249 -0.0543
   24SAPC  H17Y 3244   3.063   4.549   9.446  1.0708  0.6194 -0.6513
   24SAPC  C318 3245   3.158   4.465   9.278 -0.2385 -0.4733 -0.4333
   24SAPC  H18X 3246   3.066   4.452   9.217  0.2578 -2.7406 -0.7598
   24SAPC  H18Y 3247   3.216   4.381   9.234  0.2114 -0.1680 -0.4317
   24SAPC  H18Z 3248   3.206   4.562   9.253 -1.2207  0.5921  1.5564
   25SAPC     N 3249   6.516   2.601   5.990  0.1868  0.4840  0.0805
   25SAPC   C12 3250   6.608   2.509   6.075 -0.0118  0.1965 -0.4941
   25SAPC  H12A 3251   6.552   2.443   6.141  2.0565 -2.0044 -0.8008
   25SAPC  H12B 3252   6.660   2.583   6.134 -1.6243  0.9751  0.0273
   25SAPC   C13 3253   6.598   2.683   5.902 -0.0381 -0.5314 -0.0141
   25SAPC  H13A 3254   6.536   2.747   5.841  1.0738  0.1535 -0.4660
   25SAPC  H13B 3255   6.666   2.750   5.954 -0.5638  1.3471 -1.6019
   25SAPC  H13C 3256   6.664   2.623   5.841  0.3410  1.6256 -1.8809
   25SAPC   C14 3257   6.423   2.519   5.902 -0.2334 -0.3842  0.0510
   25SAPC  H14A 3258   6.381   2.433   5.951 -0.1993 -1.8006 -2.2329
   25SAPC  H14B 3259   6.339   2.574   5.861 -2.0566 -2.8734  0.2847
   25SAPC  H14C 3260   6.484   2.489   5.818  1.0210  1.8454  0.0966
   25SAPC   C15 3261   6.428   2.678   6.083  0.0362 -0.4212  0.0741
   25SAPC  H15A 3262   6.477   2.740   6.157 -2.9842 -1.0630  2.8632
   25SAPC  H15B 3263   6.358   2.746   6.037 -0.7436 -0.0947  1.6670
   25SAPC  H15C 3264   6.357   2.610   6.129 -0.7481 -2.1296 -3.3664
   25SAPC   C11 3265   6.711   2.411   6.010 -0.3901  0.6500 -0.2111
   25SAPC  H11A 3266   6.771   2.369   6.094 -0.3364  2.6867  0.8332
   25SAPC  H11B 3267   6.794   2.465   5.958  1.7131 -2.5560 -0.4792
   25SAPC     P 3268   6.570   2.186   5.974  0.3156 -0.0698 -0.3405
   25SAPC   O13 3269   6.476   2.144   5.869  0.7276  0.2523  0.2035
   25SAPC   O14 3270   6.654   2.085   6.037 -0.0663 -0.5172 -0.2817
   25SAPC   O12 3271   6.656   2.309   5.921  0.2874  0.1203 -0.1730
   25SAPC   O11 3272   6.484   2.253   6.093  0.2229 -0.9467  0.0052
   25SAPC    C1 3273   6.353   2.213   6.134 -0.3232 -0.4587 -0.4405
   25SAPC    HA 3274   6.274   2.277   6.090  0.2316  2.1476  2.0503
   25SAPC    HB 3275   6.349   2.105   6.108  2.9176 -0.6855 -0.3896
   25SAPC    C2 3276   6.328   2.222   6.282  0.0945 -0.6161  0.4047
   25SAPC    HS 3277   6.289   2.324   6.306 -2.4748 -1.2476 -0.7984
   25SAPC   O21 3278   6.445   2.186   6.361  0.2979 -0.5011 -0.1380
   25SAPC   C21 3279   6.532   2.280   6.373  0.4540 -0.6518 -0.6170
   25SAPC   O22 3280   6.523   2.395   6.333 -0.4844 -0.2679  0.8802
   25SAPC   C22 3281   6.646   2.228   6.470 -0.2821 -0.2186  0.1233
   25SAPC   H2R 3282   6.668   2.309   6.543 -0.4702  0.7416 -0.8522
   25SAPC   H2S 3283   6.610   2.136   6.520 -0.6862 -1.1997 -1.8646
   25SAPC    C3 3284   6.213   2.125   6.315  0.3920  0.4152 -0.6409
   25SAPC    HX 3285   6.241   2.019   6.296  1.5669  0.7206 -0.7033
   25SAPC    HY 3286   6.128   2.145   6.247  1.0027 -0.8737 -1.8277
   25SAPC   O31 3287   6.173   2.143   6.452 -0.3105 -0.0409 -0.1557
   25SAPC   C31 3288   6.081   2.224   6.491  0.3689  0.3199  0.5469
   25SAPC   O32 3289   6.006   2.294   6.419 -0.1705 -0.1666 -0.4003
   25SAPC   C32 3290   6.096   2.242   6.642  0.3277 -0.8997 -0.1548
   25SAPC   H2X 3291   6.180   2.310   6.665 -2.0251  3.4072 -2.9605
   25SAPC   H2Y 3292   6.097   2.142   6.691 -1.8261 -0.0647  1.7790
   25SAPC   C23 3293   6.777   2.193   6.382 -0.3436  0.5855 -0.9326
   25SAPC   H3R 3294   6.828   2.281   6.337  0.7400  0.9319  0.8480
   25SAPC   H3S 3295   6.741   2.124   6.303  1.5952  1.1988 -2.4185
   25SAPC   C24 3296   6.877   2.130   6.484 -0.0835 -0.5211  0.5846
   25SAPC   H4R 3297   6.825   2.047   6.537 -2.4487 -1.7566 -3.2468
   25SAPC   H4S 3298   6.913   2.205   6.557 -0.0016 -0.9669  1.0096
   25SAPC   C25 3299   6.992   2.084   6.393 -0.5338  0.8837 -0.0954
   25SAPC   H5R 3300   7.016   2.156   6.314  0.2001  0.7161 -0.0353
   25SAPC   C26 3301   7.070   1.973   6.401  0.3328  0.0208 -0.3634
   25SAPC   H6R 3302   7.152   1.970   6.328  2.1785  2.1868  1.4659
   25SAPC   C27 3303   7.056   1.854   6.502 -0.3220  0.2182  0.6557
   25SAPC   H7R 3304   7.082   1.762   6.445 -1.8024  1.0706 -1.5542
   25SAPC   H7S 3305   6.950   1.841   6.535 -1.4710  3.2489 -1.3906
   25SAPC   C28 3306   7.138   1.864   6.625 -0.2982 -0.1850 -0.5009
   25SAPC   H8R 3307   7.243   1.866   6.593 -0.6487  0.8934 -1.6527
   25SAPC   C29 3308   7.108   1.873   6.752 -0.2324  0.2171 -0.1490
   25SAPC   H9R 3309   7.194   1.880   6.820 -0.6938  0.9656  0.3647
   25SAPC  C210 3310   6.972   1.883   6.816 -0.1967 -0.4048  0.1230
   25SAPC  H10R 3311   6.965   1.795   6.884  1.3510 -0.5181  0.1843
   25SAPC  H10S 3312   6.900   1.861   6.735  0.6960 -0.3712 -0.7064
   25SAPC  C211 3313   6.954   2.013   6.890  0.3697  0.2911 -0.1042
   25SAPC  H11R 3314   6.988   2.103   6.836 -0.6247  0.2382 -0.8534
   25SAPC  C212 3315   6.916   2.031   7.022  0.1314 -0.4323 -0.0490
   25SAPC  H12R 3316   6.907   2.137   7.049  1.6707 -0.3764  0.3882
   25SAPC  C213 3317   6.876   1.930   7.129  0.2989 -0.5487 -0.5650
   25SAPC  H13R 3318   6.804   1.859   7.082 -2.1330  1.1023  0.4678
   25SAPC  H13S 3319   6.814   1.981   7.205 -1.1264 -0.7207 -1.5641
   25SAPC  C214 3320   7.003   1.874   7.186 -0.7389 -0.2311  0.5769
   25SAPC  H14R 3321   7.045   1.794   7.123  0.5357  2.3941 -2.1466
   25SAPC  C215 3322   7.057   1.901   7.305 -0.2951 -0.2991 -0.1976
   25SAPC  H15R 3323   7.136   1.831   7.336 -1.4315 -1.4199  0.2872
   25SAPC  C216 3324   7.006   1.990   7.419 -0.2532 -0.2433 -0.3869
   25SAPC  H16R 3325   6.932   2.067   7.387 -0.2083  0.4093  1.0208
   25SAPC  H16S 3326   7.100   2.042   7.447 -0.4271 -0.5722  0.8731
   25SAPC  C217 3327   6.946   1.921   7.542  0.2970  0.2049  0.6950
   25SAPC  H17R 3328   7.012   1.835   7.564 -1.3596 -1.6889 -1.2427
   25SAPC  H17S 3329   6.846   1.880   7.516  0.2754  0.0756  0.9830
   25SAPC  C218 3330   6.905   2.014   7.663  0.2030 -0.7096  0.0733
   25SAPC  H18R 3331   6.842   2.096   7.623  1.9231  1.1998  1.0218
   25SAPC  H18S 3332   6.992   2.064   7.712 -0.6550 -0.3352  1.2702
   25SAPC  C219 3333   6.830   1.936   7.779  0.2299  0.3321  0.1203
   25SAPC  H19R 3334   6.901   1.855   7.809 -1.9380 -2.0152 -0.7368
   25SAPC  H19S 3335   6.742   1.881   7.739 -0.5541  0.4402  1.6208
   25SAPC  C220 3336   6.780   2.027   7.895  0.4164  0.0793  0.2395
   25SAPC  H20R 3337   6.709   1.984   7.969  0.0782  1.0814  0.5131
   25SAPC  H20S 3338   6.713   2.100   7.845 -0.2732  0.2343  1.3463
   25SAPC  H20T 3339   6.869   2.072   7.943  2.7031  1.0306 -4.3144
   25SAPC   C33 3340   5.980   2.313   6.712  0.9944 -0.0269 -0.7547
   25SAPC   H3X 3341   5.893   2.249   6.688  0.2267  0.2804  1.0469
   25SAPC   H3Y 3342   5.964   2.417   6.676  1.3048  0.4913  0.5516
   25SAPC   C34 3343   6.004   2.327   6.864 -0.3136 -0.2777  0.3206
   25SAPC   H4X 3344   5.931   2.401   6.903  0.1341 -0.3772  1.3874
   25SAPC   H4Y 3345   6.106   2.369   6.880 -0.6481  1.2626 -1.3103
   25SAPC   C35 3346   5.992   2.194   6.939  0.6188  0.2574  0.1072
   25SAPC   H5X 3347   6.024   2.104   6.882 -3.0168 -1.6591  0.7593
   25SAPC   H5Y 3348   5.884   2.173   6.958  0.7585 -0.2615  0.3351
   25SAPC   C36 3349   6.049   2.191   7.082  0.3272 -0.2409 -0.4811
   25SAPC   H6X 3350   6.151   2.236   7.088  0.3044 -0.1095 -1.0458
   25SAPC   H6Y 3351   6.061   2.087   7.117 -0.1949  0.9856  3.9776
   25SAPC   C37 3352   5.974   2.268   7.192 -0.1355 -0.7876  0.2933
   25SAPC   H7X 3353   5.876   2.216   7.192 -0.2034 -0.6631  0.1362
   25SAPC   H7Y 3354   5.979   2.373   7.155  1.3075 -1.4840 -1.6751
   25SAPC   C38 3355   6.023   2.239   7.331  0.0426  0.5579  1.1709
   25SAPC   H8X 3356   6.134   2.244   7.326  0.4000 -3.6997  0.7469
   25SAPC   H8Y 3357   5.998   2.136   7.366  0.4504 -0.2323 -0.7630
   25SAPC   C39 3358   5.963   2.322   7.434  0.5211 -0.2908 -0.2399
   25SAPC   H9X 3359   5.854   2.311   7.420  0.4515 -1.6839  1.1195
   25SAPC   H9Y 3360   5.996   2.426   7.411  4.6384 -1.2484  0.5799
   25SAPC  C310 3361   6.007   2.282   7.577  0.6312 -0.4395 -0.2418
   25SAPC  H10X 3362   6.117   2.302   7.585  0.3481  1.5202 -0.5507
   25SAPC  H10Y 3363   5.980   2.176   7.595 -0.8156 -0.2299 -1.0494
   25SAPC  C311 3364   5.929   2.363   7.682 -0.3472 -0.1536 -0.2444
   25SAPC  H11X 3365   5.828   2.317   7.688 -0.5845  0.2437 -1.0816
   25SAPC  H11Y 3366   5.900   2.466   7.653 -3.0031 -1.2537 -1.8835
   25SAPC  C312 3367   5.988   2.359   7.819 -0.3348  0.9337  0.5293
   25SAPC  H12X 3368   6.053   2.447   7.841  2.4198 -0.8047 -0.0583
   25SAPC  H12Y 3369   6.062   2.278   7.833 -1.0637 -0.0226 -0.8923
   25SAPC  C313 3370   5.880   2.358   7.925  0.4349  0.0663  0.0263
   25SAPC  H13X 3371   5.808   2.278   7.894  2.9326 -2.0937 -0.5530
   25SAPC  H13Y 3372   5.829   2.456   7.931 -0.8326 -0.5924  0.4551
   25SAPC  C314 3373   5.941   2.316   8.059 -0.0320  0.5923 -0.1197
   25SAPC  H14X 3374   6.028   2.381   8.084  0.6690 -1.3881  3.0854
   25SAPC  H14Y 3375   5.988   2.216   8.051  1.7506  1.3580  0.3736
   25SAPC  C315 3376   5.839   2.324   8.170  0.1930 -0.2224  0.0482
   25SAPC  H15X 3377   5.883   2.261   8.250 -0.5672 -0.1026  0.5617
   25SAPC  H15Y 3378   5.742   2.280   8.139  0.0206 -0.4491  0.8886
   25SAPC  C316 3379   5.811   2.468   8.226 -0.3391  0.4907 -0.3286
   25SAPC  H16X 3380   5.750   2.532   8.159  0.2807  1.6787  0.2142
   25SAPC  H16Y 3381   5.909   2.515   8.250 -0.3944  0.3873  0.1084
   25SAPC  C317 3382   5.748   2.458   8.374  0.1861 -0.7416  0.7191
   25SAPC  H17X 3383   5.699   2.554   8.399  0.7828 -0.1561 -0.2750
   25SAPC  H17Y 3384   5.826   2.453   8.452 -0.1650  1.0995  1.2375
   25SAPC  C318 3385   5.650   2.341   8.396  1.0054 -0.3407  0.5990
   25SAPC  H18X 3386   5.561   2.354   8.329  0.3865  0.5273  1.5583
   25SAPC  H18Y 3387   5.600   2.358   8.493  0.2336  2.0088 -0.1421
   25SAPC  H18Z 3388   5.685   2.237   8.409  1.7463 -0.2247 -0.3478
   26SAPC     N 3389   5.405   3.424   5.931 -0.4433 -0.7250 -0.1548
   26SAPC   C12 3390   5.508   3.510   5.860 -0.5539 -0.0432 -0.2181
   26SAPC  H12A 3391   5.454   3.558   5.780 -1.0007 -1.4439 -0.7968
   26SAPC  H12B 3392   5.574   3.443   5.807  0.0837  1.2672 -1.1135
   26SAPC   C13 3393   5.480   3.334   6.022  0.0216  0.3060 -0.1383
   26SAPC  H13A 3394   5.513   3.242   5.977 -2.3884 -0.8748  0.3213
   26SAPC  H13B 3395   5.570   3.372   6.069 -0.4646 -0.3298  1.3660
   26SAPC  H13C 3396   5.411   3.296   6.097 -0.7382  0.0271 -0.9632
   26SAPC   C14 3397   5.318   3.508   6.022 -0.4651  0.5896 -0.2280
   26SAPC  H14A 3398   5.245   3.562   5.964  1.2808  1.7302 -1.4602
   26SAPC  H14B 3399   5.269   3.444   6.094  2.7541 -2.1474 -0.1822
   26SAPC  H14C 3400   5.383   3.573   6.080  0.3099  0.8701 -1.3801
   26SAPC   C15 3401   5.321   3.342   5.837  0.6394  0.3429 -0.1026
   26SAPC  H15A 3402   5.355   3.246   5.802 -1.2874 -0.4214  0.0032
   26SAPC  H15B 3403   5.235   3.321   5.898  0.2927 -2.4088 -1.4057
   26SAPC  H15C 3404   5.286   3.394   5.749 -1.4469  0.6047  0.8258
   26SAPC   C11 3405   5.593   3.607   5.942 -0.4191 -0.4846 -0.9211
   26SAPC  H11A 3406   5.523   3.687   5.975 -1.4830 -1.3694 -0.9648
   26SAPC  H11B 3407   5.665   3.660   5.877  0.3927  0.0634  0.3868
   26SAPC     P 3408   5.776   3.614   6.136 -0.1274 -0.5577 -0.0260
   26SAPC   O13 3409   5.879   3.507   6.162  0.1215 -0.3553 -0.0194
   26SAPC   O14 3410   5.820   3.745   6.080 -0.2491  0.0903  0.1480
   26SAPC   O12 3411   5.663   3.545   6.052 -0.3133 -0.1608  0.1445
   26SAPC   O11 3412   5.712   3.646   6.278  0.7703  0.0174  0.7992
   26SAPC    C1 3413   5.604   3.565   6.339 -0.7831 -0.4263 -0.5983
   26SAPC    HA 3414   5.564   3.607   6.434 -2.5103 -1.9360 -0.6134
   26SAPC    HB 3415   5.524   3.544   6.265 -2.1493 -1.0845  1.0045
   26SAPC    C2 3416   5.654   3.422   6.381  0.2704  1.2595 -0.3787
   26SAPC    HS 3417   5.677   3.371   6.285 -2.7186 -0.4988 -0.2777
   26SAPC   O21 3418   5.547   3.375   6.457  0.0076 -0.9329 -0.0554
   26SAPC   C21 3419   5.526   3.244   6.465  0.1383  0.0882 -0.3241
   26SAPC   O22 3420   5.588   3.161   6.408 -0.4217  0.2292  0.7299
   26SAPC   C22 3421   5.416   3.218   6.574 -0.4624  0.3708 -0.3078
   26SAPC   H2R 3422   5.446   3.279   6.662  1.1209 -0.0110 -0.5461
   26SAPC   H2S 3423   5.316   3.256   6.543 -1.0987 -0.1813  0.9841
   26SAPC    C3 3424   5.780   3.419   6.459  0.2079  0.0804 -0.3986
   26SAPC    HX 3425   5.860   3.462   6.395  0.2762  0.0951 -0.3039
   26SAPC    HY 3426   5.812   3.315   6.484 -1.1703 -0.1045  0.6915
   26SAPC   O31 3427   5.772   3.497   6.577  0.2399 -0.3982 -0.0655
   26SAPC   C31 3428   5.766   3.430   6.695  0.8898  0.3400  0.8032
   26SAPC   O32 3429   5.763   3.308   6.702 -0.3132 -0.4650  0.7273
   26SAPC   C32 3430   5.782   3.530   6.813  0.0725 -0.3332 -0.1765
   26SAPC   H2X 3431   5.688   3.590   6.814 -0.3572 -0.9410  1.6129
   26SAPC   H2Y 3432   5.869   3.592   6.787 -0.6941  1.2389  0.8131
   26SAPC   C23 3433   5.407   3.070   6.607 -0.3920  0.1751  0.1525
   26SAPC   H3R 3434   5.481   3.008   6.552 -1.8600  0.4370 -2.2342
   26SAPC   H3S 3435   5.306   3.029   6.587  0.0048 -0.7258 -0.0556
   26SAPC   C24 3436   5.410   3.043   6.753 -0.2805  0.3212 -0.0616
   26SAPC   H4R 3437   5.359   2.945   6.769 -1.9660  1.2699  0.7194
   26SAPC   H4S 3438   5.350   3.122   6.804 -2.3045 -0.4510 -1.1251
   26SAPC   C25 3439   5.553   3.037   6.801  0.3858 -0.1941  0.3397
   26SAPC   H5R 3440   5.615   2.964   6.747 -0.7476 -0.6685 -0.3736
   26SAPC   C26 3441   5.587   3.088   6.920  0.5272  0.4570  0.6326
   26SAPC   H6R 3442   5.691   3.074   6.956  0.1852  0.6139  1.7420
   26SAPC   C27 3443   5.508   3.157   7.027 -0.4970 -0.0496 -0.0366
   26SAPC   H7R 3444   5.402   3.167   6.996 -0.5849  0.1028  0.3014
   26SAPC   H7S 3445   5.539   3.261   7.052 -2.1637  0.2045  1.1636
   26SAPC   C28 3446   5.500   3.065   7.151  0.5987 -0.4681  0.4836
   26SAPC   H8R 3447   5.521   2.958   7.137  1.3664 -0.3111  0.4228
   26SAPC   C29 3448   5.462   3.098   7.274 -1.0567  0.1314 -0.0531
   26SAPC   H9R 3449   5.485   3.023   7.352 -0.1012 -1.1175 -1.4624
   26SAPC  C210 3450   5.431   3.235   7.331 -0.2451  0.3524  0.5426
   26SAPC  H10R 3451   5.409   3.311   7.254 -0.8692 -0.1226  0.2452
   26SAPC  H10S 3452   5.527   3.271   7.374 -0.1007 -1.3545  1.7831
   26SAPC  C211 3453   5.313   3.233   7.428 -0.2204 -0.1721  0.6281
   26SAPC  H11R 3454   5.222   3.202   7.374  2.5019 -2.0374 -3.3821
   26SAPC  C212 3455   5.304   3.272   7.553  0.5213  0.6186 -0.5992
   26SAPC  H12R 3456   5.212   3.257   7.611  1.9206  0.1518  1.5917
   26SAPC  C213 3457   5.426   3.330   7.628  0.6978  0.3963 -0.0034
   26SAPC  H13R 3458   5.473   3.400   7.556  0.8346  0.6681  0.3435
   26SAPC  H13S 3459   5.492   3.243   7.647 -2.5129 -2.0518  0.8165
   26SAPC  C214 3460   5.407   3.407   7.755  0.4314 -0.5501 -0.7059
   26SAPC  H14R 3461   5.476   3.490   7.771 -3.2581  2.5162  1.0279
   26SAPC  C215 3462   5.350   3.352   7.869  0.0468 -0.0310  0.1343
   26SAPC  H15R 3463   5.343   3.414   7.959 -0.5731 -0.0618  0.1138
   26SAPC  C216 3464   5.276   3.220   7.892 -0.0467  0.0619 -0.7732
   26SAPC  H16R 3465   5.338   3.131   7.918 -0.0755  0.5634  1.1549
   26SAPC  H16S 3466   5.219   3.193   7.800  1.9011 -2.8619 -1.2532
   26SAPC  C217 3467   5.182   3.225   8.009  0.7915 -0.4302  0.5246
   26SAPC  H17R 3468   5.149   3.119   8.015 -3.4336  0.5338 -1.5103
   26SAPC  H17S 3469   5.091   3.289   8.006 -0.2757 -1.7555  2.6358
   26SAPC  C218 3470   5.248   3.255   8.150  0.0491  0.2034  0.6998
   26SAPC  H18R 3471   5.283   3.360   8.162  2.4510  0.1997 -3.9436
   26SAPC  H18S 3472   5.344   3.199   8.161 -0.8739 -1.6353 -0.1347
   26SAPC  C219 3473   5.156   3.217   8.266 -0.5423  0.1399 -0.3274
   26SAPC  H19R 3474   5.147   3.107   8.266  1.7801 -0.0930 -0.6727
   26SAPC  H19S 3475   5.060   3.270   8.243 -0.4868  1.2823  1.8719
   26SAPC  C220 3476   5.202   3.266   8.401  0.0586  0.3552 -0.0365
   26SAPC  H20R 3477   5.217   3.376   8.405  2.5983  0.0995 -0.8312
   26SAPC  H20S 3478   5.294   3.217   8.439  0.6752  1.5701  0.0697
   26SAPC  H20T 3479   5.121   3.220   8.461  1.2461 -0.4685  0.9779
   26SAPC   C33 3480   5.791   3.460   6.952 -0.7998 -0.2170  0.0617
   26SAPC   H3X 3481   5.870   3.382   6.958 -0.7685 -0.1173  0.9844
   26SAPC   H3Y 3482   5.693   3.409   6.964 -1.3570  0.7840 -0.1730
   26SAPC   C34 3483   5.772   3.555   7.069  0.2222  0.1626  0.2609
   26SAPC   H4X 3484   5.713   3.641   7.029  0.0192 -0.8730 -1.8183
   26SAPC   H4Y 3485   5.867   3.601   7.102  1.1967 -0.9799 -0.8529
   26SAPC   C35 3486   5.716   3.492   7.198  0.2871 -0.1690  0.0887
   26SAPC   H5X 3487   5.799   3.440   7.252  0.3754 -0.5947 -0.4467
   26SAPC   H5Y 3488   5.634   3.422   7.174  0.8361 -1.3893  1.5890
   26SAPC   C36 3489   5.671   3.589   7.308  0.8002  0.1376  0.8779
   26SAPC   H6X 3490   5.752   3.663   7.323 -2.0629  3.8699 -0.2648
   26SAPC   H6Y 3491   5.677   3.527   7.401 -0.2190  1.1303  1.6405
   26SAPC   C37 3492   5.528   3.647   7.286 -0.6464  0.1972  0.2633
   26SAPC   H7X 3493   5.451   3.573   7.255  1.5560 -1.7717 -0.8182
   26SAPC   H7Y 3494   5.547   3.717   7.201  4.1971 -1.9379 -0.7297
   26SAPC   C38 3495   5.485   3.724   7.406 -0.1898 -0.5364  0.3909
   26SAPC   H8X 3496   5.542   3.819   7.419  0.6607 -1.2945  2.7639
   26SAPC   H8Y 3497   5.506   3.668   7.500  0.4904 -1.5168 -0.3337
   26SAPC   C39 3498   5.336   3.749   7.411  0.7912  0.1644  0.4070
   26SAPC   H9X 3499   5.270   3.660   7.396 -1.5762  2.1700 -2.0644
   26SAPC   H9Y 3500   5.315   3.804   7.317  0.5771  0.4090  0.5994
   26SAPC  C310 3501   5.298   3.832   7.533  0.2010 -0.4258  1.0126
   26SAPC  H10X 3502   5.189   3.849   7.522  0.3010  1.5671  2.6550
   26SAPC  H10Y 3503   5.340   3.933   7.516  0.7226 -0.4773  1.9444
   26SAPC  C311 3504   5.330   3.771   7.678 -0.8769 -1.0733  0.5650
   26SAPC  H11X 3505   5.439   3.782   7.697 -1.1567 -0.8733  2.1505
   26SAPC  H11Y 3506   5.311   3.662   7.680  2.9548 -1.9439 -1.3170
   26SAPC  C312 3507   5.271   3.861   7.783  0.1043 -0.5244 -0.3898
   26SAPC  H12X 3508   5.165   3.884   7.759 -1.2454 -4.1280  1.3082
   26SAPC  H12Y 3509   5.345   3.943   7.795  2.1460 -2.3767  0.2759
   26SAPC  C313 3510   5.263   3.803   7.927 -0.6570  0.0507 -0.1221
   26SAPC  H13X 3511   5.208   3.707   7.926 -1.1732  0.2462  2.5607
   26SAPC  H13Y 3512   5.217   3.876   7.997 -0.4944  0.9947 -0.9715
   26SAPC  C314 3513   5.405   3.775   7.983  0.2194  0.8306 -0.7893
   26SAPC  H14X 3514   5.460   3.869   8.004 -0.7843  1.2964 -0.1645
   26SAPC  H14Y 3515   5.471   3.720   7.913 -0.6315 -0.2371 -0.7773
   26SAPC  C315 3516   5.411   3.703   8.117 -0.1150  0.8197  0.4234
   26SAPC  H15X 3517   5.513   3.708   8.161  0.7426  1.4315 -1.5106
   26SAPC  H15Y 3518   5.384   3.596   8.100 -1.3938  1.2598 -0.4154
   26SAPC  C316 3519   5.314   3.754   8.227  0.3262  0.2641 -0.1872
   26SAPC  H16X 3520   5.209   3.745   8.193 -0.5285  0.0761  2.3109
   26SAPC  H16Y 3521   5.335   3.863   8.225 -0.0612  0.3288 -0.8194
   26SAPC  C317 3522   5.339   3.705   8.372  0.5892 -0.2964 -0.1397
   26SAPC  H17X 3523   5.447   3.719   8.394  0.3040 -0.9972  1.8969
   26SAPC  H17Y 3524   5.298   3.602   8.369  1.9049 -0.8232 -0.3669
   26SAPC  C318 3525   5.254   3.775   8.489 -0.1710 -0.0310 -0.4839
   26SAPC  H18X 3526   5.289   3.880   8.500  0.9394 -0.4815  0.4165
   26SAPC  H18Y 3527   5.271   3.715   8.581 -1.1127  0.4782  0.0384
   26SAPC  H18Z 3528   5.146   3.761   8.466 -0.3732 -2.9038  1.6807
   27SAPC     N 3529   4.263   4.489   6.593  0.1540  0.5832 -0.1679
   27SAPC   C12 3530   4.203   4.423   6.715 -0.1964 -0.3472 -0.0148
   27SAPC  H12A 3531   4.131   4.493   6.755  0.8139  0.2400  0.8050
   27SAPC  H12B 3532   4.276   4.409   6.793 -0.2512 -0.3557  0.0346
   27SAPC   C13 3533   4.366   4.396   6.540 -0.7289  0.5915 -0.4408
   27SAPC  H13A 3534   4.438   4.371   6.616 -3.1374  1.4352  2.3076
   27SAPC  H13B 3535   4.338   4.295   6.515  1.6167 -0.4574  0.8785
   27SAPC  H13C 3536   4.412   4.445   6.456 -0.8217  0.1872 -0.7319
   27SAPC   C14 3537   4.160   4.502   6.493  0.6135 -0.2502  0.9284
   27SAPC  H14A 3538   4.199   4.549   6.403 -0.6206  0.8235  0.9320
   27SAPC  H14B 3539   4.124   4.405   6.462 -0.8021  0.5435 -0.0100
   27SAPC  H14C 3540   4.071   4.554   6.523  0.3540  0.7507 -1.3758
   27SAPC   C15 3541   4.325   4.629   6.619  0.7163  0.1295 -0.2749
   27SAPC  H15A 3542   4.248   4.704   6.623  1.0113  0.5867 -2.1974
   27SAPC  H15B 3543   4.382   4.629   6.711  0.5410  0.5621 -0.1632
   27SAPC  H15C 3544   4.392   4.666   6.543  0.1009 -1.0578 -1.4483
   27SAPC   C11 3545   4.123   4.293   6.699  0.0724 -0.0119 -0.8448
   27SAPC  H11A 3546   4.032   4.323   6.644 -0.5859 -4.6192 -2.6502
   27SAPC  H11B 3547   4.090   4.253   6.797  1.5334 -3.1599 -1.5314
   27SAPC     P 3548   4.096   4.060   6.614 -0.0447  0.1153 -0.0237
   27SAPC   O13 3549   3.987   4.104   6.527  0.3813  0.2859  0.0062
   27SAPC   O14 3550   4.190   3.953   6.573  0.3636  0.3317 -0.1856
   27SAPC   O12 3551   4.189   4.187   6.630 -0.2575 -0.0397  0.8852
   27SAPC   O11 3552   4.043   4.037   6.760  0.4824 -0.2933  0.1587
   27SAPC    C1 3553   4.100   3.949   6.856  0.4915  0.2410  0.1422
   27SAPC    HA 3554   4.088   3.840   6.839 -1.0640  0.3195  0.5847
   27SAPC    HB 3555   4.208   3.978   6.861  0.7417 -0.7686  0.9023
   27SAPC    C2 3556   4.043   3.977   7.000  0.3980 -0.7394  0.3317
   27SAPC    HS 3557   4.071   4.083   7.023  1.7463 -0.8481 -0.6678
   27SAPC   O21 3558   4.103   3.895   7.097 -0.6112 -0.7462  0.5419
   27SAPC   C21 3559   4.228   3.939   7.131  0.5302 -0.1513 -0.7739
   27SAPC   O22 3560   4.281   4.038   7.088  0.4183 -0.3218  0.2399
   27SAPC   C22 3561   4.267   3.855   7.252  0.5035 -0.5222 -0.7932
   27SAPC   H2R 3562   4.296   3.763   7.197  1.2841 -0.4133 -0.5720
   27SAPC   H2S 3563   4.349   3.909   7.303  0.1385  0.1611 -0.9210
   27SAPC    C3 3564   3.889   3.974   7.011 -0.4760  0.1951  0.8336
   27SAPC    HX 3565   3.852   3.869   7.008  0.4015 -0.1135 -0.4191
   27SAPC    HY 3566   3.845   4.017   6.918  0.9546 -0.8174 -0.3651
   27SAPC   O31 3567   3.830   4.033   7.122  0.1545  0.6683 -0.2770
   27SAPC   C31 3568   3.844   4.169   7.140  0.9508 -0.4270 -0.4739
   27SAPC   O32 3569   3.895   4.245   7.062 -0.2046  0.5527  0.6331
   27SAPC   C32 3570   3.789   4.205   7.277 -0.1155  0.7316  0.2751
   27SAPC   H2X 3571   3.851   4.150   7.351  2.3726  0.7625 -1.6464
   27SAPC   H2Y 3572   3.683   4.175   7.285  0.4120 -1.6275 -0.6433
   27SAPC   C23 3573   4.154   3.833   7.356 -0.1302 -0.1406 -0.3059
   27SAPC   H3R 3574   4.177   3.760   7.437 -1.9311 -1.7913 -1.1902
   27SAPC   H3S 3575   4.066   3.786   7.306  0.0067 -1.5805  0.7362
   27SAPC   C24 3576   4.113   3.972   7.419  0.4720  0.1246  0.0878
   27SAPC   H4R 3577   4.030   3.949   7.490  0.5322 -3.2037 -0.7192
   27SAPC   H4S 3578   4.077   4.033   7.334  3.4927  2.2962  0.1989
   27SAPC   C25 3579   4.220   4.051   7.493 -0.6584 -0.1418 -0.2668
   27SAPC   H5R 3580   4.306   4.084   7.433 -0.2363 -1.0928 -0.1974
   27SAPC   C26 3581   4.228   4.085   7.624  0.3722 -0.5933  0.1358
   27SAPC   H6R 3582   4.315   4.145   7.653  0.0764  0.2588 -0.6756
   27SAPC   C27 3583   4.125   4.052   7.732 -0.7112 -0.2394 -0.4673
   27SAPC   H7R 3584   4.053   3.979   7.691 -0.1299 -0.8144 -0.4742
   27SAPC   H7S 3585   4.064   4.139   7.765  0.1604  0.9231 -1.7979
   27SAPC   C28 3586   4.203   3.978   7.838  0.2995 -0.2756 -0.2722
   27SAPC   H8R 3587   4.195   3.869   7.825 -1.5318 -0.2060 -0.0205
   27SAPC   C29 3588   4.260   4.034   7.949  0.7484  0.2523  0.1814
   27SAPC   H9R 3589   4.297   3.960   8.021 -0.5880 -0.2021  0.4361
   27SAPC  C210 3590   4.268   4.184   7.987 -0.3694  0.3241  0.0747
   27SAPC  H10R 3591   4.288   4.239   7.893 -1.0865 -1.8560 -1.4515
   27SAPC  H10S 3592   4.357   4.213   8.047  0.5429 -0.4694 -0.8469
   27SAPC  C211 3593   4.140   4.227   8.049 -0.2722 -0.1746  0.3127
   27SAPC  H11R 3594   4.057   4.199   7.981  1.5430  0.0192 -2.1145
   27SAPC  C212 3595   4.115   4.283   8.161 -0.3672  0.5034  0.4516
   27SAPC  H12R 3596   4.019   4.331   8.186  0.4363  1.5479  1.7183
   27SAPC  C213 3597   4.207   4.326   8.272 -0.2172 -0.7065  0.7451
   27SAPC  H13R 3598   4.202   4.434   8.300 -0.7093 -0.6921  0.6129
   27SAPC  H13S 3599   4.308   4.319   8.227 -0.2253  3.5535 -0.3701
   27SAPC  C214 3600   4.175   4.246   8.398  1.0815 -0.3479  0.7612
   27SAPC  H14R 3601   4.089   4.282   8.456 -0.1144 -0.0253 -1.0929
   27SAPC  C215 3602   4.252   4.146   8.447  0.1281  0.4709 -0.1244
   27SAPC  H15R 3603   4.227   4.108   8.547 -0.1285 -3.1120 -1.3823
   27SAPC  C216 3604   4.372   4.087   8.379 -0.3147 -1.0754 -0.1782
   27SAPC  H16R 3605   4.386   4.122   8.275  1.2264 -1.9631 -0.2915
   27SAPC  H16S 3606   4.354   3.977   8.379  0.2989 -1.1808  0.1534
   27SAPC  C217 3607   4.505   4.126   8.444  0.2789  0.5921  0.5950
   27SAPC  H17R 3608   4.585   4.084   8.380  0.9438  1.8533  0.5549
   27SAPC  H17S 3609   4.512   4.091   8.550  2.1999  2.0795  1.0290
   27SAPC  C218 3610   4.534   4.278   8.444 -0.1390 -0.5025  0.1553
   27SAPC  H18R 3611   4.450   4.336   8.488  0.6878 -0.2401  1.4002
   27SAPC  H18S 3612   4.542   4.309   8.337 -3.2892  0.3737  0.0539
   27SAPC  C219 3613   4.667   4.317   8.514 -0.3625 -0.5735 -0.0948
   27SAPC  H19R 3614   4.753   4.273   8.459  0.9284  1.9401 -0.2293
   27SAPC  H19S 3615   4.669   4.286   8.620 -0.2425 -2.4192 -0.6093
   27SAPC  C220 3616   4.684   4.469   8.521  0.2046 -0.1263  0.6733
   27SAPC  H20R 3617   4.648   4.504   8.422  1.0017 -1.7915 -0.2517
   27SAPC  H20S 3618   4.786   4.498   8.553 -0.3211 -0.3035  2.6737
   27SAPC  H20T 3619   4.608   4.508   8.592  1.6519 -0.6812  2.6235
   27SAPC   C33 3620   3.791   4.362   7.304 -0.3440 -0.0840 -0.0528
   27SAPC   H3X 3621   3.703   4.396   7.362 -1.7659 -0.6117 -1.8059
   27SAPC   H3Y 3622   3.794   4.416   7.207  0.4291 -0.0924 -0.0372
   27SAPC   C34 3623   3.914   4.404   7.378  0.2584  0.0983  0.2040
   27SAPC   H4X 3624   3.903   4.514   7.391  0.2903  0.0248  0.9377
   27SAPC   H4Y 3625   4.007   4.369   7.329  1.8579  0.1867  2.9847
   27SAPC   C35 3626   3.933   4.347   7.519  0.3873  0.7489 -0.0929
   27SAPC   H5X 3627   3.949   4.238   7.509 -2.0496  0.2479  0.7636
   27SAPC   H5Y 3628   3.846   4.362   7.585 -0.0803  1.0138 -0.7545
   27SAPC   C36 3629   4.055   4.415   7.591  0.2345  0.0600  0.0577
   27SAPC   H6X 3630   4.129   4.430   7.510  0.3682 -0.7308  0.0261
   27SAPC   H6Y 3631   4.097   4.338   7.659 -1.1456  0.0071  0.8753
   27SAPC   C37 3632   4.018   4.548   7.650  0.9162  0.7249 -0.0142
   27SAPC   H7X 3633   3.956   4.615   7.587 -0.7885  0.2941  1.1070
   27SAPC   H7Y 3634   4.104   4.602   7.696  1.7821 -0.9586  0.4150
   27SAPC   C38 3635   3.930   4.534   7.780 -0.3648  0.2647 -0.6194
   27SAPC   H8X 3636   3.967   4.444   7.834 -0.3520 -1.3727 -3.2057
   27SAPC   H8Y 3637   3.824   4.508   7.760 -0.7231  1.7083 -0.7393
   27SAPC   C39 3638   3.932   4.654   7.875  0.1257  0.3596  0.1806
   27SAPC   H9X 3639   3.875   4.744   7.843 -0.6426 -0.1523  0.0657
   27SAPC   H9Y 3640   4.035   4.689   7.895 -0.5299  1.6284  1.4918
   27SAPC  C310 3641   3.878   4.624   8.016  0.0378 -0.1937 -0.6084
   27SAPC  H10X 3642   3.912   4.523   8.047 -1.6639  0.0496  2.5591
   27SAPC  H10Y 3643   3.767   4.624   8.017  0.0144  0.8851  0.6926
   27SAPC  C311 3644   3.928   4.727   8.118 -0.1458  0.4085 -0.1308
   27SAPC  H11X 3645   3.892   4.827   8.087  0.9826  0.3017 -1.9128
   27SAPC  H11Y 3646   4.038   4.744   8.116 -0.0823  0.0405  0.1262
   27SAPC  C312 3647   3.890   4.673   8.251  0.2322 -0.6501 -0.0110
   27SAPC  H12X 3648   3.921   4.569   8.274 -3.0979 -1.5160  1.0952
   27SAPC  H12Y 3649   3.779   4.666   8.248  0.1934 -0.2482 -2.5957
   27SAPC  C313 3650   3.920   4.779   8.363 -0.1028 -0.5756  0.0903
   27SAPC  H13X 3651   3.885   4.880   8.331 -1.5734 -0.1580  2.7278
   27SAPC  H13Y 3652   4.031   4.785   8.374 -0.2458 -0.5163  1.8807
   27SAPC  C314 3653   3.848   4.747   8.496  1.0260 -0.2328  0.0230
   27SAPC  H14X 3654   3.741   4.725   8.477  1.1570 -1.0466  0.1864
   27SAPC  H14Y 3655   3.854   4.838   8.560  0.7345 -0.6607  0.6615
   27SAPC  C315 3656   3.919   4.640   8.572 -0.3640  0.1800 -0.1225
   27SAPC  H15X 3657   3.904   4.548   8.512  0.3559  0.6061 -0.9729
   27SAPC  H15Y 3658   3.872   4.625   8.672 -1.1239 -2.3998 -0.7852
   27SAPC  C316 3659   4.070   4.663   8.594 -1.0817 -0.1471 -0.7395
   27SAPC  H16X 3660   4.083   4.766   8.634 -1.3553  0.1253 -1.3449
   27SAPC  H16Y 3661   4.135   4.652   8.505 -0.0075 -2.1600  0.2156
   27SAPC  C317 3662   4.124   4.550   8.685 -0.3587 -0.2960  0.2828
   27SAPC  H17X 3663   4.113   4.458   8.625 -0.7957 -0.6626  0.9089
   27SAPC  H17Y 3664   4.072   4.521   8.779  0.7356 -1.8299  0.4594
   27SAPC  C318 3665   4.266   4.561   8.711 -0.9159 -0.1641  0.9017
   27SAPC  H18X 3666   4.301   4.472   8.768 -1.3187 -0.3203  0.9098
   27SAPC  H18Y 3667   4.300   4.654   8.761  0.3080  0.1293 -0.3896
   27SAPC  H18Z 3668   4.323   4.569   8.616 -0.1208 -0.7922  1.3079
   28SAPC     N 3669   2.713   6.630   5.968  0.7150 -0.9794 -0.5030
   28SAPC   C12 3670   2.779   6.648   6.108  0.0899 -0.0618 -0.6667
   28SAPC  H12A 3671   2.770   6.753   6.135 -0.6482 -0.9201  3.0171
   28SAPC  H12B 3672   2.884   6.624   6.103 -0.0024 -0.2225 -2.5919
   28SAPC   C13 3673   2.765   6.742   5.885  0.6202 -0.6330  0.4035
   28SAPC  H13A 3674   2.872   6.745   5.869  0.7378  1.7436  1.1634
   28SAPC  H13B 3675   2.720   6.743   5.787 -1.7678 -0.6997  1.4342
   28SAPC  H13C 3676   2.746   6.833   5.940  3.7389 -0.3851  1.2843
   28SAPC   C14 3677   2.752   6.507   5.901 -0.3937  0.1383  0.5737
   28SAPC  H14A 3678   2.860   6.509   5.895 -0.4108  1.0297  0.3969
   28SAPC  H14B 3679   2.710   6.416   5.941 -1.0323  0.7567  1.3536
   28SAPC  H14C 3680   2.717   6.501   5.799 -1.4985  0.0825  0.9451
   28SAPC   C15 3681   2.561   6.639   5.978  0.1921 -0.1650  0.0423
   28SAPC  H15A 3682   2.513   6.637   5.881  1.7690 -2.5148 -0.7615
   28SAPC  H15B 3683   2.529   6.561   6.045  0.9125  0.4189  1.1015
   28SAPC  H15C 3684   2.535   6.736   6.019  1.4818  1.2508 -2.2577
   28SAPC   C11 3685   2.711   6.569   6.227 -0.3634 -0.3699  0.0682
   28SAPC  H11A 3686   2.615   6.620   6.250  0.5068  0.9585  0.8846
   28SAPC  H11B 3687   2.764   6.589   6.322 -1.5283 -0.1451  0.6913
   28SAPC     P 3688   2.573   6.344   6.236  0.5435  0.2755 -0.6186
   28SAPC   O13 3689   2.464   6.393   6.152 -0.4702 -0.1033  0.1258
   28SAPC   O14 3690   2.608   6.200   6.226 -0.0988 -0.1628 -0.5528
   28SAPC   O12 3691   2.701   6.431   6.200 -0.3418 -0.2739  0.4508
   28SAPC   O11 3692   2.556   6.384   6.390 -0.0379 -0.5568  0.2296
   28SAPC    C1 3693   2.655   6.359   6.490  0.2171 -0.0302 -0.7329
   28SAPC    HA 3694   2.714   6.266   6.477 -0.8914 -0.9104  0.3285
   28SAPC    HB 3695   2.735   6.435   6.475  0.6712 -0.7240 -1.9804
   28SAPC    C2 3696   2.592   6.365   6.631  0.5342 -0.5615  0.2242
   28SAPC    HS 3697   2.674   6.369   6.706 -0.0482  0.8246  0.8305
   28SAPC   O21 3698   2.502   6.252   6.646 -1.0320  0.1228 -0.2694
   28SAPC   C21 3699   2.567   6.138   6.666  0.3560  0.3032  0.3295
   28SAPC   O22 3700   2.688   6.124   6.673  0.3364 -0.2981 -0.6951
   28SAPC   C22 3701   2.471   6.027   6.699  0.0006 -0.0270  0.1378
   28SAPC   H2R 3702   2.374   6.058   6.744  0.0066 -0.7294  0.6581
   28SAPC   H2S 3703   2.447   5.980   6.601  0.2097 -0.8088  0.4517
   28SAPC    C3 3704   2.510   6.497   6.645 -0.6845 -0.0122 -0.1328
   28SAPC    HX 3705   2.454   6.508   6.549  1.8423  1.1151 -1.5871
   28SAPC    HY 3706   2.582   6.581   6.632 -0.1613 -0.1745  1.5534
   28SAPC   O31 3707   2.431   6.505   6.765 -0.6077 -0.3032  0.1359
   28SAPC   C31 3708   2.509   6.553   6.865  0.2002  0.4398  1.0179
   28SAPC   O32 3709   2.631   6.567   6.861  0.1653 -0.2458  0.0478
   28SAPC   C32 3710   2.421   6.600   6.983 -0.1297 -0.1061 -0.3434
   28SAPC   H2X 3711   2.331   6.534   6.985 -0.0126 -0.3034 -1.1331
   28SAPC   H2Y 3712   2.396   6.702   6.947  2.5392 -0.1341 -2.6057
   28SAPC   C23 3713   2.528   5.917   6.785 -0.2060  0.9652 -0.1958
   28SAPC   H3R 3714   2.575   5.948   6.881  2.1122 -2.3933 -0.0952
   28SAPC   H3S 3715   2.614   5.873   6.730 -0.1553 -0.7856  1.1852
   28SAPC   C24 3716   2.435   5.802   6.801  0.3577  0.6423 -0.4190
   28SAPC   H4R 3717   2.363   5.835   6.879  0.0990 -0.3899 -0.2059
   28SAPC   H4S 3718   2.392   5.805   6.699  0.1940  2.9292 -0.3377
   28SAPC   C25 3719   2.482   5.662   6.829  0.2530 -0.3450 -0.2063
   28SAPC   H5R 3720   2.502   5.614   6.732 -1.1020 -0.9348 -0.2142
   28SAPC   C26 3721   2.476   5.598   6.945  0.1502  0.3336  0.2647
   28SAPC   H6R 3722   2.500   5.491   6.944 -0.9334  0.0482 -2.2474
   28SAPC   C27 3723   2.432   5.641   7.077  0.0863  0.0454 -0.1792
   28SAPC   H7R 3724   2.323   5.641   7.094  0.0337  1.3557 -0.4340
   28SAPC   H7S 3725   2.447   5.751   7.079 -0.9562  0.1876  0.5746
   28SAPC   C28 3726   2.507   5.599   7.201 -0.0814 -0.0554  0.3478
   28SAPC   H8R 3727   2.607   5.565   7.169  0.3720  0.9960  0.6258
   28SAPC   C29 3728   2.461   5.600   7.327 -0.0811 -0.0895  0.1240
   28SAPC   H9R 3729   2.531   5.556   7.400 -1.9905 -1.1392  1.4072
   28SAPC  C210 3730   2.322   5.637   7.376  0.8058  0.2429 -0.7174
   28SAPC  H10R 3731   2.248   5.650   7.294  2.1096 -0.8466 -2.1354
   28SAPC  H10S 3732   2.334   5.736   7.424 -1.5061 -0.5220  1.6408
   28SAPC  C211 3733   2.269   5.538   7.483 -0.3552 -0.8757 -0.5075
   28SAPC  H11R 3734   2.196   5.462   7.449 -0.2048 -0.9163 -0.7425
   28SAPC  C212 3735   2.294   5.549   7.619 -0.3873 -0.3462 -0.0128
   28SAPC  H12R 3736   2.265   5.467   7.687 -1.7578 -0.4147 -0.6526
   28SAPC  C213 3737   2.366   5.652   7.688 -0.8713  0.7857  0.6779
   28SAPC  H13R 3738   2.302   5.700   7.765 -1.2424  3.6109 -1.2534
   28SAPC  H13S 3739   2.396   5.732   7.617  1.7002  0.5401  1.3854
   28SAPC  C214 3740   2.496   5.605   7.759  0.0127  0.1563  0.2344
   28SAPC  H14R 3741   2.582   5.615   7.691  0.0539  1.6783  0.4668
   28SAPC  C215 3742   2.514   5.553   7.878  0.0960 -0.0795 -0.2439
   28SAPC  H15R 3743   2.621   5.542   7.901  0.2698 -2.0716 -1.7049
   28SAPC  C216 3744   2.423   5.525   7.991 -0.1097  0.4659 -0.9568
   28SAPC  H16R 3745   2.322   5.556   7.956 -0.3922  0.3701 -0.2320
   28SAPC  H16S 3746   2.452   5.591   8.075  1.0366 -1.0204 -0.1436
   28SAPC  C217 3747   2.407   5.379   8.044  0.8129 -0.2625 -0.2822
   28SAPC  H17R 3748   2.491   5.357   8.112  1.2194  1.1258 -0.3024
   28SAPC  H17S 3749   2.404   5.312   7.956 -0.7044 -0.9468  0.2508
   28SAPC  C218 3750   2.274   5.366   8.120  0.1052 -0.2945 -0.7606
   28SAPC  H18R 3751   2.261   5.262   8.159  0.1257 -0.1729 -0.4316
   28SAPC  H18S 3752   2.186   5.379   8.053 -1.4158 -0.5814  1.0832
   28SAPC  C219 3753   2.261   5.467   8.233 -0.0290 -0.1180 -0.3317
   28SAPC  H19R 3754   2.169   5.439   8.289  0.7043 -0.1962  0.8797
   28SAPC  H19S 3755   2.255   5.567   8.186  5.1862  0.3431 -0.5966
   28SAPC  C220 3756   2.378   5.470   8.336 -0.1525 -0.2988 -0.1841
   28SAPC  H20R 3757   2.378   5.541   8.421  1.5749 -0.6736  0.1643
   28SAPC  H20S 3758   2.482   5.462   8.296  1.7666  2.2270  3.7334
   28SAPC  H20T 3759   2.378   5.370   8.385  0.5010 -0.0346  0.3561
   28SAPC   C33 3760   2.494   6.611   7.117 -0.1832 -0.1565  0.2946
   28SAPC   H3X 3761   2.589   6.669   7.107  0.1168 -0.5668  0.7112
   28SAPC   H3Y 3762   2.523   6.509   7.151 -1.0587 -0.3265  0.5368
   28SAPC   C34 3763   2.390   6.660   7.221 -0.3950 -0.2292  0.2547
   28SAPC   H4X 3764   2.315   6.582   7.246 -0.8638  0.1937  0.1692
   28SAPC   H4Y 3765   2.332   6.742   7.175  0.6090  0.6833  0.5698
   28SAPC   C35 3766   2.455   6.707   7.356 -0.2966  0.8774  0.6387
   28SAPC   H5X 3767   2.524   6.792   7.335 -0.1200  0.6194  0.1615
   28SAPC   H5Y 3768   2.528   6.638   7.404  1.2088  0.2117 -2.3531
   28SAPC   C36 3769   2.355   6.759   7.453  0.1897 -0.4382  0.3632
   28SAPC   H6X 3770   2.284   6.677   7.477 -0.3668  0.1897  0.9059
   28SAPC   H6Y 3771   2.294   6.847   7.423  2.0752  0.8103  0.0296
   28SAPC   C37 3772   2.414   6.802   7.596 -0.6935  0.2130 -0.0432
   28SAPC   H7X 3773   2.326   6.838   7.655 -0.6043  0.8695 -0.3145
   28SAPC   H7Y 3774   2.482   6.888   7.582 -1.0200  0.5593  0.4613
   28SAPC   C38 3775   2.481   6.681   7.677 -0.4451  0.4916  0.1444
   28SAPC   H8X 3776   2.571   6.641   7.625  0.3203  3.2389 -0.8465
   28SAPC   H8Y 3777   2.401   6.606   7.695  0.7829 -1.0810 -0.6724
   28SAPC   C39 3778   2.532   6.719   7.820 -0.2682  0.3477  0.3610
   28SAPC   H9X 3779   2.452   6.773   7.875  1.0099  1.2806  1.3713
   28SAPC   H9Y 3780   2.608   6.799   7.808  0.3621 -0.3517 -0.4908
   28SAPC  C310 3781   2.585   6.600   7.897 -0.6536  0.6809  0.0522
   28SAPC  H10X 3782   2.653   6.547   7.827 -0.4843  0.5294  0.3247
   28SAPC  H10Y 3783   2.497   6.534   7.910 -0.2937 -0.1091 -1.3644
   28SAPC  C311 3784   2.657   6.633   8.026 -0.4825 -0.0096  0.1557
   28SAPC  H11X 3785   2.726   6.718   8.012 -2.5624  1.7857  0.3463
   28SAPC  H11Y 3786   2.728   6.549   8.041  0.8472  1.0159 -0.2606
   28SAPC  C312 3787   2.569   6.669   8.141 -0.5889  0.7570 -0.0399
   28SAPC  H12X 3788   2.463   6.684   8.110 -0.9528 -0.8478  0.3705
   28SAPC  H12Y 3789   2.605   6.762   8.191 -1.0672  1.8248 -1.5942
   28SAPC  C313 3790   2.553   6.543   8.232  0.2106  0.0230 -0.6520
   28SAPC  H13X 3791   2.650   6.500   8.265 -0.3321 -0.3017  0.5722
   28SAPC  H13Y 3792   2.499   6.460   8.182  0.2611 -2.0612  2.4730
   28SAPC  C314 3793   2.464   6.560   8.363 -0.1870  0.5741  0.2761
   28SAPC  H14X 3794   2.450   6.458   8.405  2.6345 -0.9845 -2.2164
   28SAPC  H14Y 3795   2.362   6.604   8.350 -0.5102 -0.2532 -0.0711
   28SAPC  C315 3796   2.549   6.641   8.466 -0.4762  0.1847 -0.4925
   28SAPC  H15X 3797   2.470   6.698   8.519 -1.1722  0.0005 -1.3071
   28SAPC  H15Y 3798   2.613   6.714   8.411 -0.0764  0.1759 -0.0485
   28SAPC  C316 3799   2.638   6.561   8.560 -0.3391  0.1266  0.3655
   28SAPC  H16X 3800   2.697   6.638   8.614 -0.8901  0.1433  0.9459
   28SAPC  H16Y 3801   2.699   6.485   8.507 -1.6118 -0.8203  0.2245
   28SAPC  C317 3802   2.558   6.484   8.675 -0.6810  0.0405 -0.0218
   28SAPC  H17X 3803   2.503   6.398   8.631 -1.7178 -0.0602  1.4019
   28SAPC  H17Y 3804   2.491   6.560   8.722  2.1218  1.7736  1.4747
   28SAPC  C318 3805   2.652   6.430   8.777 -0.2927  0.0282  0.0252
   28SAPC  H18X 3806   2.589   6.394   8.861 -0.4374  1.5154  0.5910
   28SAPC  H18Y 3807   2.720   6.506   8.820  0.7436 -1.3092  0.8349
   28SAPC  H18Z 3808   2.712   6.346   8.736  0.0214  0.2319  0.0718
   29SAPC     N 3809   4.711   3.944   6.369  0.4008  0.4225  0.2230
   29SAPC   C12 3810   4.836   3.860   6.381 -0.2994 -0.0036 -0.0086
   29SAPC  H12A 3811   4.851   3.795   6.296  1.0444 -0.3303  0.4373
   29SAPC  H12B 3812   4.810   3.804   6.469 -0.0612  1.4584  1.0155
   29SAPC   C13 3813   4.600   3.852   6.341  1.3530 -0.2120  0.0636
   29SAPC  H13A 3814   4.505   3.903   6.335  1.3067 -0.2916  0.1184
   29SAPC  H13B 3815   4.622   3.798   6.250  0.3243 -0.6274  0.0573
   29SAPC  H13C 3816   4.592   3.783   6.424  0.2872  0.9216  0.9426
   29SAPC   C14 3817   4.679   4.017   6.494  0.1249  0.1182 -0.3650
   29SAPC  H14A 3818   4.752   4.095   6.510 -1.3092  1.4276 -0.0418
   29SAPC  H14B 3819   4.583   4.066   6.488 -1.3029 -2.3735  0.7573
   29SAPC  H14C 3820   4.680   3.951   6.579  1.8605  0.0441 -0.3994
   29SAPC   C15 3821   4.737   4.037   6.258 -0.5087  0.1603  0.3010
   29SAPC  H15A 3822   4.735   3.974   6.171 -1.8753 -0.3377  0.6709
   29SAPC  H15B 3823   4.656   4.107   6.244 -1.0941 -0.4603  0.5706
   29SAPC  H15C 3824   4.829   4.090   6.280 -0.6627 -0.2829  2.1451
   29SAPC   C11 3825   4.969   3.931   6.411 -0.0063  0.1543  0.1625
   29SAPC  H11A 3826   5.038   3.852   6.450  0.2634 -1.0096 -2.4527
   29SAPC  H11B 3827   4.944   4.016   6.477 -1.6042  0.4761 -0.8081
   29SAPC     P 3828   5.116   4.101   6.280 -0.1290 -0.5243 -0.1451
   29SAPC   O13 3829   5.224   4.083   6.178 -0.6902 -0.2707 -0.0686
   29SAPC   O14 3830   5.032   4.227   6.258 -0.6938  0.8038 -0.3899
   29SAPC   O12 3831   5.017   3.978   6.284 -1.0200 -0.2122  0.0120
   29SAPC   O11 3832   5.179   4.119   6.429  0.1650 -0.0802  0.0677
   29SAPC    C1 3833   5.225   4.247   6.475 -0.4125  0.6067  0.3823
   29SAPC    HA 3834   5.315   4.274   6.415  0.6351 -0.3615  1.4461
   29SAPC    HB 3835   5.155   4.331   6.455 -0.2647  0.6721  0.1381
   29SAPC    C2 3836   5.255   4.257   6.623 -0.3533  0.3731  0.1947
   29SAPC    HS 3837   5.219   4.358   6.655  1.0511  0.9832 -0.0663
   29SAPC   O21 3838   5.397   4.248   6.648 -0.7990 -0.1632 -0.6379
   29SAPC   C21 3839   5.468   4.350   6.605  0.0131 -0.3430  0.2921
   29SAPC   O22 3840   5.422   4.451   6.555 -0.5060  0.0928 -0.0817
   29SAPC   C22 3841   5.620   4.322   6.620  0.0301 -0.1779  0.2210
   29SAPC   H2R 3842   5.659   4.247   6.547 -0.9502  0.7398 -1.3089
   29SAPC   H2S 3843   5.668   4.417   6.590 -1.8471 -0.1525 -3.2253
   29SAPC    C3 3844   5.193   4.147   6.705  0.4749  0.0561  0.0413
   29SAPC    HX 3845   5.246   4.056   6.670 -0.1250 -1.2438  2.3118
   29SAPC    HY 3846   5.086   4.121   6.689  0.8309 -1.4497  0.0608
   29SAPC   O31 3847   5.218   4.167   6.850 -0.0476 -0.1259 -0.1617
   29SAPC   C31 3848   5.148   4.258   6.904 -0.1805 -0.4145  0.9544
   29SAPC   O32 3849   5.068   4.326   6.839 -0.0293 -0.3227  0.0660
   29SAPC   C32 3850   5.183   4.275   7.054  0.1146 -1.0039  0.4940
   29SAPC   H2X 3851   5.265   4.349   7.063  1.8628 -2.2057 -3.3692
   29SAPC   H2Y 3852   5.213   4.180   7.102 -0.5977 -1.6402 -0.2993
   29SAPC   C23 3853   5.658   4.278   6.761 -0.3276  0.1085  0.7877
   29SAPC   H3R 3854   5.601   4.185   6.783  1.3864 -1.4398 -0.9077
   29SAPC   H3S 3855   5.638   4.343   6.849  1.6844  0.9447  0.6891
   29SAPC   C24 3856   5.814   4.237   6.765 -0.2975  0.1739  0.4278
   29SAPC   H4R 3857   5.852   4.215   6.867 -0.3997 -0.7007  0.2853
   29SAPC   H4S 3858   5.876   4.322   6.729 -0.3788  0.9236  1.9630
   29SAPC   C25 3859   5.839   4.108   6.683 -0.4053  0.6414  0.3636
   29SAPC   H5R 3860   5.750   4.057   6.643  0.4835 -0.4484 -0.2767
   29SAPC   C26 3861   5.965   4.051   6.673 -0.5274 -0.5954  0.2293
   29SAPC   H6R 3862   5.971   3.960   6.612 -0.3888 -0.5678  0.2010
   29SAPC   C27 3863   6.094   4.112   6.725 -0.3516 -0.1052 -0.9437
   29SAPC   H7R 3864   6.073   4.164   6.821  1.3519  0.5354 -0.8828
   29SAPC   H7S 3865   6.131   4.186   6.651  1.5254 -1.2723 -1.2442
   29SAPC   C28 3866   6.203   4.010   6.731 -1.1744  0.3869  0.0598
   29SAPC   H8R 3867   6.236   3.977   6.631 -1.4790  0.6078 -0.1173
   29SAPC   C29 3868   6.251   3.949   6.847 -0.0147 -0.4764  0.8169
   29SAPC   H9R 3869   6.331   3.874   6.840  0.5494  0.2710 -1.6467
   29SAPC  C210 3870   6.197   3.976   6.986  0.0084 -0.3519 -0.2298
   29SAPC  H10R 3871   6.161   4.081   6.996  0.4358 -0.2683  0.5039
   29SAPC  H10S 3872   6.276   3.965   7.064  0.0770 -0.9666 -0.3852
   29SAPC  C211 3873   6.077   3.901   7.034 -0.3124  0.2091  0.2793
   29SAPC  H11R 3874   6.028   3.846   6.952 -0.4085 -1.8864  1.6562
   29SAPC  C212 3875   6.037   3.882   7.158 -0.4483 -0.7881  0.3589
   29SAPC  H12R 3876   5.950   3.816   7.175  0.0636 -2.0647 -1.6764
   29SAPC  C213 3877   6.106   3.944   7.270 -0.0700  0.2059 -0.7094
   29SAPC  H13R 3878   6.132   4.044   7.229  2.2151  0.0262  0.1935
   29SAPC  H13S 3879   6.202   3.888   7.279  1.3299  2.2458 -2.0054
   29SAPC  C214 3880   6.051   3.960   7.412  0.9963 -0.0524 -0.4735
   29SAPC  H14R 3881   5.960   4.021   7.415 -0.7867 -2.4521 -1.8201
   29SAPC  C215 3882   6.093   3.908   7.524 -0.0151 -0.3074 -0.1562
   29SAPC  H15R 3883   6.029   3.940   7.607  3.8063  4.7578  1.3617
   29SAPC  C216 3884   6.207   3.801   7.539 -0.0660 -0.7566  0.7292
   29SAPC  H16R 3885   6.288   3.841   7.604  2.0725  1.2320 -2.7965
   29SAPC  H16S 3886   6.265   3.793   7.444  0.4463  0.3515  0.9256
   29SAPC  C217 3887   6.162   3.658   7.577 -0.5465 -0.0933 -0.4660
   29SAPC  H17R 3888   6.096   3.623   7.494 -0.5852 -0.5784 -0.2328
   29SAPC  H17S 3889   6.108   3.661   7.674  1.9011  4.0652  1.0195
   29SAPC  C218 3890   6.287   3.573   7.571 -0.9746  0.4467  0.4621
   29SAPC  H18R 3891   6.254   3.472   7.605  0.9895 -0.0117  1.1663
   29SAPC  H18S 3892   6.367   3.610   7.639  1.0534 -0.8376 -1.0873
   29SAPC  C219 3893   6.350   3.554   7.434 -0.1647  0.1960  0.1793
   29SAPC  H19R 3894   6.400   3.647   7.399  1.3862 -1.3569 -2.0488
   29SAPC  H19S 3895   6.274   3.523   7.359 -0.1380 -1.0869  0.6574
   29SAPC  C220 3896   6.462   3.447   7.437  0.6808 -0.0230 -0.4839
   29SAPC  H20R 3897   6.511   3.455   7.338 -1.7889  2.6837 -1.5950
   29SAPC  H20S 3898   6.418   3.346   7.451 -0.8246  0.5964 -0.5693
   29SAPC  H20T 3899   6.534   3.475   7.517  1.9755  0.9410 -1.9293
   29SAPC   C33 3900   5.054   4.322   7.132  0.1473  0.1774 -0.1349
   29SAPC   H3X 3901   4.976   4.246   7.111  1.6098 -1.4505  0.1120
   29SAPC   H3Y 3902   5.022   4.420   7.089  0.7976  0.8077  0.7745
   29SAPC   C34 3903   5.083   4.338   7.282 -0.3726  0.0625 -0.2325
   29SAPC   H4X 3904   5.008   4.399   7.337 -0.3867 -1.1512  1.1375
   29SAPC   H4Y 3905   5.177   4.396   7.291 -0.1694 -0.3056  0.0214
   29SAPC   C35 3906   5.088   4.205   7.346  0.2801 -0.5156  0.1023
   29SAPC   H5X 3907   5.160   4.143   7.288 -0.6740 -0.0656 -1.6216
   29SAPC   H5Y 3908   4.990   4.159   7.322  0.4438  0.5194 -2.9332
   29SAPC   C36 3909   5.110   4.200   7.504 -0.0443  0.1363 -0.1432
   29SAPC   H6X 3910   5.077   4.104   7.549  0.3184  0.6999  1.3812
   29SAPC   H6Y 3911   5.053   4.280   7.555 -0.5602  0.3637 -1.0536
   29SAPC   C37 3912   5.256   4.244   7.543  0.8013 -0.5394  0.2238
   29SAPC   H7X 3913   5.277   4.349   7.516 -0.1192 -0.9819 -2.4726
   29SAPC   H7Y 3914   5.333   4.181   7.494 -0.5067 -2.3957  0.4497
   29SAPC   C38 3915   5.273   4.228   7.687 -0.3423  1.1845  0.6096
   29SAPC   H8X 3916   5.379   4.234   7.718 -0.7752  1.6960  2.1044
   29SAPC   H8Y 3917   5.237   4.124   7.706 -0.5718  1.2082  0.3153
   29SAPC   C39 3918   5.190   4.314   7.789 -0.1678  0.1777 -0.1669
   29SAPC   H9X 3919   5.087   4.321   7.749 -0.2733  1.0492  0.2471
   29SAPC   H9Y 3920   5.230   4.417   7.787  0.0361  0.0961 -0.4097
   29SAPC  C310 3921   5.175   4.252   7.928 -0.1127 -0.0727  0.2102
   29SAPC  H10X 3922   5.111   4.161   7.937 -0.3781  0.2537  2.2045
   29SAPC  H10Y 3923   5.126   4.333   7.986 -2.8981 -0.1532 -1.8271
   29SAPC  C311 3924   5.306   4.223   7.995  0.1637 -0.0982 -0.3518
   29SAPC  H11X 3925   5.364   4.317   7.988 -1.3191  0.7751 -1.5929
   29SAPC  H11Y 3926   5.360   4.135   7.954 -1.3603 -1.0100 -0.4988
   29SAPC  C312 3927   5.270   4.197   8.133  0.6812  0.3148  0.4772
   29SAPC  H12X 3928   5.206   4.108   8.150  0.2683  0.8982  2.0697
   29SAPC  H12Y 3929   5.215   4.282   8.178  0.9826 -0.0780  1.6092
   29SAPC  C313 3930   5.385   4.169   8.227  0.5735 -0.3183 -0.7068
   29SAPC  H13X 3931   5.469   4.241   8.212 -1.4844  2.0420 -1.7025
   29SAPC  H13Y 3932   5.419   4.064   8.231 -0.3423 -0.6393 -1.1162
   29SAPC  C314 3933   5.342   4.203   8.377  0.0204 -0.6156 -0.5241
   29SAPC  H14X 3934   5.284   4.122   8.426 -0.7770 -0.9789 -2.0105
   29SAPC  H14Y 3935   5.270   4.287   8.383 -2.0774 -2.3922  4.6759
   29SAPC  C315 3936   5.464   4.221   8.467 -0.3442 -0.4405 -0.3738
   29SAPC  H15X 3937   5.412   4.255   8.559  1.3545 -1.0165  0.8534
   29SAPC  H15Y 3938   5.536   4.295   8.426 -1.2138  0.5550 -0.1354
   29SAPC  C316 3939   5.529   4.091   8.489 -0.6590  0.3311  0.1204
   29SAPC  H16X 3940   5.572   4.059   8.392  0.7368 -1.0980  1.1629
   29SAPC  H16Y 3941   5.455   4.014   8.519  0.9210 -1.0665  0.5774
   29SAPC  C317 3942   5.637   4.087   8.600  0.4013 -0.2175  0.6446
   29SAPC  H17X 3943   5.598   4.130   8.694  0.5464  0.7955  0.2472
   29SAPC  H17Y 3944   5.721   4.153   8.572 -1.2909  0.9012 -2.1510
   29SAPC  C318 3945   5.671   3.947   8.652  0.0995  0.8410  0.3663
   29SAPC  H18X 3946   5.725   3.955   8.749 -1.1155  2.0154  0.9762
   29SAPC  H18Y 3947   5.730   3.889   8.578  0.4759  0.7473  0.7356
   29SAPC  H18Z 3948   5.579   3.890   8.675  0.9004  0.0049  1.6233
   30SAPC     N 3949   1.888   4.274   5.702 -0.0971  0.1039  0.5963
   30SAPC   C12 3950   1.820   4.369   5.794  0.0795 -0.4428  0.2072
   30SAPC  H12A 3951   1.716   4.367   5.763  0.4754 -0.6220 -1.1530
   30SAPC  H12B 3952   1.867   4.465   5.783  1.8733 -0.8119  3.4089
   30SAPC   C13 3953   1.844   4.129   5.729  0.3082  0.2057  0.1656
   30SAPC  H13A 3954   1.890   4.066   5.655  1.3530  0.9014  0.2085
   30SAPC  H13B 3955   1.882   4.094   5.824  0.2684 -0.2898  0.0016
   30SAPC  H13C 3956   1.736   4.132   5.734  0.3240  3.3196  1.0689
   30SAPC   C14 3957   1.845   4.293   5.554  0.0593  0.4610 -0.4207
   30SAPC  H14A 3958   1.739   4.275   5.541  0.2828 -0.1245 -1.5522
   30SAPC  H14B 3959   1.879   4.388   5.515 -0.3181  0.4901 -0.6859
   30SAPC  H14C 3960   1.887   4.217   5.490 -0.4960  0.2978 -0.5936
   30SAPC   C15 3961   2.038   4.287   5.702  0.0184  0.0922 -0.0789
   30SAPC  H15A 3962   2.061   4.278   5.807 -0.3705  0.7307  0.0687
   30SAPC  H15B 3963   2.082   4.206   5.647  0.4009 -0.0054  0.3654
   30SAPC  H15C 3964   2.088   4.382   5.685  2.7008 -1.1861  0.1443
   30SAPC   C11 3965   1.826   4.339   5.947  0.5470  0.7029 -0.6309
   30SAPC  H11A 3966   1.786   4.238   5.966  2.2138 -0.0334 -0.8117
   30SAPC  H11B 3967   1.760   4.406   6.006 -0.9365 -1.2565  0.0361
   30SAPC     P 3968   2.027   4.262   6.097 -0.0402  1.1160 -0.0660
   30SAPC   O13 3969   1.931   4.155   6.141  0.4090 -0.2283 -0.1215
   30SAPC   O14 3970   2.153   4.202   6.042  0.4237  0.3564 -0.4095
   30SAPC   O12 3971   1.960   4.354   5.991  0.4209 -0.3134 -0.3330
   30SAPC   O11 3972   2.056   4.364   6.208 -0.0799 -0.1351 -0.5934
   30SAPC    C1 3973   1.942   4.424   6.277 -0.4945 -0.3229  0.1813
   30SAPC    HA 3974   1.873   4.456   6.197 -1.5177 -1.9982  0.3408
   30SAPC    HB 3975   1.894   4.353   6.348 -0.5108  0.9092  1.4351
   30SAPC    C2 3976   1.971   4.545   6.371 -0.3598 -1.0891 -0.1011
   30SAPC    HS 3977   2.013   4.621   6.301  2.5904 -1.4560  1.1314
   30SAPC   O21 3978   2.082   4.501   6.454  0.1324 -0.2550  0.3064
   30SAPC   C21 3979   2.146   4.593   6.526 -0.2762 -0.5516  0.0181
   30SAPC   O22 3980   2.138   4.711   6.501  0.0247 -0.3855  0.1553
   30SAPC   C22 3981   2.239   4.528   6.619 -0.4671  0.2870 -0.5844
   30SAPC   H2R 3982   2.174   4.485   6.698 -0.1637  0.0961 -0.4379
   30SAPC   H2S 3983   2.303   4.454   6.567 -0.2704  0.1073 -0.1010
   30SAPC    C3 3984   1.844   4.593   6.440 -0.2656 -0.5913 -0.0343
   30SAPC    HX 3985   1.815   4.504   6.501  0.5811 -1.1374 -0.4160
   30SAPC    HY 3986   1.763   4.615   6.367 -0.3889 -0.1020  0.2406
   30SAPC   O31 3987   1.858   4.707   6.523 -0.1313  0.4097 -0.3093
   30SAPC   C31 3988   1.829   4.822   6.482 -0.1949  0.2674 -0.3114
   30SAPC   O32 3989   1.789   4.857   6.373 -0.3014 -0.0622 -0.2394
   30SAPC   C32 3990   1.835   4.921   6.601 -0.4940  0.2004 -0.9425
   30SAPC   H2X 3991   1.762   4.900   6.682 -1.6126  0.2057 -1.9174
   30SAPC   H2Y 3992   1.809   5.018   6.553 -0.1540  0.1964 -1.1399
   30SAPC   C23 3993   2.335   4.630   6.691  0.0980  0.2341 -0.7525
   30SAPC   H3R 3994   2.275   4.717   6.723 -0.4532 -0.8564  1.3608
   30SAPC   H3S 3995   2.417   4.645   6.617  0.3536 -0.5430 -0.6445
   30SAPC   C24 3996   2.385   4.578   6.825  0.0936  0.6659  0.0426
   30SAPC   H4R 3997   2.296   4.535   6.877  0.3144  0.4657  0.2544
   30SAPC   H4S 3998   2.420   4.665   6.884  4.2042  0.3418 -1.6301
   30SAPC   C25 3999   2.497   4.478   6.806  0.2755 -0.0174  0.0477
   30SAPC   H5R 4000   2.533   4.480   6.702  0.0301 -1.6724 -0.1036
   30SAPC   C26 4001   2.548   4.396   6.901 -0.1629  0.4974  0.0175
   30SAPC   H6R 4002   2.613   4.311   6.874  1.1504  0.6196  2.4816
   30SAPC   C27 4003   2.501   4.377   7.044 -0.2414 -0.1337 -0.1630
   30SAPC   H7R 4004   2.425   4.455   7.066 -0.7801 -0.1550 -1.8125
   30SAPC   H7S 4005   2.583   4.402   7.115  0.9230 -0.9384 -1.2124
   30SAPC   C28 4006   2.429   4.253   7.078  0.1507  0.2784 -0.9903
   30SAPC   H8R 4007   2.360   4.211   7.002  1.0125 -1.1965 -0.9955
   30SAPC   C29 4008   2.456   4.190   7.200 -0.1055  0.4184 -0.3772
   30SAPC   H9R 4009   2.390   4.104   7.217 -1.4803  1.3898 -0.5657
   30SAPC  C210 4010   2.553   4.241   7.301  0.2117  0.6861 -0.1490
   30SAPC  H10R 4011   2.531   4.349   7.314  0.6162  0.5259  2.4744
   30SAPC  H10S 4012   2.658   4.236   7.264  0.3335 -0.8998  0.3112
   30SAPC  C211 4013   2.556   4.171   7.428 -0.2180 -0.0882  0.3710
   30SAPC  H11R 4014   2.521   4.241   7.506 -0.6502  1.3875 -1.0853
   30SAPC  C212 4015   2.587   4.044   7.451  0.0133 -0.6077 -0.6962
   30SAPC  H12R 4016   2.556   4.005   7.549 -0.3429  1.6845  0.1565
   30SAPC  C213 4017   2.628   3.928   7.354 -0.1861 -0.0421  0.4530
   30SAPC  H13R 4018   2.631   3.963   7.249  2.5983 -3.0471 -0.6421
   30SAPC  H13S 4019   2.546   3.853   7.354  0.6425 -0.9772  1.3342
   30SAPC  C214 4020   2.760   3.862   7.386 -0.2595 -1.0326 -0.6214
   30SAPC  H14R 4021   2.844   3.928   7.360 -1.2909 -0.0858 -1.6387
   30SAPC  C215 4022   2.778   3.738   7.433 -0.3524 -0.1711 -0.5562
   30SAPC  H15R 4023   2.880   3.696   7.426 -0.1198  0.5989 -2.3681
   30SAPC  C216 4024   2.660   3.648   7.465  0.1496 -0.7461  0.0628
   30SAPC  H16R 4025   2.633   3.584   7.379 -0.7134 -1.3807  0.7885
   30SAPC  H16S 4026   2.568   3.706   7.485  0.5736  0.1188 -0.4311
   30SAPC  C217 4027   2.705   3.564   7.578  0.0694  0.4450  0.6474
   30SAPC  H17R 4028   2.807   3.526   7.559  0.7514  2.5058 -0.1576
   30SAPC  H17S 4029   2.634   3.479   7.575  0.2721  0.2651 -2.5657
   30SAPC  C218 4030   2.714   3.634   7.711 -0.3170 -0.3787  0.6364
   30SAPC  H18R 4031   2.608   3.658   7.731 -0.3726 -0.7414  0.7895
   30SAPC  H18S 4032   2.767   3.732   7.707 -0.2854 -0.3906  0.7792
   30SAPC  C219 4033   2.789   3.553   7.818 -0.0663 -0.2679 -0.3275
   30SAPC  H19R 4034   2.892   3.535   7.781  0.0758  0.9921 -0.5934
   30SAPC  H19S 4035   2.747   3.452   7.836 -0.9609 -0.1237 -1.4708
   30SAPC  C220 4036   2.792   3.627   7.957 -0.0044 -0.2005 -0.0295
   30SAPC  H20R 4037   2.697   3.686   7.953  0.5298  0.6704 -0.2674
   30SAPC  H20S 4038   2.874   3.701   7.973  1.2074 -0.9836 -2.2687
   30SAPC  H20T 4039   2.802   3.549   8.036 -1.2878 -2.4480 -1.9644
   30SAPC   C33 4040   1.974   4.935   6.678  0.2122  0.7818 -0.1922
   30SAPC   H3X 4041   1.966   5.037   6.720 -0.9409  0.7507 -0.3110
   30SAPC   H3Y 4042   2.061   4.937   6.609  1.2108  1.8731  1.0440
   30SAPC   C34 4043   2.013   4.823   6.785 -0.8247  0.1475 -0.8034
   30SAPC   H4X 4044   2.102   4.859   6.842 -0.8640 -0.8835 -0.0579
   30SAPC   H4Y 4045   2.051   4.728   6.741  0.6736 -0.9925  2.5607
   30SAPC   C35 4046   1.905   4.798   6.890 -0.0795 -0.1407 -0.6913
   30SAPC   H5X 4047   1.815   4.761   6.835 -1.1488 -1.9622  2.0371
   30SAPC   H5Y 4048   1.874   4.889   6.945  1.8000 -0.3138  0.7219
   30SAPC   C36 4049   1.930   4.684   6.990  0.0740 -0.3910  0.3499
   30SAPC   H6X 4050   1.922   4.592   6.928 -0.6127 -0.1361  0.0445
   30SAPC   H6Y 4051   1.855   4.673   7.072  1.7749  1.2279  2.2302
   30SAPC   C37 4052   2.067   4.667   7.069  0.1284  0.1738 -0.2885
   30SAPC   H7X 4053   2.156   4.670   7.002  1.4619 -2.3154  1.1863
   30SAPC   H7Y 4054   2.067   4.571   7.125 -1.5745  0.3925  0.1216
   30SAPC   C38 4055   2.080   4.782   7.173  0.7262 -0.7984 -0.2663
   30SAPC   H8X 4056   2.056   4.879   7.124 -0.6049 -0.5923  0.7383
   30SAPC   H8Y 4057   2.185   4.791   7.210  1.7147  0.8683 -3.1319
   30SAPC   C39 4058   1.996   4.767   7.295  0.5291  0.3650  0.1648
   30SAPC   H9X 4059   1.886   4.769   7.276  0.4436 -1.5304  0.2750
   30SAPC   H9Y 4060   2.024   4.864   7.342  0.5381 -0.0867  1.1191
   30SAPC  C310 4061   2.044   4.656   7.388  0.5555 -0.0526 -0.6844
   30SAPC  H10X 4062   2.151   4.642   7.363  0.7239  0.8260 -0.4740
   30SAPC  H10Y 4063   1.989   4.565   7.356  1.5123  0.0118 -2.6806
   30SAPC  C311 4064   2.024   4.675   7.545 -0.9891 -0.3846  0.3400
   30SAPC  H11X 4065   1.916   4.687   7.571 -0.4860  3.3412  1.3073
   30SAPC  H11Y 4066   2.069   4.769   7.583 -1.4323 -1.1887  3.1072
   30SAPC  C312 4067   2.079   4.556   7.622 -0.3096 -0.1625  0.2300
   30SAPC  H12X 4068   2.050   4.467   7.563 -0.5175  0.6651 -0.9595
   30SAPC  H12Y 4069   2.019   4.550   7.715 -1.1079 -1.0976 -0.3282
   30SAPC  C313 4070   2.231   4.567   7.651  0.1528  0.0110  0.5913
   30SAPC  H13X 4071   2.289   4.635   7.585  1.0943 -0.1813  1.1986
   30SAPC  H13Y 4072   2.291   4.475   7.637 -0.8711 -0.4336 -1.3060
   30SAPC  C314 4073   2.253   4.607   7.800  0.2261  0.2910 -0.5349
   30SAPC  H14X 4074   2.167   4.669   7.832 -1.2465 -2.2274  0.6299
   30SAPC  H14Y 4075   2.345   4.670   7.795 -0.6801  1.6773 -0.3277
   30SAPC  C315 4076   2.282   4.489   7.892 -0.2735 -0.2408  0.0912
   30SAPC  H15X 4077   2.376   4.436   7.869 -0.5465 -0.9176  0.5156
   30SAPC  H15Y 4078   2.209   4.408   7.870 -1.4615  0.5846  0.8493
   30SAPC  C316 4079   2.274   4.520   8.044 -0.1269 -0.0792  0.2198
   30SAPC  H16X 4080   2.170   4.555   8.061 -0.5593  0.8861 -3.4222
   30SAPC  H16Y 4081   2.354   4.593   8.070  0.4981 -0.7383  0.1537
   30SAPC  C317 4082   2.321   4.395   8.105  0.1964  0.6012  0.0050
   30SAPC  H17X 4083   2.425   4.379   8.069 -0.0014  0.7088 -0.6323
   30SAPC  H17Y 4084   2.259   4.311   8.067  1.3091 -0.7216  1.0060
   30SAPC  C318 4085   2.324   4.401   8.261 -0.2300  0.5268  0.9872
   30SAPC  H18X 4086   2.222   4.436   8.290 -0.1042  3.1179 -1.1919
   30SAPC  H18Y 4087   2.394   4.483   8.287 -0.5000  1.1701 -0.1908
   30SAPC  H18Z 4088   2.352   4.304   8.305 -1.9413  0.8088  2.8397
   31SAPC     N 4089   3.107   4.253   6.351  0.1543 -0.2224  0.5628
   31SAPC   C12 4090   3.216   4.303   6.456  0.3853 -0.0762 -0.4924
   31SAPC  H12A 4091   3.298   4.330   6.392  1.4007 -0.8100  0.4694
   31SAPC  H12B 4092   3.244   4.214   6.509 -0.7462  0.0277  0.3228
   31SAPC   C13 4093   2.985   4.205   6.423 -0.4284  0.2543  0.1772
   31SAPC  H13A 4094   2.936   4.138   6.353  1.5802 -2.1557  0.9387
   31SAPC  H13B 4095   2.996   4.146   6.512 -0.8825  0.1896  0.1927
   31SAPC  H13C 4096   2.914   4.282   6.451 -3.0079 -1.2296 -1.7747
   31SAPC   C14 4097   3.076   4.369   6.248 -0.1655  0.1777  0.6114
   31SAPC  H14A 4098   3.018   4.447   6.296 -0.2160  0.5671 -0.0689
   31SAPC  H14B 4099   3.169   4.398   6.201  0.0660 -1.3953  0.0397
   31SAPC  H14C 4100   3.009   4.322   6.178 -0.2004  1.0979  0.0077
   31SAPC   C15 4101   3.162   4.140   6.277  0.3549  0.2383  0.6413
   31SAPC  H15A 4102   3.246   4.166   6.214 -1.8505  3.5786 -1.2075
   31SAPC  H15B 4103   3.184   4.063   6.349  0.7679  0.8001  1.1255
   31SAPC  H15C 4104   3.091   4.107   6.203  1.3298  0.5482 -0.4787
   31SAPC   C11 4105   3.177   4.419   6.552  0.0660  0.7007 -0.1155
   31SAPC  H11A 4106   3.255   4.427   6.631  1.9111 -1.4436 -1.6019
   31SAPC  H11B 4107   3.081   4.391   6.600 -0.7398  2.1913 -0.7647
   31SAPC     P 4108   3.258   4.663   6.488  0.4226  0.1363 -0.1838
   31SAPC   O13 4109   3.392   4.617   6.456  0.5617  0.2904 -0.6071
   31SAPC   O14 4110   3.196   4.764   6.404  0.1044 -0.6539 -0.2602
   31SAPC   O12 4111   3.161   4.540   6.484 -0.3018  0.2683  0.2508
   31SAPC   O11 4112   3.270   4.721   6.634  0.5985  0.0191 -0.9358
   31SAPC    C1 4113   3.163   4.781   6.706  0.4096  0.2733  0.5998
   31SAPC    HA 4114   3.193   4.876   6.755  1.6287 -0.7019  1.8281
   31SAPC    HB 4115   3.077   4.803   6.639  0.1796 -1.2833  0.3589
   31SAPC    C2 4116   3.108   4.691   6.823  0.0743 -0.6171  0.0613
   31SAPC    HS 4117   3.060   4.602   6.775 -0.0043  0.1122 -1.2577
   31SAPC   O21 4118   3.015   4.764   6.909  0.2693 -0.2283 -0.1923
   31SAPC   C21 4119   2.896   4.786   6.859  0.1452  0.7340  0.1892
   31SAPC   O22 4120   2.855   4.734   6.756  0.5162  0.0651  0.0239
   31SAPC   C22 4121   2.815   4.879   6.950 -0.6389  0.1032  0.2546
   31SAPC   H2R 4122   2.877   4.906   7.038 -1.1404  1.4153  0.2185
   31SAPC   H2S 4123   2.788   4.975   6.903 -1.9842 -0.1190  0.5439
   31SAPC    C3 4124   3.221   4.626   6.911  0.4921 -0.5260  0.1198
   31SAPC    HX 4125   3.293   4.708   6.928  0.1219 -0.1735  0.0183
   31SAPC    HY 4126   3.276   4.547   6.855  2.3167 -0.3831  1.6413
   31SAPC   O31 4127   3.165   4.579   7.028  0.1237 -0.5266 -0.2466
   31SAPC   C31 4128   3.090   4.470   7.023 -0.0267  0.3551 -0.3348
   31SAPC   O32 4129   3.074   4.400   6.923  0.1429  0.1655  0.0750
   31SAPC   C32 4130   3.026   4.440   7.154  0.3538  0.0676 -0.0097
   31SAPC   H2X 4131   2.918   4.454   7.132  0.5454 -2.7806 -3.8897
   31SAPC   H2Y 4132   3.064   4.513   7.229  0.5321  0.3732 -0.3902
   31SAPC   C23 4133   2.686   4.802   6.996  0.1405  0.6121  0.1283
   31SAPC   H3R 4134   2.714   4.723   7.069  3.1616  3.3330  2.1753
   31SAPC   H3S 4135   2.627   4.762   6.911  1.5570  0.1565 -0.6690
   31SAPC   C24 4136   2.602   4.894   7.079  0.4919 -0.2780  0.0773
   31SAPC   H4R 4137   2.552   4.965   7.010  0.0490  1.5608  2.1688
   31SAPC   H4S 4138   2.666   4.965   7.136 -0.2436  1.6986 -1.4362
   31SAPC   C25 4139   2.485   4.839   7.162 -0.0086  0.0800  0.2407
   31SAPC   H5R 4140   2.384   4.859   7.122  0.6621 -0.8822 -2.1117
   31SAPC   C26 4141   2.487   4.771   7.281 -0.0995  1.0737  0.1079
   31SAPC   H6R 4142   2.395   4.753   7.340 -0.3685 -0.4531 -0.7305
   31SAPC   C27 4143   2.608   4.723   7.357 -0.0107 -0.1311 -0.6183
   31SAPC   H7R 4144   2.695   4.785   7.328 -0.5441 -0.4923 -3.1923
   31SAPC   H7S 4145   2.621   4.624   7.309 -0.1718  0.1890 -1.3278
   31SAPC   C28 4146   2.589   4.733   7.501  0.1077 -0.0924 -0.6757
   31SAPC   H8R 4147   2.568   4.838   7.528 -1.3972 -0.2001 -1.3260
   31SAPC   C29 4148   2.576   4.646   7.600 -0.5345  0.5569 -0.4433
   31SAPC   H9R 4149   2.564   4.675   7.706  2.1139  0.5617 -0.0880
   31SAPC  C210 4150   2.587   4.493   7.599  0.1874 -0.5467 -0.0433
   31SAPC  H10R 4151   2.578   4.457   7.494  1.1844 -2.6349  0.5496
   31SAPC  H10S 4152   2.502   4.440   7.646 -0.2196 -1.0736 -1.3267
   31SAPC  C211 4153   2.720   4.437   7.651  0.4228 -0.4168  0.6984
   31SAPC  H11R 4154   2.815   4.489   7.633  0.9294 -1.2051  1.0451
   31SAPC  C212 4155   2.737   4.343   7.746  0.3364 -0.3745  0.7553
   31SAPC  H12R 4156   2.836   4.304   7.774  0.3462 -1.9931 -1.2950
   31SAPC  C213 4157   2.618   4.274   7.808  0.0619 -0.4548 -0.1126
   31SAPC  H13R 4158   2.553   4.255   7.721 -0.0743  0.8421 -0.3217
   31SAPC  H13S 4159   2.563   4.349   7.870  0.2592 -0.7231  0.3966
   31SAPC  C214 4160   2.655   4.154   7.883 -0.5356 -0.1333 -0.1384
   31SAPC  H14R 4161   2.630   4.059   7.834  0.1123  0.2967 -1.3691
   31SAPC  C215 4162   2.719   4.146   8.003  0.0172 -0.1786 -0.0388
   31SAPC  H15R 4163   2.752   4.051   8.047 -2.3390  0.4788  3.6489
   31SAPC  C216 4164   2.751   4.267   8.088  0.3229 -0.4729  0.0784
   31SAPC  H16R 4165   2.654   4.301   8.130  0.4919 -0.7838  0.7337
   31SAPC  H16S 4166   2.782   4.345   8.015  0.3046 -3.1186 -2.9841
   31SAPC  C217 4167   2.847   4.250   8.205  0.2161  0.2286  0.0201
   31SAPC  H17R 4168   2.869   4.354   8.237 -2.3533 -0.0857  3.2830
   31SAPC  H17S 4169   2.937   4.202   8.162  0.9603  1.0739  0.6074
   31SAPC  C218 4170   2.793   4.179   8.330 -0.2318 -0.4035  0.2821
   31SAPC  H18R 4171   2.777   4.071   8.308 -1.9333 -0.2260  0.5408
   31SAPC  H18S 4172   2.694   4.226   8.346  0.3561  0.9829 -0.0056
   31SAPC  C219 4173   2.861   4.209   8.462  0.5032 -0.1604 -1.0679
   31SAPC  H19R 4174   2.852   4.320   8.469  1.2344 -0.1822  0.6034
   31SAPC  H19S 4175   2.969   4.183   8.462  0.4874 -0.2968  0.2432
   31SAPC  C220 4176   2.785   4.150   8.584 -0.1840  0.2623 -0.1723
   31SAPC  H20R 4177   2.677   4.176   8.585 -0.4592 -0.8386 -0.2427
   31SAPC  H20S 4178   2.851   4.184   8.667  2.3308 -1.0013 -1.5295
   31SAPC  H20T 4179   2.784   4.040   8.597  2.0443  0.3661  1.3626
   31SAPC   C33 4180   3.038   4.293   7.201 -1.1503 -0.1171  0.1287
   31SAPC   H3X 4181   3.041   4.232   7.109 -1.2120  2.5363 -1.7254
   31SAPC   H3Y 4182   2.942   4.266   7.250 -1.9367 -0.7782 -1.7091
   31SAPC   C34 4183   3.168   4.264   7.280  0.6116  0.3466 -0.0198
   31SAPC   H4X 4184   3.178   4.343   7.357  0.7518  0.1018  0.2132
   31SAPC   H4Y 4185   3.255   4.283   7.214  1.3813 -0.5603  0.7268
   31SAPC   C35 4186   3.177   4.121   7.343  0.2252 -0.2679  0.1591
   31SAPC   H5X 4187   3.198   4.051   7.259  2.1758 -0.0857  0.4461
   31SAPC   H5Y 4188   3.074   4.099   7.379 -0.0150 -1.0217 -0.9393
   31SAPC   C36 4189   3.296   4.099   7.443  0.3180 -0.1644 -0.0027
   31SAPC   H6X 4190   3.390   4.126   7.391 -0.6326 -0.2380 -1.8058
   31SAPC   H6Y 4191   3.306   3.990   7.461 -0.2969 -0.1438  0.5125
   31SAPC   C37 4192   3.280   4.170   7.576 -0.3037  0.1411 -0.3858
   31SAPC   H7X 4193   3.274   4.281   7.567 -0.1397  0.2534  0.7095
   31SAPC   H7Y 4194   3.376   4.151   7.630 -0.4331 -1.3189 -0.6399
   31SAPC   C38 4195   3.162   4.126   7.658 -0.2779 -0.2784  0.2211
   31SAPC   H8X 4196   3.162   4.015   7.670 -1.7881 -0.2643  0.6838
   31SAPC   H8Y 4197   3.073   4.151   7.596  1.6349  0.3791 -2.3859
   31SAPC   C39 4198   3.145   4.183   7.801  0.1015  0.3316  0.0433
   31SAPC   H9X 4199   3.199   4.112   7.867  0.5520  1.2019  0.6328
   31SAPC   H9Y 4200   3.038   4.161   7.820  0.3000 -1.1817 -0.4978
   31SAPC  C310 4201   3.187   4.322   7.817  0.2619 -0.2643  0.2816
   31SAPC  H10X 4202   3.139   4.383   7.737 -1.3586 -2.2000 -0.3160
   31SAPC  H10Y 4203   3.295   4.343   7.822  0.1216  0.2216  1.4590
   31SAPC  C311 4204   3.137   4.387   7.951 -0.0787  0.3667  0.1209
   31SAPC  H11X 4205   3.035   4.351   7.977  0.6369 -0.6764  1.6558
   31SAPC  H11Y 4206   3.143   4.497   7.936  0.8361  0.3204  0.1140
   31SAPC  C312 4207   3.216   4.332   8.065 -0.4233  0.5496 -0.1675
   31SAPC  H12X 4208   3.324   4.355   8.056 -0.4430  0.5207 -0.4772
   31SAPC  H12Y 4209   3.211   4.222   8.075 -2.1994  0.6478  0.4018
   31SAPC  C313 4210   3.191   4.396   8.207  0.2192  0.5922  1.1830
   31SAPC  H13X 4211   3.111   4.334   8.253  0.9593 -3.2873 -2.2251
   31SAPC  H13Y 4212   3.160   4.500   8.186 -0.3401  0.6068  2.0054
   31SAPC  C314 4213   3.315   4.371   8.296 -0.6325  0.2764 -0.0018
   31SAPC  H14X 4214   3.393   4.444   8.266  0.2155 -1.4402 -2.2556
   31SAPC  H14Y 4215   3.352   4.267   8.283  0.8508  0.9028 -1.1013
   31SAPC  C315 4216   3.289   4.388   8.448 -0.2147 -0.2356 -0.6393
   31SAPC  H15X 4217   3.234   4.307   8.500 -1.3740  0.9496  0.0440
   31SAPC  H15Y 4218   3.223   4.476   8.461 -0.1492  0.4226 -3.9233
   31SAPC  C316 4219   3.414   4.400   8.535 -0.4931 -0.4265 -0.3665
   31SAPC  H16X 4220   3.487   4.469   8.487 -0.5949  0.0145  0.1005
   31SAPC  H16Y 4221   3.461   4.301   8.553 -0.2709 -0.4230 -0.9336
   31SAPC  C317 4222   3.396   4.459   8.681  0.4668 -0.0238 -0.5113
   31SAPC  H17X 4223   3.498   4.454   8.724  0.1565 -3.7838  0.1343
   31SAPC  H17Y 4224   3.334   4.391   8.744 -0.2863  0.9680 -0.1503
   31SAPC  C318 4225   3.343   4.601   8.682  0.3813 -0.0577  0.4047
   31SAPC  H18X 4226   3.240   4.593   8.643 -0.4205 -2.0272  2.6690
   31SAPC  H18Y 4227   3.407   4.662   8.615 -1.1131  0.9532 -0.1354
   31SAPC  H18Z 4228   3.339   4.632   8.789  0.5744 -1.6505  0.9132
   32SAPC     N 4229   2.153   0.127   6.116  0.3676 -0.4143 -0.0715
   32SAPC   C12 4230   2.194   0.134   6.259  0.0716 -0.3010 -0.3425
   32SAPC  H12A 4231   2.254   0.046   6.277  0.7569  0.6268  2.2440
   32SAPC  H12B 4232   2.112   0.137   6.329 -0.3290 -1.6399 -0.7126
   32SAPC   C13 4233   2.269   0.112   6.036 -0.0801  0.1867 -0.0647
   32SAPC  H13A 4234   2.316   0.018   6.061 -0.7388 -0.0467  0.3271
   32SAPC  H13B 4235   2.240   0.096   5.933 -1.0582 -2.9100  0.5808
   32SAPC  H13C 4236   2.348   0.183   6.050  0.4195  0.3226 -2.8536
   32SAPC   C14 4237   2.045   0.026   6.095 -0.0139 -0.3419 -0.5266
   32SAPC  H14A 4238   2.078  -0.076   6.109  0.3859 -0.3145 -1.2006
   32SAPC  H14B 4239   1.963   0.038   6.165  0.2117 -1.2645 -0.0914
   32SAPC  H14C 4240   2.003   0.031   5.995  1.3096 -0.8219 -1.1294
   32SAPC   C15 4241   2.078   0.257   6.083  0.3929  0.6043 -0.0911
   32SAPC  H15A 4242   2.072   0.279   5.977 -1.5271  2.5093  0.3349
   32SAPC  H15B 4243   1.974   0.250   6.112  0.3837  1.0890 -0.0065
   32SAPC  H15C 4244   2.123   0.334   6.143 -0.1862 -1.3154  2.9917
   32SAPC   C11 4245   2.303   0.236   6.303  0.7209  0.2265 -0.1612
   32SAPC  H11A 4246   2.304   0.252   6.413 -0.4439 -0.5111 -0.0291
   32SAPC  H11B 4247   2.262   0.335   6.273  3.0190  1.1728 -0.3863
   32SAPC     P 4248   2.527   0.348   6.213 -0.0345 -0.1985 -0.4868
   32SAPC   O13 4249   2.658   0.297   6.170  0.4247  0.5411 -0.3857
   32SAPC   O14 4250   2.446   0.443   6.129  0.1385 -0.0182 -0.3648
   32SAPC   O12 4251   2.437   0.218   6.253  0.1885  1.0142  0.5906
   32SAPC   O11 4252   2.551   0.419   6.347 -0.0451 -0.0930 -0.1261
   32SAPC    C1 4253   2.614   0.349   6.462 -0.1479 -0.1415  0.4792
   32SAPC    HA 4254   2.565   0.252   6.485 -0.0792 -0.1630  0.5351
   32SAPC    HB 4255   2.716   0.326   6.426 -0.8099  1.0313 -2.4019
   32SAPC    C2 4256   2.624   0.441   6.597  0.1898  0.2452 -0.3467
   32SAPC    HS 4257   2.694   0.522   6.570  0.4071 -0.0552 -0.6969
   32SAPC   O21 4258   2.676   0.369   6.712  0.2054  0.0775  0.5697
   32SAPC   C21 4259   2.801   0.371   6.731 -0.4228  0.0441 -0.0267
   32SAPC   O22 4260   2.882   0.417   6.648  0.1876  0.3753 -0.2802
   32SAPC   C22 4261   2.830   0.281   6.848 -0.6912  0.1095 -0.4249
   32SAPC   H2R 4262   2.788   0.329   6.939  0.5770 -0.5801  0.5574
   32SAPC   H2S 4263   2.785   0.182   6.825 -2.5236  0.8822 -0.2697
   32SAPC    C3 4264   2.481   0.496   6.631 -0.3685  0.3944  1.1005
   32SAPC    HX 4265   2.419   0.407   6.654  0.0225  0.3595  2.0861
   32SAPC    HY 4266   2.439   0.548   6.543  1.4247  0.8838  0.4920
   32SAPC   O31 4267   2.466   0.575   6.747  0.2589  0.2698 -0.6833
   32SAPC   C31 4268   2.548   0.677   6.756 -0.1274  0.6463 -0.0953
   32SAPC   O32 4269   2.629   0.719   6.672  0.3309  0.2839 -0.1584
   32SAPC   C32 4270   2.534   0.733   6.895  0.3521 -0.2538 -0.2868
   32SAPC   H2X 4271   2.607   0.817   6.893 -0.1171  0.1473 -0.6904
   32SAPC   H2Y 4272   2.561   0.655   6.970 -0.5578 -1.0300 -0.7390
   32SAPC   C23 4273   2.981   0.270   6.884 -0.1145  0.4156  0.4420
   32SAPC   H3R 4274   3.035   0.363   6.911  3.2570 -0.5734 -2.2113
   32SAPC   H3S 4275   3.026   0.234   6.789  2.0251 -1.3711  2.0413
   32SAPC   C24 4276   3.018   0.174   7.003  0.3113 -0.1170  0.8918
   32SAPC   H4R 4277   2.961   0.214   7.089 -0.4793  1.2276 -0.2185
   32SAPC   H4S 4278   3.127   0.193   7.019  0.3855  1.6477 -1.2436
   32SAPC   C25 4279   2.994   0.031   6.958  0.5835 -0.6477 -0.1301
   32SAPC   H5R 4280   3.016   0.029   6.850  2.5670  0.8452  0.1851
   32SAPC   C26 4281   2.977  -0.075   7.034 -0.2191  0.6415  0.6624
   32SAPC   H6R 4282   2.959  -0.172   6.985 -0.2747  1.2437 -0.5473
   32SAPC   C27 4283   2.966  -0.074   7.185  0.4528 -0.1035  0.0507
   32SAPC   H7R 4284   3.043   0.000   7.215  0.2770 -0.5939  1.8068
   32SAPC   H7S 4285   3.003  -0.168   7.232 -0.9392 -0.0705  1.2779
   32SAPC   C28 4286   2.836  -0.037   7.236  0.2186 -0.0666  0.1472
   32SAPC   H8R 4287   2.748  -0.041   7.170  0.4631  2.0885 -0.3989
   32SAPC   C29 4288   2.820   0.019   7.358 -0.5405 -0.2782 -0.4185
   32SAPC   H9R 4289   2.714   0.037   7.381 -0.8699 -0.9690 -1.3600
   32SAPC  C210 4290   2.914   0.051   7.469 -0.4033 -0.2414 -0.1537
   32SAPC  H10R 4291   3.008  -0.008   7.456  1.2730  1.8394  1.5748
   32SAPC  H10S 4292   2.873   0.020   7.568  0.5646  0.4375  0.4817
   32SAPC  C211 4293   2.948   0.197   7.480 -0.7441 -0.3218 -0.4075
   32SAPC  H11R 4294   2.971   0.239   7.381  2.6201  1.6964  1.0242
   32SAPC  C212 4295   2.940   0.280   7.587 -0.1563  0.0618  0.2109
   32SAPC  H12R 4296   2.973   0.385   7.578  2.3583 -0.7266 -0.5331
   32SAPC  C213 4297   2.904   0.232   7.724  0.3459  0.1167  0.0934
   32SAPC  H13R 4298   2.993   0.182   7.767  0.2969 -0.5606 -0.5767
   32SAPC  H13S 4299   2.831   0.149   7.726  0.8521 -0.3254  0.6044
   32SAPC  C214 4300   2.833   0.324   7.816 -0.0128 -0.0302 -0.0034
   32SAPC  H14R 4301   2.768   0.396   7.763 -0.3083 -0.8194 -0.7328
   32SAPC  C215 4302   2.829   0.316   7.950  0.0054 -0.2990  0.6171
   32SAPC  H15R 4303   2.754   0.383   7.994 -2.4095 -0.7066 -2.4949
   32SAPC  C216 4304   2.902   0.225   8.042  0.1025 -0.4921 -0.8577
   32SAPC  H16R 4305   2.988   0.172   7.997  0.5860  0.6812 -1.3415
   32SAPC  H16S 4306   2.833   0.143   8.075  0.4444 -0.4607 -0.0389
   32SAPC  C217 4307   2.954   0.278   8.179  0.5343  0.3034 -0.5689
   32SAPC  H17R 4308   3.027   0.360   8.169  0.5277  0.3374 -0.3339
   32SAPC  H17S 4309   3.015   0.194   8.219  2.9190  1.4616 -1.5895
   32SAPC  C218 4310   2.843   0.300   8.288 -0.1006 -0.2574  0.6944
   32SAPC  H18R 4311   2.775   0.212   8.287 -2.3674  1.4050 -0.2559
   32SAPC  H18S 4312   2.784   0.386   8.251  0.4935  0.1421  0.6757
   32SAPC  C219 4313   2.894   0.325   8.430  0.5769 -0.2888  0.0124
   32SAPC  H19R 4314   2.823   0.399   8.473  0.8184  0.3222 -0.6125
   32SAPC  H19S 4315   2.997   0.366   8.424  0.0749  1.1213  0.5144
   32SAPC  C220 4316   2.903   0.198   8.520  0.1261  0.0807  0.6881
   32SAPC  H20R 4317   2.973   0.127   8.472 -1.6113 -0.2993 -1.4433
   32SAPC  H20S 4318   2.802   0.154   8.536  0.4306 -0.5063  1.0280
   32SAPC  H20T 4319   2.944   0.228   8.619  0.2816 -1.0479  0.9736
   32SAPC   C33 4320   2.393   0.797   6.930 -0.4377  0.2799  0.7371
   32SAPC   H3X 4321   2.311   0.722   6.924 -0.4855  0.3717  0.2097
   32SAPC   H3Y 4322   2.355   0.866   6.852 -1.0347 -0.0426  0.7295
   32SAPC   C34 4323   2.389   0.853   7.078  0.3468 -0.5575  0.0757
   32SAPC   H4X 4324   2.381   0.763   7.143  0.7891 -1.7115 -1.4122
   32SAPC   H4Y 4325   2.299   0.913   7.104 -0.2341  0.1714 -3.1542
   32SAPC   C35 4326   2.502   0.943   7.122  0.1093 -0.3242 -0.2110
   32SAPC   H5X 4327   2.508   1.025   7.048 -0.6353  1.2105  1.3439
   32SAPC   H5Y 4328   2.599   0.890   7.118 -0.4775 -1.3485 -1.0909
   32SAPC   C36 4329   2.482   1.001   7.261  0.0765 -0.6518 -0.0002
   32SAPC   H6X 4330   2.390   1.064   7.265  2.1925  2.5768  2.2720
   32SAPC   H6Y 4331   2.562   1.076   7.278 -0.9732  0.2016  1.3782
   32SAPC   C37 4332   2.462   0.911   7.384  0.1784 -0.0397  0.4560
   32SAPC   H7X 4333   2.557   0.856   7.398  0.5024  0.3615 -0.1520
   32SAPC   H7Y 4334   2.389   0.831   7.359  2.1752 -0.8992 -3.3420
   32SAPC   C38 4335   2.428   0.987   7.517  0.2524 -0.0543  0.5286
   32SAPC   H8X 4336   2.341   1.055   7.510 -0.4223 -0.8482  1.0121
   32SAPC   H8Y 4337   2.515   1.055   7.533  0.2569 -0.2535  1.4398
   32SAPC   C39 4338   2.425   0.897   7.640  0.4281 -0.1950  0.1130
   32SAPC   H9X 4339   2.512   0.829   7.650 -1.4836 -2.5486  1.8370
   32SAPC   H9Y 4340   2.328   0.844   7.627  0.2009  0.3605 -0.5153
   32SAPC  C310 4341   2.425   0.976   7.773  0.3872 -0.5292 -0.2786
   32SAPC  H10X 4342   2.342   1.047   7.753 -0.2364 -1.5240 -1.3003
   32SAPC  H10Y 4343   2.518   1.037   7.786  0.6375 -1.3735  2.3957
   32SAPC  C311 4344   2.404   0.885   7.893  0.3739  0.3616  0.3368
   32SAPC  H11X 4345   2.481   0.805   7.907 -2.0807 -1.8426  2.2837
   32SAPC  H11Y 4346   2.308   0.832   7.878  0.6126 -0.1345  0.5078
   32SAPC  C312 4347   2.392   0.975   8.012 -0.3515  0.2653  0.0946
   32SAPC  H12X 4348   2.346   0.912   8.090  1.6423 -1.1745  0.1897
   32SAPC  H12Y 4349   2.325   1.057   7.977  1.7421  1.3408 -1.6549
   32SAPC  C313 4350   2.524   1.030   8.063 -0.3769 -0.4530 -0.3253
   32SAPC  H13X 4351   2.586   1.086   7.990 -0.6237  0.6578  0.2967
   32SAPC  H13Y 4352   2.589   0.944   8.091 -1.2578 -1.1761 -0.4359
   32SAPC  C314 4353   2.512   1.107   8.200 -0.5688  0.6032 -0.1734
   32SAPC  H14X 4354   2.441   1.053   8.266 -1.5047  0.7674 -1.0220
   32SAPC  H14Y 4355   2.453   1.200   8.182 -0.0899  0.9814  0.1746
   32SAPC  C315 4356   2.646   1.127   8.274  1.1698 -0.5475  0.3952
   32SAPC  H15X 4357   2.696   1.203   8.210 -0.0875 -0.2416 -0.2721
   32SAPC  H15Y 4358   2.704   1.036   8.250 -0.7456 -1.9226  0.7138
   32SAPC  C316 4359   2.648   1.180   8.414  0.3460 -0.0934  0.2973
   32SAPC  H16X 4360   2.559   1.131   8.457  0.3747  1.0911  1.8228
   32SAPC  H16Y 4361   2.631   1.290   8.425  2.3381  0.1498  1.4629
   32SAPC  C317 4362   2.779   1.154   8.491  0.4487 -0.1756 -0.3804
   32SAPC  H17X 4363   2.865   1.184   8.427  0.1329  1.5688 -0.0457
   32SAPC  H17Y 4364   2.790   1.044   8.484 -2.4314 -0.4278 -3.0837
   32SAPC  C318 4365   2.798   1.203   8.639  0.0954 -0.0783 -0.0562
   32SAPC  H18X 4366   2.813   1.312   8.649  1.1258 -0.4082  2.6465
   32SAPC  H18Y 4367   2.888   1.147   8.674 -1.3239 -1.3542  1.7779
   32SAPC  H18Z 4368   2.716   1.166   8.704  0.7009  2.0114  1.9983
   33POPC     N 4369   1.071   1.775  10.447  0.5761  0.3719  0.1477
   33POPC   C12 4370   1.130   1.913  10.466 -0.2946 -0.2641  0.2014
   33POPC  H12A 4371   1.136   1.934  10.572 -0.3310  1.7343 -0.1468
   33POPC  H12B 4372   1.056   1.986  10.436 -0.1767  0.4849  1.6196
   33POPC   C13 4373   1.162   1.674  10.514 -0.3844  0.0515  0.5437
   33POPC  H13A 4374   1.158   1.671  10.621 -0.6248 -3.7303  0.5883
   33POPC  H13B 4375   1.128   1.576  10.482  0.7112 -0.1726  0.0075
   33POPC  H13C 4376   1.266   1.677  10.483  0.5704 -1.8296  3.2213
   33POPC   C14 4377   0.933   1.778  10.492  0.0463 -0.0938  0.2672
   33POPC  H14A 4378   0.915   1.838  10.580  2.8365 -0.0026  0.8748
   33POPC  H14B 4379   0.870   1.817  10.413  1.4561  1.1483 -0.2973
   33POPC  H14C 4380   0.908   1.674  10.507 -3.3123  0.5982  0.3163
   33POPC   C15 4381   1.072   1.750  10.296 -0.0688 -0.1939 -0.0813
   33POPC  H15A 4382   0.991   1.801  10.246  0.5151 -1.5619 -2.6047
   33POPC  H15B 4383   1.049   1.645  10.284  0.9190 -0.5886  1.2890
   33POPC  H15C 4384   1.159   1.780  10.240 -0.7894 -0.0539 -1.1435
   33POPC   C11 4385   1.259   1.958  10.406 -0.2719  0.5498  0.2151
   33POPC  H11A 4386   1.272   2.068  10.406 -0.4253  0.5797 -1.1020
   33POPC  H11B 4387   1.267   1.933  10.298 -1.1541 -0.7401  0.4311
   33POPC     P 4388   1.518   1.937  10.432 -0.6283 -0.1541 -0.2142
   33POPC   O13 4389   1.617   1.864  10.511  0.2195  0.4666 -0.2483
   33POPC   O14 4390   1.532   2.084  10.421 -0.5304 -0.6477  0.0165
   33POPC   O12 4391   1.371   1.908  10.480 -0.2864  0.0801  0.1195
   33POPC   O11 4392   1.517   1.871  10.294  1.0525  0.1422  0.3222
   33POPC    C1 4393   1.575   1.742  10.265 -0.0473  0.3412 -0.1842
   33POPC    HA 4394   1.654   1.716  10.339 -0.8076 -0.3567  0.4088
   33POPC    HB 4395   1.495   1.668  10.287  0.3588  0.0194  0.2365
   33POPC    C2 4396   1.624   1.739  10.119  0.3429 -0.3313 -0.6794
   33POPC    HS 4397   1.673   1.642  10.098 -1.1659 -1.7940  2.0022
   33POPC   O21 4398   1.712   1.852  10.087 -0.7290  0.0313  0.0376
   33POPC   C21 4399   1.830   1.854  10.154  0.3436  0.1299  0.2539
   33POPC   O22 4400   1.863   1.777  10.241 -0.2764 -1.0228  1.0114
   33POPC   C22 4401   1.903   1.975  10.099 -0.2905 -0.4156 -0.0852
   33POPC   H2R 4402   1.900   2.058  10.172 -1.1152  0.8211 -1.4703
   33POPC   H2S 4403   1.852   2.011  10.006 -0.0749  1.8160  0.6034
   33POPC    C3 4404   1.512   1.748  10.005  0.0225 -0.3451 -0.1428
   33POPC    HX 4405   1.464   1.847   9.990 -1.6893 -0.7371  2.1266
   33POPC    HY 4406   1.427   1.684  10.038  0.9001 -1.8312 -0.6961
   33POPC   O31 4407   1.561   1.693   9.882  0.8416 -0.9273 -0.2047
   33POPC   C31 4408   1.583   1.776   9.782 -0.4586 -0.0290 -0.9117
   33POPC   O32 4409   1.580   1.898   9.790  0.4552 -0.0104  0.2342
   33POPC   C32 4410   1.603   1.687   9.651 -0.0382  0.8335  0.3249
   33POPC   H2X 4411   1.512   1.624   9.639 -0.7050  1.7983  0.1211
   33POPC   H2Y 4412   1.688   1.619   9.670 -2.0336 -2.4842 -1.5685
   33POPC   C23 4413   2.055   1.938  10.078 -0.0398  0.5632  0.0519
   33POPC   H3R 4414   2.071   1.861   9.999 -0.7830  1.5895 -1.1363
   33POPC   H3S 4415   2.092   1.894  10.173  0.1332  1.8236  0.5835
   33POPC   C24 4416   2.132   2.064  10.063 -0.0172 -0.4025  0.3577
   33POPC   H4R 4417   2.084   2.131  10.138  0.6726 -1.1415  1.4829
   33POPC   H4S 4418   2.123   2.109   9.961  1.0602 -0.5420  0.1915
   33POPC   C25 4419   2.280   2.033  10.100 -0.0604  0.4207  0.1051
   33POPC   H5R 4420   2.290   1.985  10.200  1.4736  1.9668  0.7424
   33POPC   H5S 4421   2.337   2.128  10.108  1.7554 -0.5802 -0.2553
   33POPC   C26 4422   2.343   1.940   9.988  0.6012 -0.2398 -0.6736
   33POPC   H6R 4423   2.307   1.969   9.887 -1.7781 -0.2777  0.0974
   33POPC   H6S 4424   2.323   1.833  10.010  0.0902  0.1340  0.8136
   33POPC   C27 4425   2.491   1.973   9.972  0.1969 -0.2413 -0.2259
   33POPC   H7R 4426   2.545   1.955  10.067 -1.5264  0.0078  0.8487
   33POPC   H7S 4427   2.497   2.079   9.939  0.3948 -0.0464  0.4210
   33POPC   C28 4428   2.551   1.887   9.863 -0.2486  0.0386 -0.3456
   33POPC   H8R 4429   2.475   1.870   9.783  2.1267  0.1164 -2.7440
   33POPC   H8S 4430   2.572   1.782   9.894  0.5485 -0.7188 -3.1690
   33POPC   C29 4431   2.678   1.934   9.792  0.0802  0.3815  0.1855
   33POPC   H91 4432   2.772   1.937   9.849  0.0839 -1.2396  0.3176
   33POPC  C210 4433   2.691   1.985   9.669 -0.4184  0.3585 -0.3155
   33POPC  H101 4434   2.787   2.021   9.630  0.2373 -1.8946 -0.9361
   33POPC  C211 4435   2.581   1.998   9.573 -0.9723  0.2244  0.2358
   33POPC  H11R 4436   2.548   2.103   9.561  1.0637  0.9903  0.9079
   33POPC  H11S 4437   2.500   1.925   9.595 -2.0714  0.9474 -1.1885
   33POPC  C212 4438   2.621   1.962   9.428  0.3223  0.6459 -0.2532
   33POPC  H12R 4439   2.667   1.861   9.431 -0.0556  0.4456 -1.0495
   33POPC  H12S 4440   2.710   2.019   9.394  0.8988  0.2188  0.5084
   33POPC  C213 4441   2.501   1.973   9.332  0.7538  0.1350  0.1290
   33POPC  H13R 4442   2.459   2.075   9.313  0.5756 -0.0068 -0.2434
   33POPC  H13S 4443   2.411   1.917   9.365  0.0414  1.4644  0.5461
   33POPC  C214 4444   2.539   1.914   9.195 -0.0361  0.1245  0.2798
   33POPC  H14R 4445   2.455   1.934   9.126 -0.6082 -0.9041  0.6525
   33POPC  H14S 4446   2.548   1.803   9.196 -1.4034 -0.0343 -1.4306
   33POPC  C215 4447   2.676   1.959   9.136  0.7201  0.2887  0.2077
   33POPC  H15R 4448   2.690   1.889   9.051 -1.1179 -1.0137  0.8923
   33POPC  H15S 4449   2.764   1.957   9.203  0.6675  0.1037  0.2730
   33POPC  C216 4450   2.674   2.101   9.068  0.4936  0.5592  0.0290
   33POPC  H16R 4451   2.647   2.170   9.150  1.4811  1.0398 -0.0409
   33POPC  H16S 4452   2.599   2.095   8.986 -1.4763 -1.0740  1.8156
   33POPC  C217 4453   2.809   2.134   9.007 -0.6569 -0.1416 -0.2635
   33POPC  H17R 4454   2.884   2.128   9.089 -0.3130  0.5099 -0.5263
   33POPC  H17S 4455   2.816   2.243   8.990 -0.0200 -0.1293  0.0231
   33POPC  C218 4456   2.847   2.069   8.876 -0.0150 -0.4381 -0.2229
   33POPC  H18R 4457   2.804   2.119   8.787 -3.2906 -2.7581 -0.1548
   33POPC  H18S 4458   2.811   1.965   8.857 -3.1548 -0.0783  2.8360
   33POPC  H18T 4459   2.958   2.072   8.872  0.0623 -0.4893  1.2964
   33POPC   C33 4460   1.626   1.769   9.522 -0.2003  0.1830 -0.4556
   33POPC   H3X 4461   1.669   1.694   9.452  1.4326 -2.5630  3.1556
   33POPC   H3Y 4462   1.705   1.847   9.539  1.8120 -1.7090 -0.6784
   33POPC   C34 4463   1.497   1.821   9.466 -0.1674 -0.2178  0.2187
   33POPC   H4X 4464   1.478   1.911   9.528  2.8150  0.1092  0.8063
   33POPC   H4Y 4465   1.409   1.756   9.480  0.0501 -0.5190  0.1969
   33POPC   C35 4466   1.524   1.870   9.320  0.3886 -0.0910 -0.1841
   33POPC   H5X 4467   1.597   1.802   9.272  0.5392 -0.6902  0.8433
   33POPC   H5Y 4468   1.553   1.977   9.323  0.4721 -0.0393 -1.9131
   33POPC   C36 4469   1.391   1.872   9.239 -0.1393 -0.0838 -0.2003
   33POPC   H6X 4470   1.316   1.939   9.288  1.4929  1.1116  0.7709
   33POPC   H6Y 4471   1.347   1.770   9.244 -3.0718  1.1385  1.0100
   33POPC   C37 4472   1.415   1.909   9.093  0.0612 -0.1516 -0.0829
   33POPC   H7X 4473   1.471   1.827   9.042  2.1622  0.8815  0.4138
   33POPC   H7Y 4474   1.488   1.993   9.101  0.8332 -0.9796  4.8665
   33POPC   C38 4475   1.292   1.944   9.022 -0.7787 -0.9190 -0.2597
   33POPC   H8X 4476   1.251   2.039   9.062  1.4684 -0.6453  1.6316
   33POPC   H8Y 4477   1.213   1.868   9.040 -0.5498 -1.1485 -0.2121
   33POPC   C39 4478   1.317   1.968   8.876  0.1738  0.8872  0.2111
   33POPC   H9X 4479   1.345   1.868   8.836 -1.6097 -0.6211  2.4203
   33POPC   H9Y 4480   1.407   2.031   8.858  1.2380 -1.1059 -2.0903
   33POPC  C310 4481   1.192   2.019   8.815 -0.1269  0.0674  0.3598
   33POPC  H10X 4482   1.175   2.118   8.861 -0.5014 -0.0349  0.4445
   33POPC  H10Y 4483   1.109   1.956   8.854  0.8150 -0.9566  0.7744
   33POPC  C311 4484   1.197   2.025   8.664 -0.1487 -0.6745 -0.1059
   33POPC  H11X 4485   1.255   1.935   8.633  0.5078  0.0108 -0.9207
   33POPC  H11Y 4486   1.257   2.117   8.647 -0.6959 -0.2370  0.3247
   33POPC  C312 4487   1.060   2.038   8.597 -0.5217  0.0141  0.2984
   33POPC  H12X 4488   0.993   2.108   8.651 -0.0147 -0.8681  2.2011
   33POPC  H12Y 4489   1.002   1.943   8.600 -3.3514  1.6073 -0.6786
   33POPC  C313 4490   1.072   2.071   8.447  0.0723 -0.2141 -0.4724
   33POPC  H13X 4491   0.980   2.033   8.397  0.6789 -0.9412 -1.0716
   33POPC  H13Y 4492   1.153   2.015   8.396 -1.0103 -0.7128 -1.7160
   33POPC  C314 4493   1.082   2.229   8.426  0.5364 -0.2412 -0.1962
   33POPC  H14X 4494   1.170   2.270   8.479 -0.5664  2.8946 -0.5346
   33POPC  H14Y 4495   0.995   2.273   8.479  2.0716  0.0101  2.2851
   33POPC  C315 4496   1.077   2.283   8.276  0.0118  0.6224 -0.6948
   33POPC  H15X 4497   1.161   2.237   8.220  0.2883 -0.8991  0.8896
   33POPC  H15Y 4498   1.092   2.393   8.264  0.7383  0.5918 -0.1104
   33POPC  C316 4499   0.942   2.256   8.208 -0.0485  0.5588 -0.4606
   33POPC  H16X 4500   0.923   2.310   8.113  0.2396  2.2102  0.3682
   33POPC  H16Y 4501   0.867   2.302   8.276 -1.6344  0.7670 -2.2748
   33POPC  H16Z 4502   0.938   2.146   8.200  2.2662  0.3187  0.6928
   34POPC     N 4503   0.617   1.239  10.469  0.9030  1.2785  0.2801
   34POPC   C12 4504   0.645   1.375  10.413  0.4129 -0.1028  0.1351
   34POPC  H12A 4505   0.563   1.439  10.442 -1.8151 -1.8142 -1.9880
   34POPC  H12B 4506   0.619   1.377  10.308  1.7353  1.8691 -0.2129
   34POPC   C13 4507   0.474   1.204  10.449 -0.1494  0.5674  0.6304
   34POPC  H13A 4508   0.452   1.099  10.465 -2.2694  0.5918 -1.6069
   34POPC  H13B 4509   0.410   1.255  10.520 -0.6886 -0.6931  1.0828
   34POPC  H13C 4510   0.448   1.233  10.349  2.6167 -1.1005 -0.6957
   34POPC   C14 4511   0.696   1.138  10.401 -0.5310 -0.0235  0.2441
   34POPC  H14A 4512   0.677   1.137  10.294  0.0626  0.8117  0.1221
   34POPC  H14B 4513   0.802   1.154  10.412 -0.1152  0.7316 -3.4785
   34POPC  H14C 4514   0.668   1.037  10.429  0.7524 -1.4979 -3.2199
   34POPC   C15 4515   0.639   1.232  10.619  0.0421 -0.4166  1.0697
   34POPC  H15A 4516   0.740   1.254  10.648  0.5696 -1.1310 -0.1215
   34POPC  H15B 4517   0.618   1.133  10.655  0.6096 -0.3350  1.6453
   34POPC  H15C 4518   0.579   1.298  10.680 -4.0107 -1.0376 -1.8487
   34POPC   C11 4519   0.780   1.434  10.433  0.3339 -0.1281 -0.1253
   34POPC  H11A 4520   0.794   1.473  10.536 -0.0399  2.9366 -1.1380
   34POPC  H11B 4521   0.769   1.525  10.371 -1.3951 -0.7936 -0.8699
   34POPC     P 4522   0.998   1.314  10.490 -0.3262 -0.1459  0.1220
   34POPC   O13 4523   0.932   1.287  10.618  0.0070  0.2243 -0.0447
   34POPC   O14 4524   1.113   1.401  10.486  0.0451 -0.7509  0.4747
   34POPC   O12 4525   0.895   1.360  10.380  0.3599  0.0413  0.4719
   34POPC   O11 4526   1.040   1.171  10.428 -0.6996 -0.3995 -0.1780
   34POPC    C1 4527   1.054   1.167  10.283 -0.9511  0.3600  0.1964
   34POPC    HA 4528   1.111   1.257  10.253  0.5544 -0.4746  0.4900
   34POPC    HB 4529   0.955   1.168  10.233 -0.7545 -1.7590 -0.3322
   34POPC    C2 4530   1.130   1.032  10.240  0.3123 -0.4198  1.0206
   34POPC    HS 4531   1.142   1.021  10.130  0.2383  0.0428  0.9658
   34POPC   O21 4532   1.068   0.916  10.300  0.1322 -0.3126  0.3489
   34POPC   C21 4533   0.963   0.869  10.232 -0.4110 -0.5968 -0.3744
   34POPC   O22 4534   0.917   0.919  10.132  0.4177  0.3584  0.1048
   34POPC   C22 4535   0.890   0.768  10.313  0.6965 -0.2496 -0.7406
   34POPC   H2R 4536   0.783   0.773  10.282  0.6875  0.3926 -0.6257
   34POPC   H2S 4537   0.892   0.808  10.417  0.6433 -1.0853 -0.4110
   34POPC    C3 4538   1.279   1.028  10.293 -0.1334 -0.0746  0.5410
   34POPC    HX 4539   1.266   1.021  10.404 -0.4086 -0.1658  0.5050
   34POPC    HY 4540   1.325   1.127  10.273 -1.0528  0.5810  1.5471
   34POPC   O31 4541   1.356   0.916  10.239 -0.1346 -0.0105 -0.1446
   34POPC   C31 4542   1.397   0.927  10.110 -0.8253 -0.6853 -0.7341
   34POPC   O32 4543   1.366   1.022  10.037 -0.5904 -0.1533  0.1478
   34POPC   C32 4544   1.483   0.807  10.068  0.2456  0.7841 -0.1778
   34POPC   H2X 4545   1.498   0.735  10.151  0.7170  1.7466  0.6098
   34POPC   H2Y 4546   1.586   0.843  10.046  1.8352 -2.6765  1.0068
   34POPC   C23 4547   0.939   0.621  10.302 -0.0933  0.2890  0.5938
   34POPC   H3R 4548   0.895   0.559  10.383 -1.0316 -1.9351 -1.4778
   34POPC   H3S 4549   1.047   0.631  10.325  0.1761  3.5413 -1.3864
   34POPC   C24 4550   0.925   0.558  10.161 -1.0492 -0.1007 -0.3738
   34POPC   H4R 4551   0.836   0.607  10.115 -0.4171  1.6464  0.2080
   34POPC   H4S 4552   0.900   0.450  10.173  2.1285 -0.6915  2.3717
   34POPC   C25 4553   1.040   0.566  10.062 -0.3554 -0.0279  0.2209
   34POPC   H5R 4554   1.129   0.538  10.123 -1.5318 -1.3986  1.4017
   34POPC   H5S 4555   1.061   0.667  10.022  0.5921 -0.2397  0.1739
   34POPC   C26 4556   1.034   0.455   9.955  0.6439 -0.7990  0.3371
   34POPC   H6R 4557   0.938   0.463   9.900  0.1232 -2.7209  0.8933
   34POPC   H6S 4558   1.035   0.349   9.986  2.1757 -1.5422 -2.0395
   34POPC   C27 4559   1.164   0.471   9.868 -0.0848 -0.7548 -0.4396
   34POPC   H7R 4560   1.249   0.438   9.932  0.0571  2.7227  1.3831
   34POPC   H7S 4561   1.175   0.581   9.858  0.5398 -0.5335  2.0463
   34POPC   C28 4562   1.133   0.403   9.736 -0.6484  0.7136 -0.0628
   34POPC   H8R 4563   1.038   0.445   9.698 -0.6616  0.1484 -0.6901
   34POPC   H8S 4564   1.111   0.296   9.757 -3.0670  0.6222 -2.4726
   34POPC   C29 4565   1.250   0.417   9.648 -0.4106 -0.0977 -0.1030
   34POPC   H91 4566   1.345   0.436   9.700  0.0835 -1.4343 -0.4850
   34POPC  C210 4567   1.251   0.428   9.515 -0.1119 -0.3011 -0.5804
   34POPC  H101 4568   1.348   0.453   9.469 -0.2013 -1.9304 -1.7554
   34POPC  C211 4569   1.138   0.435   9.417  0.5915 -0.2046  0.1971
   34POPC  H11R 4570   1.111   0.539   9.387 -0.7268 -0.7333 -0.5522
   34POPC  H11S 4571   1.058   0.374   9.464  0.0404 -1.9140 -2.6517
   34POPC  C212 4572   1.159   0.359   9.288 -0.1819  1.3658  0.4089
   34POPC  H12R 4573   1.175   0.253   9.317 -0.4330  1.4285  0.7726
   34POPC  H12S 4574   1.244   0.398   9.228 -0.4316  3.1369  1.1410
   34POPC  C213 4575   1.039   0.369   9.192  0.5690  0.0599 -0.1747
   34POPC  H13R 4576   1.026   0.479   9.184  4.1908  0.5553 -0.8168
   34POPC  H13S 4577   0.948   0.327   9.241  2.3540 -1.0155  2.4491
   34POPC  C214 4578   1.057   0.299   9.058 -0.7443  0.1494 -0.4416
   34POPC  H14R 4579   1.067   0.190   9.077 -2.2106 -0.1414 -1.1715
   34POPC  H14S 4580   1.146   0.326   8.998 -0.0947 -0.5584  0.1894
   34POPC  C215 4581   0.939   0.313   8.965 -0.2962 -0.9618  0.0520
   34POPC  H15R 4582   0.860   0.243   9.002  0.5610 -0.9480  2.0710
   34POPC  H15S 4583   0.963   0.265   8.868  0.4716 -2.0604  0.7526
   34POPC  C216 4584   0.884   0.456   8.946 -0.1993 -0.0452 -0.4645
   34POPC  H16R 4585   0.970   0.508   8.898  0.5009 -0.5446  0.2192
   34POPC  H16S 4586   0.853   0.491   9.047 -0.3563 -3.6470  0.8605
   34POPC  C217 4587   0.761   0.469   8.859 -0.8640  0.0291 -0.4520
   34POPC  H17R 4588   0.737   0.578   8.853  2.3833  0.9895  1.6546
   34POPC  H17S 4589   0.680   0.420   8.917 -1.6208  1.4282 -0.2847
   34POPC  C218 4590   0.796   0.410   8.722 -0.0652  0.2366  1.2780
   34POPC  H18R 4591   0.826   0.303   8.719 -0.8515  0.0300  0.5567
   34POPC  H18S 4592   0.884   0.468   8.686  0.3096 -0.8711  0.3301
   34POPC  H18T 4593   0.714   0.421   8.648 -0.0688  1.2933  1.4244
   34POPC   C33 4594   1.427   0.738   9.946 -0.1431  0.9019 -0.5268
   34POPC   H3X 4595   1.318   0.727   9.965  0.2089  1.0619  1.7958
   34POPC   H3Y 4596   1.475   0.639   9.934  1.4989  1.4979  0.8500
   34POPC   C34 4597   1.466   0.813   9.821  0.5889  1.1913  0.7562
   34POPC   H4X 4598   1.576   0.830   9.823  1.1415 -1.3123 -2.1518
   34POPC   H4Y 4599   1.407   0.904   9.795 -1.6230 -0.5190 -0.4922
   34POPC   C35 4600   1.453   0.721   9.695 -1.2523  0.2430  0.2946
   34POPC   H5X 4601   1.350   0.681   9.690 -1.7020  1.3130  0.7191
   34POPC   H5Y 4602   1.524   0.637   9.709 -0.1929  1.1284  0.3723
   34POPC   C36 4603   1.491   0.792   9.563  0.0886 -0.1653  0.4917
   34POPC   H6X 4604   1.597   0.826   9.563 -0.2791  1.0686  1.8190
   34POPC   H6Y 4605   1.442   0.891   9.554  0.5443  0.2194  2.0014
   34POPC   C37 4606   1.461   0.699   9.448 -0.4613  0.2915  0.0234
   34POPC   H7X 4607   1.351   0.691   9.439 -0.7526  2.0756  1.4921
   34POPC   H7Y 4608   1.506   0.597   9.460 -0.6012  0.2655  0.3316
   34POPC   C38 4609   1.533   0.747   9.316  0.2024 -0.7494 -0.3619
   34POPC   H8X 4610   1.643   0.757   9.328 -0.0236  1.1879  0.6195
   34POPC   H8Y 4611   1.490   0.847   9.291 -0.3228 -1.0772 -0.7755
   34POPC   C39 4612   1.496   0.645   9.213  0.0867 -0.2759 -0.2355
   34POPC   H9X 4613   1.386   0.657   9.204  0.2526  1.2223 -0.5931
   34POPC   H9Y 4614   1.505   0.549   9.267  1.3959  0.8568  1.7220
   34POPC  C310 4615   1.565   0.662   9.077  0.4228  0.1674  0.1404
   34POPC  H10X 4616   1.662   0.609   9.071 -0.0094 -0.7420  0.7618
   34POPC  H10Y 4617   1.578   0.768   9.047  0.0772  0.4868  1.0660
   34POPC  C311 4618   1.476   0.610   8.962  0.0777 -0.3043 -0.7148
   34POPC  H11X 4619   1.381   0.666   8.975  0.1121 -0.4822  0.3339
   34POPC  H11Y 4620   1.449   0.504   8.983 -1.7729 -0.0829 -1.7532
   34POPC  C312 4621   1.530   0.626   8.819  0.2331  0.2003  0.3025
   34POPC  H12X 4622   1.626   0.571   8.819 -0.2834 -0.7871  1.9154
   34POPC  H12Y 4623   1.567   0.727   8.793  1.5206 -0.3056  0.1115
   34POPC  C313 4624   1.422   0.582   8.716  0.0174  0.2263  0.3787
   34POPC  H13X 4625   1.459   0.602   8.613  1.0553 -1.4308  0.4007
   34POPC  H13Y 4626   1.331   0.645   8.722  1.1732  1.9115  1.1813
   34POPC  C314 4627   1.395   0.427   8.710  0.1024  0.1710  0.1578
   34POPC  H14X 4628   1.375   0.389   8.813 -1.7547 -0.1379 -0.2702
   34POPC  H14Y 4629   1.482   0.368   8.676 -0.4242 -0.6035  0.1347
   34POPC  C315 4630   1.268   0.400   8.628 -0.0700  0.0468 -0.1816
   34POPC  H15X 4631   1.300   0.403   8.522  1.1353  1.6666  0.1751
   34POPC  H15Y 4632   1.183   0.469   8.647 -0.2250 -0.2489  0.2192
   34POPC  C316 4633   1.210   0.259   8.654 -0.4313 -0.1772 -0.3304
   34POPC  H16X 4634   1.277   0.190   8.598  0.5232  0.2490  0.2529
   34POPC  H16Y 4635   1.104   0.254   8.620 -0.2065 -1.5064 -0.9038
   34POPC  H16Z 4636   1.209   0.232   8.761  0.0061 -0.6030 -0.4337
   35POPC     N 4637   0.158   6.735  10.977 -1.2033 -0.2662  0.0893
   35POPC   C12 4638   0.153   6.602  10.901  0.5743 -0.7103 -0.0817
   35POPC  H12A 4639   0.252   6.589  10.859  1.0098 -0.8798  0.9679
   35POPC  H12B 4640   0.081   6.612  10.821 -0.1165  2.4328  0.8102
   35POPC   C13 4641   0.232   6.846  10.913  0.2708 -0.2571  0.4666
   35POPC  H13A 4642   0.336   6.820  10.900  0.5859  1.1320  0.1062
   35POPC  H13B 4643   0.187   6.856  10.815  0.5206 -2.8515 -0.0049
   35POPC  H13C 4644   0.225   6.936  10.972  1.8577  0.2750 -0.1133
   35POPC   C14 4645   0.022   6.781  11.004  0.4208 -0.2512 -0.0607
   35POPC  H14A 4646  -0.028   6.714  11.072  1.2862  0.4990  1.3711
   35POPC  H14B 4647   0.022   6.882  11.041  1.9811 -0.8323  1.7023
   35POPC  H14C 4648  -0.042   6.774  10.917 -0.2966 -1.6598  0.5547
   35POPC   C15 4649   0.234   6.722  11.110  0.0828  0.5055 -0.0950
   35POPC  H15A 4650   0.224   6.818  11.158 -1.4490 -0.0058  0.6877
   35POPC  H15B 4651   0.335   6.694  11.085 -1.0844 -2.4858 -2.0397
   35POPC  H15C 4652   0.191   6.643  11.170  1.2514  0.1373  0.2871
   35POPC   C11 4653   0.132   6.465  10.975  0.6140 -0.8536  0.5380
   35POPC  H11A 4654   0.226   6.442  11.028 -1.0893 -2.3314  3.1264
   35POPC  H11B 4655   0.113   6.390  10.896 -1.6460  1.3247 -1.1782
   35POPC     P 4656  -0.125   6.457  11.024 -0.1397  0.0141  0.0637
   35POPC   O13 4657  -0.182   6.591  11.056  0.6195 -0.4410  0.1736
   35POPC   O14 4658  -0.186   6.339  11.087 -0.1423 -0.0197 -0.3657
   35POPC   O12 4659   0.026   6.461  11.063  0.1265  0.5758 -0.0193
   35POPC   O11 4660  -0.122   6.429  10.862  0.4581  0.8321 -0.0001
   35POPC    C1 4661  -0.117   6.293  10.812  0.7414  0.2661 -0.3451
   35POPC    HA 4662  -0.221   6.255  10.821 -0.6467  3.2670 -2.0874
   35POPC    HB 4663  -0.055   6.231  10.880 -2.2916  1.0847  3.5406
   35POPC    C2 4664  -0.079   6.280  10.661 -0.1992 -0.0297  1.0671
   35POPC    HS 4665   0.028   6.309  10.661 -0.3251  0.5885  2.7153
   35POPC   O21 4666  -0.171   6.359  10.579  0.2974  0.1202 -0.6638
   35POPC   C21 4667  -0.107   6.432  10.481 -0.0557 -0.7683  0.7735
   35POPC   O22 4668   0.012   6.458  10.488  0.1661 -0.0535 -0.2078
   35POPC   C22 4669  -0.189   6.475  10.367 -0.1610 -0.6044  0.5901
   35POPC   H2R 4670  -0.284   6.519  10.403 -1.2852 -1.7935 -0.8310
   35POPC   H2S 4671  -0.228   6.386  10.313 -1.3930  0.3070 -0.0772
   35POPC    C3 4672  -0.104   6.135  10.607 -0.5609  0.4688 -0.7133
   35POPC    HX 4673  -0.215   6.129  10.603 -0.7083  2.5889 -0.9426
   35POPC    HY 4674  -0.057   6.061  10.676  0.5074  0.3789 -1.5096
   35POPC   O31 4675  -0.035   6.124  10.479  0.4140 -0.3677  0.2654
   35POPC   C31 4676  -0.076   6.023  10.397  0.0698 -0.2389 -0.3328
   35POPC   O32 4677  -0.163   5.943  10.416 -0.0052  0.3938 -0.4338
   35POPC   C32 4678   0.009   6.041  10.265  0.3322 -0.4018 -0.1922
   35POPC   H2X 4679   0.051   5.939  10.253  1.0290 -0.1532  0.0990
   35POPC   H2Y 4680   0.098   6.103  10.288  0.5280 -0.7160 -0.0889
   35POPC   C23 4681  -0.122   6.586  10.285  0.0664  0.9796  0.2052
   35POPC   H3R 4682  -0.015   6.562  10.266 -0.0419 -0.2229  1.0347
   35POPC   H3S 4683  -0.128   6.679  10.346 -2.2392  1.9199 -1.2970
   35POPC   C24 4684  -0.190   6.600  10.149  0.1715 -0.0280 -0.0238
   35POPC   H4R 4685  -0.136   6.681  10.095 -0.2980 -1.4829 -2.8766
   35POPC   H4S 4686  -0.293   6.636  10.170  0.3516 -0.1274  1.1418
   35POPC   C25 4687  -0.169   6.475  10.054 -0.4872 -0.5524  0.5809
   35POPC   H5R 4688  -0.247   6.397  10.072 -0.3992 -0.9546 -0.6712
   35POPC   H5S 4689  -0.069   6.438  10.084  0.9509  2.5989 -0.0041
   35POPC   C26 4690  -0.150   6.503   9.908 -0.3367  0.5320 -0.1351
   35POPC   H6R 4691  -0.064   6.569   9.885  1.4133 -2.1390 -1.9790
   35POPC   H6S 4692  -0.233   6.569   9.874  0.6445  0.3426 -3.2651
   35POPC   C27 4693  -0.145   6.371   9.826  0.4710  0.2674 -0.2511
   35POPC   H7R 4694  -0.067   6.306   9.872 -0.4884 -1.0878 -0.4515
   35POPC   H7S 4695  -0.115   6.398   9.723  0.9839 -0.6764 -0.3600
   35POPC   C28 4696  -0.271   6.278   9.828  0.6467  0.4634 -0.5013
   35POPC   H8R 4697  -0.300   6.253   9.932 -1.2207  1.9770 -0.6046
   35POPC   H8S 4698  -0.242   6.184   9.776  3.7504  0.5157  0.9106
   35POPC   C29 4699  -0.395   6.350   9.779  0.6400 -0.0565  0.3434
   35POPC   H91 4700  -0.438   6.408   9.862  0.4747 -0.8381  0.8143
   35POPC  C210 4701  -0.455   6.354   9.662 -0.4912  0.2859 -0.3295
   35POPC  H101 4702  -0.547   6.413   9.647 -1.8644 -1.4440  0.8431
   35POPC  C211 4703  -0.408   6.276   9.543  0.0365  0.4977 -0.7000
   35POPC  H11R 4704  -0.490   6.211   9.504  0.2240 -2.7047  3.5338
   35POPC  H11S 4705  -0.321   6.209   9.561  0.6871  0.7597 -2.6138
   35POPC  C212 4706  -0.351   6.372   9.443 -0.0470 -0.9579 -0.1253
   35POPC  H12R 4707  -0.247   6.405   9.464 -1.1075  1.6319  1.5723
   35POPC  H12S 4708  -0.413   6.463   9.431 -0.2792 -1.2855 -1.5652
   35POPC  C213 4709  -0.336   6.315   9.300 -0.7062 -0.1556 -0.2590
   35POPC  H13R 4710  -0.434   6.280   9.261  0.4143 -2.8979 -0.9050
   35POPC  H13S 4711  -0.268   6.227   9.308 -1.5619 -0.7886  0.3505
   35POPC  C214 4712  -0.285   6.406   9.198  0.0960 -0.4957  0.8405
   35POPC  H14R 4713  -0.184   6.446   9.221 -0.0890  0.7432 -0.3932
   35POPC  H14S 4714  -0.346   6.498   9.210 -1.3097 -0.6773 -3.2662
   35POPC  C215 4715  -0.293   6.345   9.055 -0.2935  0.5796 -0.6352
   35POPC  H15R 4716  -0.388   6.289   9.042  0.7951 -1.4264 -0.2995
   35POPC  H15S 4717  -0.208   6.275   9.040  0.2696  1.0840  0.1344
   35POPC  C216 4718  -0.282   6.461   8.953  0.3080  0.5237 -0.0089
   35POPC  H16R 4719  -0.188   6.518   8.972  0.6046 -0.7520  2.7595
   35POPC  H16S 4720  -0.369   6.528   8.969 -0.3696 -0.0265 -1.1876
   35POPC  C217 4721  -0.277   6.411   8.808 -0.1366 -0.1267 -0.3578
   35POPC  H17R 4722  -0.185   6.352   8.789  0.5886  1.0174 -0.5079
   35POPC  H17S 4723  -0.281   6.496   8.737  1.1394 -0.4999 -0.9074
   35POPC  C218 4724  -0.386   6.302   8.770  0.3701  0.9002  0.2091
   35POPC  H18R 4725  -0.396   6.306   8.659 -0.4673  0.6677  0.2722
   35POPC  H18S 4726  -0.484   6.332   8.813  0.5617  0.4791  0.9509
   35POPC  H18T 4727  -0.348   6.204   8.805  2.3576  0.7870 -1.9940
   35POPC   C33 4728  -0.075   6.097  10.145  0.9570  0.0941 -0.2575
   35POPC   H3X 4729  -0.003   6.127  10.066  0.3355 -1.6769 -1.5609
   35POPC   H3Y 4730  -0.139   6.177  10.187 -1.4986 -1.8713  0.0014
   35POPC   C34 4731  -0.169   6.002  10.071  0.0188  0.1544  0.2538
   35POPC   H4X 4732  -0.236   6.070  10.013  1.8596 -0.3664 -2.7090
   35POPC   H4Y 4733  -0.213   5.939  10.150  1.7946 -1.8858 -0.2955
   35POPC   C35 4734  -0.099   5.899   9.987  1.4284  0.7614 -0.3315
   35POPC   H5X 4735  -0.056   5.825  10.059 -1.2775 -1.5217 -0.8898
   35POPC   H5Y 4736  -0.012   5.935   9.929 -0.0948  2.9583 -1.3783
   35POPC   C36 4737  -0.209   5.822   9.907 -0.5381  0.3192  0.2954
   35POPC   H6X 4738  -0.263   5.887   9.834 -1.5602  0.0669  0.8050
   35POPC   H6Y 4739  -0.280   5.791   9.986 -0.6643 -0.0657  0.0334
   35POPC   C37 4740  -0.151   5.704   9.824 -0.0785  0.3818  0.7036
   35POPC   H7X 4741  -0.244   5.649   9.796  0.5606 -0.5557  0.3572
   35POPC   H7Y 4742  -0.086   5.633   9.881  0.9253  1.3827  0.8380
   35POPC   C38 4743  -0.097   5.747   9.689 -0.2675 -0.5798 -0.6264
   35POPC   H8X 4744  -0.048   5.661   9.636  1.2338  0.6339 -1.2912
   35POPC   H8Y 4745  -0.009   5.814   9.704  0.6950 -2.3272  2.5126
   35POPC   C39 4746  -0.193   5.807   9.596  0.8580  0.0649 -0.2662
   35POPC   H9X 4747  -0.238   5.904   9.627  0.8305  0.0010 -0.1032
   35POPC   H9Y 4748  -0.278   5.736   9.588 -0.1515  1.0556  1.2027
   35POPC  C310 4749  -0.160   5.817   9.451  0.4189  0.2487 -0.3095
   35POPC  H10X 4750  -0.121   5.717   9.423  2.2821  0.0808  2.4487
   35POPC  H10Y 4751  -0.088   5.898   9.427  0.3574  0.3436 -0.1771
   35POPC  C311 4752  -0.293   5.837   9.365  0.2584  0.3756  1.0691
   35POPC  H11X 4753  -0.337   5.938   9.384  2.0531  1.5882 -0.8024
   35POPC  H11Y 4754  -0.372   5.760   9.379 -1.6363  2.0345  0.0279
   35POPC  C312 4755  -0.272   5.826   9.209  0.3849 -0.2303  0.0225
   35POPC  H12X 4756  -0.312   5.728   9.175  0.4247 -0.3106  0.2022
   35POPC  H12Y 4757  -0.161   5.823   9.208  0.4280  0.5447  0.7387
   35POPC  C313 4758  -0.327   5.940   9.123  0.4041 -0.3774  0.7422
   35POPC  H13X 4759  -0.263   6.023   9.158 -2.0225  0.4260  3.6968
   35POPC  H13Y 4760  -0.433   5.958   9.152  0.7299 -0.6793  2.1702
   35POPC  C314 4761  -0.320   5.917   8.967  0.4061 -0.0751  0.1166
   35POPC  H14X 4762  -0.216   5.887   8.944  0.9051  1.8808 -0.2783
   35POPC  H14Y 4763  -0.329   6.020   8.927  0.8745  0.0572  0.3511
   35POPC  C315 4764  -0.433   5.824   8.923  0.7527 -0.0101 -0.1660
   35POPC  H15X 4765  -0.524   5.831   8.987 -1.8172 -3.5194 -3.0381
   35POPC  H15Y 4766  -0.407   5.719   8.949 -0.1806 -0.3380 -0.4938
   35POPC  C316 4767  -0.463   5.839   8.775  0.2442  0.6106 -0.4728
   35POPC  H16X 4768  -0.475   5.946   8.745 -0.2426  0.0214 -2.5013
   35POPC  H16Y 4769  -0.564   5.797   8.758  0.4397  0.2819 -0.8217
   35POPC  H16Z 4770  -0.390   5.789   8.709 -1.2717 -0.3797 -1.4497
   36POPC     N 4771   0.346   3.589  10.886  0.2460 -0.5232 -0.6972
   36POPC   C12 4772   0.299   3.583  10.744 -0.4563  0.6858 -0.9922
   36POPC  H12A 4773   0.271   3.480  10.730 -0.3583  0.6401 -0.8565
   36POPC  H12B 4774   0.382   3.599  10.678 -0.1533  1.1667 -0.5025
   36POPC   C13 4775   0.232   3.561  10.977  0.2472 -0.6168 -0.1278
   36POPC  H13A 4776   0.255   3.478  11.043 -0.8666  0.8608  2.2367
   36POPC  H13B 4777   0.212   3.649  11.036 -0.0782 -0.8597  0.1230
   36POPC  H13C 4778   0.141   3.553  10.920  0.5493  0.0481 -0.7224
   36POPC   C14 4779   0.453   3.496  10.912  0.8776  0.3473 -0.6967
   36POPC  H14A 4780   0.413   3.401  10.880 -0.3601 -0.0465  1.7657
   36POPC  H14B 4781   0.548   3.520  10.867 -1.0360  1.4706 -4.6432
   36POPC  H14C 4782   0.469   3.494  11.019 -0.1644  0.3267 -0.5270
   36POPC   C15 4783   0.404   3.726  10.902 -0.7867  0.9240  0.0309
   36POPC  H15A 4784   0.443   3.750  11.000  1.4055 -1.9303 -0.0160
   36POPC  H15B 4785   0.325   3.794  10.876 -0.5436  0.7236 -1.3126
   36POPC  H15C 4786   0.474   3.759  10.826 -0.2219 -0.0467  0.1132
   36POPC   C11 4787   0.176   3.672  10.705  0.7191  0.5078  0.4999
   36POPC  H11A 4788   0.090   3.646  10.771 -0.7726 -0.4918 -1.6959
   36POPC  H11B 4789   0.144   3.644  10.603  1.3695 -1.2409  0.7303
   36POPC     P 4790   0.085   3.907  10.686  0.3668 -0.0965  0.3484
   36POPC   O13 4791   0.106   4.033  10.754  0.2458 -0.5040 -0.2185
   36POPC   O14 4792  -0.046   3.837  10.701 -0.8713  0.1427  0.2544
   36POPC   O12 4793   0.204   3.809  10.716 -0.1635 -0.0897  0.1215
   36POPC   O11 4794   0.105   3.937  10.537  0.0871 -0.4505  0.2816
   36POPC    C1 4795   0.022   4.029  10.459 -0.5305 -0.0317 -0.2601
   36POPC    HA 4796   0.070   4.042  10.360  1.9193 -0.4274  0.8039
   36POPC    HB 4797   0.020   4.130  10.506 -0.8711 -0.7131  1.2234
   36POPC    C2 4798  -0.121   3.984  10.429 -0.4290 -0.2779  0.1729
   36POPC    HS 4799  -0.160   3.970  10.532 -1.4429 -1.3919 -0.3319
   36POPC   O21 4800  -0.110   3.863  10.361  0.2591  0.1802  0.1039
   36POPC   C21 4801  -0.227   3.793  10.368  0.6288 -0.4973 -0.1113
   36POPC   O22 4802  -0.326   3.827  10.430  0.1655 -0.1180  0.3812
   36POPC   C22 4803  -0.204   3.665  10.283  0.7264 -0.0850  0.1980
   36POPC   H2R 4804  -0.186   3.570  10.338  3.2999 -0.6820 -1.5064
   36POPC   H2S 4805  -0.121   3.682  10.211 -2.2122  1.2674 -3.2182
   36POPC    C3 4806  -0.217   4.099  10.372  0.6608 -0.1163  0.3880
   36POPC    HX 4807  -0.268   4.149  10.458  0.0922  1.0109 -0.5787
   36POPC    HY 4808  -0.307   4.053  10.325  0.4205  0.9926 -0.2686
   36POPC   O31 4809  -0.151   4.195  10.287 -0.0546 -0.1227 -0.0357
   36POPC   C31 4810  -0.131   4.158  10.162 -0.9428 -0.0166  0.8721
   36POPC   O32 4811  -0.193   4.068  10.101 -0.4966 -0.7709 -0.0778
   36POPC   C32 4812  -0.016   4.241  10.104  0.0647 -0.9897  0.0331
   36POPC   H2X 4813   0.042   4.281  10.190  1.2292 -1.4241 -0.5235
   36POPC   H2Y 4814  -0.064   4.334  10.066  2.6311  1.8840  3.1403
   36POPC   C23 4815  -0.326   3.648  10.194 -0.3456 -0.0122  0.5112
   36POPC   H3R 4816  -0.349   3.732  10.125  1.8065 -1.8886 -2.7619
   36POPC   H3S 4817  -0.418   3.620  10.249  0.2080 -1.0379  0.9407
   36POPC   C24 4818  -0.294   3.525  10.106  0.5753 -0.0645  0.0846
   36POPC   H4R 4819  -0.267   3.445  10.179 -2.1897 -0.8282  0.3702
   36POPC   H4S 4820  -0.204   3.559  10.049 -1.7558  0.5257 -3.5660
   36POPC   C25 4821  -0.409   3.477  10.017  0.1656 -0.1889  0.2083
   36POPC   H5R 4822  -0.435   3.569   9.960  0.8066  0.5997  1.1533
   36POPC   H5S 4823  -0.499   3.451  10.077 -0.9291 -0.3400 -1.4363
   36POPC   C26 4824  -0.376   3.372   9.914  0.3531 -0.1924 -0.1849
   36POPC   H6R 4825  -0.470   3.343   9.861 -0.3887  1.7609 -0.0159
   36POPC   H6S 4826  -0.339   3.285   9.973  0.8252  0.1139 -0.0317
   36POPC   C27 4827  -0.279   3.412   9.798 -0.2741 -0.7857 -0.1845
   36POPC   H7R 4828  -0.177   3.414   9.840  0.0859 -0.8971 -1.0373
   36POPC   H7S 4829  -0.306   3.518   9.781  3.5855  0.6495  1.6772
   36POPC   C28 4830  -0.278   3.323   9.676 -0.2679  0.5331  0.7189
   36POPC   H8R 4831  -0.379   3.308   9.634  0.8302  0.8340 -2.2514
   36POPC   H8S 4832  -0.245   3.217   9.688 -1.0207  0.4189  1.9472
   36POPC   C29 4833  -0.203   3.382   9.559  0.1287  0.5525 -0.1741
   36POPC   H91 4834  -0.133   3.463   9.581 -0.0979  1.1946 -1.6816
   36POPC  C210 4835  -0.217   3.336   9.436  0.0633 -0.0341 -0.1599
   36POPC  H101 4836  -0.162   3.395   9.360  1.5029  0.2971  1.1005
   36POPC  C211 4837  -0.309   3.231   9.377  0.3452 -0.7324  0.1691
   36POPC  H11R 4838  -0.416   3.260   9.390  1.1325  1.7677  1.8207
   36POPC  H11S 4839  -0.305   3.133   9.428 -3.3216 -1.0415  0.1299
   36POPC  C212 4840  -0.273   3.220   9.231  0.2818  0.4032 -0.5456
   36POPC  H12R 4841  -0.168   3.185   9.227  0.3316  0.1240  1.9817
   36POPC  H12S 4842  -0.276   3.319   9.180  0.3598  0.5731 -0.2203
   36POPC  C213 4843  -0.376   3.138   9.156  0.1326  0.3184  0.0391
   36POPC  H13R 4844  -0.473   3.191   9.170  0.4747  0.9788 -0.0664
   36POPC  H13S 4845  -0.391   3.039   9.206  1.5370  0.2285  0.3338
   36POPC  C214 4846  -0.338   3.124   9.007 -0.4073 -0.2122  0.2066
   36POPC  H14R 4847  -0.234   3.091   8.987 -0.2659  0.1074  0.4116
   36POPC  H14S 4848  -0.352   3.229   8.974 -1.3416  0.8819  3.6487
   36POPC  C215 4849  -0.433   3.036   8.931  0.1048 -0.8891  0.1266
   36POPC  H15R 4850  -0.543   3.050   8.940  0.1510  0.2040 -0.7605
   36POPC  H15S 4851  -0.397   2.936   8.962  0.6053 -0.4012  1.2125
   36POPC  C216 4852  -0.422   3.066   8.781 -0.1951  0.0916 -0.2881
   36POPC  H16R 4853  -0.314   3.085   8.761 -0.2167  0.9208  0.3085
   36POPC  H16S 4854  -0.479   3.153   8.741  0.3662  1.5299  1.8903
   36POPC  C217 4855  -0.468   2.955   8.687 -0.3337  0.0471  0.2701
   36POPC  H17R 4856  -0.577   2.946   8.706  0.0503 -0.7968  2.2543
   36POPC  H17S 4857  -0.425   2.854   8.699  0.1845  0.0715 -1.1240
   36POPC  C218 4858  -0.460   2.997   8.539  0.1060 -0.0623 -0.2784
   36POPC  H18R 4859  -0.535   3.074   8.512  0.2302 -0.6000 -2.3590
   36POPC  H18S 4860  -0.452   2.907   8.474  2.0814 -0.0887 -0.0803
   36POPC  H18T 4861  -0.366   3.057   8.534 -0.2006  0.8093  2.6140
   36POPC   C33 4862   0.077   4.193   9.991  0.6744 -0.0327 -0.2519
   36POPC   H3X 4863   0.116   4.093  10.021  2.5597  0.1728 -1.8573
   36POPC   H3Y 4864   0.165   4.260   9.993  1.3998 -0.9467  1.5946
   36POPC   C34 4865   0.009   4.173   9.858 -0.0292  0.1834  0.5344
   36POPC   H4X 4866  -0.020   4.271   9.814 -1.1583 -1.0174 -1.5918
   36POPC   H4Y 4867  -0.076   4.102   9.864  0.5310 -0.6436 -0.6964
   36POPC   C35 4868   0.107   4.116   9.752  0.0578 -0.7286 -0.6883
   36POPC   H5X 4869   0.124   4.009   9.777 -0.5176 -0.0648  3.2011
   36POPC   H5Y 4870   0.194   4.184   9.763  0.0572 -0.7771 -0.3710
   36POPC   C36 4871   0.034   4.126   9.620 -0.1572 -0.5762 -0.3111
   36POPC   H6X 4872   0.017   4.233   9.595 -1.7090 -1.0241 -1.2718
   36POPC   H6Y 4873  -0.058   4.064   9.610  1.1983 -2.2983 -5.1708
   36POPC   C37 4874   0.128   4.067   9.507 -0.3336  0.0878  0.0275
   36POPC   H7X 4875   0.114   3.957   9.503  1.9501 -0.2209 -0.8312
   36POPC   H7Y 4876   0.228   4.102   9.542 -0.2399 -2.7840  3.1263
   36POPC   C38 4877   0.095   4.123   9.368 -0.3978 -0.2148 -0.0363
   36POPC   H8X 4878   0.126   4.230   9.368 -2.0348  0.2951  0.8819
   36POPC   H8Y 4879  -0.015   4.121   9.354 -0.2578 -0.0633 -1.3230
   36POPC   C39 4880   0.170   4.056   9.251  0.3464  0.2237 -0.7155
   36POPC   H9X 4881   0.157   3.946   9.257 -0.9778  0.2592 -2.2217
   36POPC   H9Y 4882   0.278   4.072   9.271  0.6181 -2.2850  0.1603
   36POPC  C310 4883   0.115   4.103   9.109  0.2067  0.2915  0.0274
   36POPC  H10X 4884   0.152   4.206   9.088 -2.2568  1.2191 -0.0741
   36POPC  H10Y 4885   0.005   4.111   9.120 -0.2427 -0.2929 -3.1339
   36POPC  C311 4886   0.158   4.006   8.993 -0.0252  0.2392  0.1389
   36POPC  H11X 4887   0.092   3.918   9.007  2.4770 -1.8215 -0.3403
   36POPC  H11Y 4888   0.264   3.986   9.020 -0.1766  0.7479  1.1519
   36POPC  C312 4889   0.155   4.068   8.854  0.6569 -0.4611  0.5373
   36POPC  H12X 4890   0.220   4.157   8.861  1.2745 -0.9443  1.1031
   36POPC  H12Y 4891   0.048   4.091   8.834  1.1720  1.1092 -0.5822
   36POPC  C313 4892   0.211   3.966   8.750 -0.2228 -0.9433  0.1535
   36POPC  H13X 4893   0.139   3.958   8.665  0.8174 -0.8376 -0.7726
   36POPC  H13Y 4894   0.231   3.869   8.800  2.1324 -1.5679 -1.7733
   36POPC  C314 4895   0.341   3.998   8.676  0.8924  0.2132 -0.5959
   36POPC  H14X 4896   0.411   3.997   8.763 -0.9825  0.9807  0.9821
   36POPC  H14Y 4897   0.324   4.099   8.634 -2.6988  0.5250  1.2985
   36POPC  C315 4898   0.378   3.886   8.572 -0.9696 -0.7553 -0.2153
   36POPC  H15X 4899   0.309   3.905   8.487  0.7835  2.6069 -1.0639
   36POPC  H15Y 4900   0.364   3.785   8.616  0.7974 -0.3822  1.3321
   36POPC  C316 4901   0.527   3.895   8.536 -0.1690 -0.7736  0.3905
   36POPC  H16X 4902   0.564   3.792   8.519  0.2652 -0.3701 -1.2548
   36POPC  H16Y 4903   0.586   3.930   8.624  0.0851  1.1628 -0.5033
   36POPC  H16Z 4904   0.550   3.963   8.452  1.5910 -1.6958  0.0859
   37POPC     N 4905   5.516   1.931   6.154  0.5212 -0.1990 -0.0028
   37POPC   C12 4906   5.443   1.896   6.278  0.7327  0.1857  0.4577
   37POPC  H12A 4907   5.425   1.790   6.266 -0.2437  0.4371 -0.4113
   37POPC  H12B 4908   5.347   1.944   6.279  0.5085 -0.2622  1.4920
   37POPC   C13 4909   5.418   1.902   6.041 -0.2834 -0.1894  0.3600
   37POPC  H13A 4910   5.324   1.956   6.048 -0.3582  0.0011 -1.5287
   37POPC  H13B 4911   5.461   1.931   5.946  0.8362 -1.6979  0.3670
   37POPC  H13C 4912   5.405   1.795   6.036  0.5116 -0.2336 -2.8443
   37POPC   C14 4913   5.555   2.077   6.147  0.5013 -0.3396  0.1507
   37POPC  H14A 4914   5.627   2.093   6.226 -1.3572  1.4090  1.5565
   37POPC  H14B 4915   5.594   2.094   6.048 -0.7840  0.0216 -0.3112
   37POPC  H14C 4916   5.472   2.144   6.161  1.2830  0.7835 -0.4168
   37POPC   C15 4917   5.632   1.852   6.125 -0.0545 -0.0983 -0.9260
   37POPC  H15A 4918   5.670   1.883   6.029  0.1413 -0.9860 -1.1474
   37POPC  H15B 4919   5.623   1.744   6.127 -2.0694 -0.0122 -2.0894
   37POPC  H15C 4920   5.712   1.871   6.195 -0.4695  1.5262 -0.8444
   37POPC   C11 4921   5.501   1.925   6.415 -0.1016 -0.7307  0.3738
   37POPC  H11A 4922   5.606   1.890   6.426 -0.6916 -2.7496 -0.0148
   37POPC  H11B 4923   5.440   1.866   6.487  1.0131 -0.6412  1.4185
   37POPC     P 4924   5.343   2.128   6.451 -0.1804 -0.0240  0.0797
   37POPC   O13 4925   5.278   2.114   6.320  0.1618  0.0858  0.3505
   37POPC   O14 4926   5.347   2.262   6.509  0.1533  0.1392 -0.1566
   37POPC   O12 4927   5.491   2.068   6.445 -0.3427 -0.0860 -0.2059
   37POPC   O11 4928   5.284   2.023   6.553  0.1977  0.2476  0.6631
   37POPC    C1 4929   5.298   2.046   6.687 -0.6385  0.3018 -0.5274
   37POPC    HA 4930   5.206   2.037   6.749 -0.2500  2.7273  0.4925
   37POPC    HB 4931   5.336   2.146   6.717 -0.5645  0.6899 -1.8457
   37POPC    C2 4932   5.405   1.952   6.755 -0.2369  0.2071  0.6878
   37POPC    HS 4933   5.504   1.979   6.710 -0.7544  0.3327 -0.4126
   37POPC   O21 4934   5.374   1.822   6.732  0.1837  0.3348 -0.2699
   37POPC   C21 4935   5.483   1.739   6.711 -0.4645  1.4234 -0.1017
   37POPC   O22 4936   5.596   1.780   6.699  0.6357 -0.0713 -0.2096
   37POPC   C22 4937   5.440   1.597   6.680 -0.3253  0.1101 -0.0977
   37POPC   H2R 4938   5.526   1.540   6.722 -0.4995  1.7891  2.8814
   37POPC   H2S 4939   5.431   1.578   6.571  1.0594 -2.2452  0.1173
   37POPC    C3 4940   5.419   1.972   6.908 -0.0294  0.5283 -0.2222
   37POPC    HX 4941   5.323   1.962   6.963  0.5171 -1.7856  0.4286
   37POPC    HY 4942   5.454   2.075   6.928 -0.6426  0.8841 -0.9246
   37POPC   O31 4943   5.498   1.870   6.977 -0.0312 -0.7715 -0.2234
   37POPC   C31 4944   5.625   1.903   6.987  0.0261  0.1295 -0.2099
   37POPC   O32 4945   5.673   1.995   6.925  0.2875 -0.5791 -0.0977
   37POPC   C32 4946   5.704   1.815   7.075  0.4231 -0.1836 -0.1214
   37POPC   H2X 4947   5.760   1.743   7.011 -2.1972 -1.6351 -0.9795
   37POPC   H2Y 4948   5.628   1.755   7.130 -0.9338  1.2682 -0.3598
   37POPC   C23 4949   5.305   1.557   6.734 -0.2394  0.3033  0.5302
   37POPC   H3R 4950   5.286   1.458   6.687  0.1679  0.6659 -0.4205
   37POPC   H3S 4951   5.229   1.627   6.692  0.6693  1.1552  0.2778
   37POPC   C24 4952   5.296   1.538   6.887 -0.1059  0.6689  0.1370
   37POPC   H4R 4953   5.348   1.619   6.942  1.9514 -0.9137  0.6524
   37POPC   H4S 4954   5.364   1.451   6.902  0.1643  1.0075  0.9812
   37POPC   C25 4955   5.152   1.520   6.950  0.2184  0.2448 -0.1498
   37POPC   H5R 4956   5.110   1.431   6.897 -0.5553  0.6241 -0.1831
   37POPC   H5S 4957   5.094   1.613   6.934  1.0999  0.8429  0.0211
   37POPC   C26 4958   5.138   1.511   7.108  0.1135 -0.1188 -0.4907
   37POPC   H6R 4959   5.030   1.528   7.126  0.3261 -0.2897  1.1118
   37POPC   H6S 4960   5.192   1.598   7.151 -2.0474  0.9179  0.2755
   37POPC   C27 4961   5.163   1.374   7.164 -0.1159 -0.8826  0.0676
   37POPC   H7R 4962   5.245   1.332   7.102  0.8555  0.5553  0.3339
   37POPC   H7S 4963   5.075   1.309   7.147 -1.5612  0.7347  0.9647
   37POPC   C28 4964   5.194   1.361   7.318 -0.4135 -0.2274 -0.5522
   37POPC   H8R 4965   5.295   1.397   7.349 -1.3418  3.7095 -1.5360
   37POPC   H8S 4966   5.198   1.252   7.335 -2.8316 -0.6750 -2.2726
   37POPC   C29 4967   5.082   1.434   7.402 -0.0106  0.2890 -0.6142
   37POPC   H91 4968   5.070   1.543   7.391 -1.9889  0.2438  0.5983
   37POPC  C210 4969   4.997   1.371   7.482 -0.3697 -0.6530 -0.6263
   37POPC  H101 4970   4.911   1.424   7.526 -1.3018 -0.0404 -3.0259
   37POPC  C211 4971   4.992   1.223   7.521 -0.1852  0.0859 -0.3101
   37POPC  H11R 4972   5.028   1.168   7.433 -0.1658  2.4152 -1.8524
   37POPC  H11S 4973   4.888   1.193   7.548  0.0008 -2.0212 -1.7564
   37POPC  C212 4974   5.097   1.195   7.632  0.6826 -0.6674 -0.9570
   37POPC  H12R 4975   5.199   1.217   7.593  0.0890 -1.6487 -3.1713
   37POPC  H12S 4976   5.103   1.087   7.658  0.1090  0.2485  3.9043
   37POPC  C213 4977   5.048   1.264   7.758 -0.4342 -0.1633 -0.7826
   37POPC  H13R 4978   4.944   1.229   7.772 -0.1524 -0.6255  0.2743
   37POPC  H13S 4979   5.056   1.374   7.746  1.0521 -0.2706 -0.9370
   37POPC  C214 4980   5.130   1.218   7.883 -0.6553  0.4385 -0.2588
   37POPC  H14R 4981   5.238   1.243   7.879 -0.1332 -1.1759  1.7958
   37POPC  H14S 4982   5.130   1.109   7.902 -0.0917  0.4201 -0.3541
   37POPC  C215 4983   5.073   1.286   8.011 -0.0761 -0.5950 -0.0612
   37POPC  H15R 4984   4.973   1.242   8.027  0.2389 -1.0917  0.5643
   37POPC  H15S 4985   5.048   1.394   8.003  0.9708 -0.2076  1.4270
   37POPC  C216 4986   5.161   1.263   8.134  0.4473 -0.3207 -0.0123
   37POPC  H16R 4987   5.257   1.213   8.110  1.5122  1.5765  0.0891
   37POPC  H16S 4988   5.101   1.197   8.200 -0.8338 -0.5204 -1.3203
   37POPC  C217 4989   5.200   1.403   8.199  0.0718  0.9701  0.1713
   37POPC  H17R 4990   5.106   1.462   8.206  0.2762  1.4344 -0.8825
   37POPC  H17S 4991   5.264   1.462   8.130 -0.2244  1.1583  0.0560
   37POPC  C218 4992   5.270   1.384   8.337 -0.3700 -0.1327 -0.0248
   37POPC  H18R 4993   5.212   1.309   8.396  1.6168 -1.8187 -0.1171
   37POPC  H18S 4994   5.276   1.481   8.392 -0.0881  0.6246 -1.3655
   37POPC  H18T 4995   5.370   1.342   8.317 -0.0810  1.3327 -1.9463
   37POPC   C33 4996   5.804   1.893   7.165  0.1152 -0.1703 -0.4527
   37POPC   H3X 4997   5.866   1.961   7.103  1.2042 -1.7875 -1.1978
   37POPC   H3Y 4998   5.879   1.822   7.206  0.1981 -1.5778 -2.8445
   37POPC   C34 4999   5.738   1.959   7.295 -0.0829 -0.5787  0.2165
   37POPC   H4X 5000   5.635   1.997   7.278 -0.4850 -1.5561  0.3894
   37POPC   H4Y 5001   5.804   2.043   7.323 -0.1424 -0.0886 -1.0480
   37POPC   C35 5002   5.723   1.870   7.417 -0.3855 -0.0408 -0.3471
   37POPC   H5X 5003   5.811   1.803   7.413  0.7187  1.2947  0.7785
   37POPC   H5Y 5004   5.637   1.801   7.402  1.3078 -2.7224  1.4362
   37POPC   C36 5005   5.708   1.950   7.550 -0.2058 -0.2072  0.4992
   37POPC   H6X 5006   5.609   2.001   7.545  0.0836  0.2938 -0.4000
   37POPC   H6Y 5007   5.787   2.028   7.548 -2.3895  2.1835 -1.7704
   37POPC   C37 5008   5.725   1.874   7.675 -0.4652  0.0569  1.2906
   37POPC   H7X 5009   5.815   1.812   7.659 -1.3625 -0.9523 -0.1450
   37POPC   H7Y 5010   5.640   1.802   7.683  0.4728 -1.3451 -0.6604
   37POPC   C38 5011   5.730   1.965   7.795  0.1223 -0.2975 -1.2214
   37POPC   H8X 5012   5.646   2.034   7.819  1.7070  0.5736  2.4465
   37POPC   H8Y 5013   5.820   2.030   7.784 -0.0121  0.0800 -0.1894
   37POPC   C39 5014   5.756   1.888   7.924 -0.0196 -0.4688 -0.7797
   37POPC   H9X 5015   5.672   1.822   7.956  0.1370 -0.2795  0.0505
   37POPC   H9Y 5016   5.778   1.955   8.010  0.2044  0.4002 -1.5042
   37POPC  C310 5017   5.869   1.788   7.923 -0.2480 -0.0446  0.1878
   37POPC  H10X 5018   5.956   1.844   7.884  0.9782 -0.6882  1.8769
   37POPC  H10Y 5019   5.853   1.702   7.854 -0.4883 -0.5521  0.8545
   37POPC  C311 5020   5.901   1.726   8.058  0.0884 -0.1919 -0.7829
   37POPC  H11X 5021   5.818   1.666   8.103  0.6668  0.4711  1.3019
   37POPC  H11Y 5022   5.916   1.807   8.132 -3.4350  0.7474 -0.9088
   37POPC  C312 5023   6.019   1.631   8.063  0.4510  0.5257 -0.2070
   37POPC  H12X 5024   6.112   1.665   8.114  1.0959 -0.2069 -0.8659
   37POPC  H12Y 5025   6.053   1.619   7.958  0.9212 -0.8170  0.0742
   37POPC  C313 5026   5.984   1.494   8.121 -0.0018  0.3266  0.0450
   37POPC  H13X 5027   5.887   1.458   8.080 -0.3157 -0.4510  1.4038
   37POPC  H13Y 5028   5.974   1.514   8.229 -1.7958  1.7512 -0.3416
   37POPC  C314 5029   6.095   1.392   8.107  0.1296 -0.4483 -0.1537
   37POPC  H14X 5030   6.068   1.319   8.186 -0.0097  1.3075  1.5239
   37POPC  H14Y 5031   6.188   1.447   8.134  0.4119 -0.9761 -0.0531
   37POPC  C315 5032   6.106   1.339   7.965 -0.1543 -0.5888  0.6450
   37POPC  H15X 5033   6.127   1.429   7.903  1.7362 -2.2446 -1.2805
   37POPC  H15Y 5034   6.004   1.302   7.943 -0.7415  1.6412 -0.6547
   37POPC  C316 5035   6.221   1.244   7.930 -0.2987 -0.4966  0.0082
   37POPC  H16X 5036   6.225   1.211   7.824 -0.6288  0.1070 -0.1977
   37POPC  H16Y 5037   6.221   1.154   7.996 -1.2673 -0.8761 -0.4811
   37POPC  H16Z 5038   6.318   1.293   7.951 -0.0862 -1.1120  0.5042
   38POPC     N 5039   5.794   2.788   5.826  0.2824  0.3358  0.4433
   38POPC   C12 5040   5.902   2.891   5.834  0.2861  0.3462 -0.0519
   38POPC  H12A 5041   5.901   2.954   5.746  1.3234 -0.2124 -0.4792
   38POPC  H12B 5042   5.998   2.842   5.830 -1.1080 -2.6493  0.3132
   38POPC   C13 5043   5.660   2.849   5.859 -0.2576 -1.0632  0.2431
   38POPC  H13A 5044   5.638   2.896   5.954  0.0758 -1.4016  0.4907
   38POPC  H13B 5045   5.647   2.921   5.780 -0.4359 -3.1206 -1.6799
   38POPC  H13C 5046   5.583   2.775   5.847 -2.3740  0.7627  1.8015
   38POPC   C14 5047   5.782   2.741   5.682  0.0014 -0.3163  0.4306
   38POPC  H14A 5048   5.876   2.702   5.649  0.8690  2.7280 -1.1038
   38POPC  H14B 5049   5.711   2.660   5.675 -0.2737  0.0645 -2.7123
   38POPC  H14C 5050   5.744   2.814   5.612  0.1569  0.7118  1.3836
   38POPC   C15 5051   5.815   2.669   5.914 -0.7561 -0.5715  0.2718
   38POPC  H15A 5052   5.797   2.705   6.014  1.3791  0.6612  0.2865
   38POPC  H15B 5053   5.916   2.631   5.923  0.5207  2.8186  2.3290
   38POPC  H15C 5054   5.740   2.593   5.900  0.1124 -1.4317  0.2102
   38POPC   C11 5055   5.905   2.983   5.957 -0.1734 -0.3451  0.7549
   38POPC  H11A 5056   5.814   3.046   5.964  0.2022  0.5939 -1.9158
   38POPC  H11B 5057   5.987   3.053   5.931  0.3998 -0.1369  2.9431
   38POPC     P 5058   6.090   2.855   6.106  0.1109 -0.0407  0.0305
   38POPC   O13 5059   6.163   2.971   6.164  0.1187  0.2302 -0.6315
   38POPC   O14 5060   6.144   2.791   5.980  0.3581  0.6243  0.0927
   38POPC   O12 5061   5.942   2.902   6.074  0.2487 -0.3759  0.0339
   38POPC   O11 5062   6.071   2.741   6.212  0.0436  0.1994  0.2691
   38POPC    C1 5063   5.993   2.759   6.328 -0.3724  1.2434 -0.3576
   38POPC    HA 5064   5.890   2.724   6.308  0.5631 -1.2784 -1.0941
   38POPC    HB 5065   5.985   2.863   6.366 -1.7812  1.4628 -1.1728
   38POPC    C2 5066   6.054   2.677   6.448 -0.6348 -0.2143 -0.2892
   38POPC    HS 5067   6.032   2.569   6.436 -1.1140 -0.2883  1.0415
   38POPC   O21 5068   6.018   2.725   6.576  0.4661 -0.6844 -0.1927
   38POPC   C21 5069   5.889   2.725   6.620 -0.1523 -0.0375 -0.5115
   38POPC   O22 5070   5.795   2.716   6.548  0.1198  0.4893 -0.4265
   38POPC   C22 5071   5.886   2.717   6.772 -0.4056 -0.5390  0.5065
   38POPC   H2R 5072   5.950   2.630   6.799  2.4140  0.7403 -1.5421
   38POPC   H2S 5073   5.781   2.703   6.805 -0.7490  0.0843 -0.2850
   38POPC    C3 5074   6.206   2.688   6.457 -0.4389  0.1619 -0.4743
   38POPC    HX 5075   6.233   2.795   6.451  2.4780 -0.5412 -2.1491
   38POPC    HY 5076   6.232   2.632   6.364 -1.3136  0.1044 -0.6930
   38POPC   O31 5077   6.262   2.616   6.574  0.1766  0.0325  0.6110
   38POPC   C31 5078   6.326   2.701   6.657 -1.0899 -0.3960  0.5316
   38POPC   O32 5079   6.346   2.823   6.640  0.5791 -0.2713 -0.3579
   38POPC   C32 5080   6.357   2.621   6.777 -0.0793  0.1656 -0.2335
   38POPC   H2X 5081   6.442   2.553   6.758  0.4567  0.8118 -0.1590
   38POPC   H2Y 5082   6.272   2.557   6.810  0.4822  0.1997  1.3733
   38POPC   C23 5083   5.949   2.843   6.838  0.1157 -0.1938  0.2769
   38POPC   H3R 5084   5.892   2.934   6.809  1.6975  0.2920 -1.4331
   38POPC   H3S 5085   6.052   2.863   6.802 -0.4569 -1.0417 -2.0049
   38POPC   C24 5086   5.968   2.827   6.989  0.1696  0.8295 -0.3624
   38POPC   H4R 5087   6.033   2.909   7.026  1.9368  0.6521 -2.7627
   38POPC   H4S 5088   6.017   2.728   7.001  0.7351  0.9733 -1.3236
   38POPC   C25 5089   5.843   2.840   7.071 -0.2394 -0.5370 -0.1547
   38POPC   H5R 5090   5.758   2.783   7.026 -0.3891 -0.6253  0.2300
   38POPC   H5S 5091   5.799   2.940   7.093  1.0794  0.2183 -0.8754
   38POPC   C26 5092   5.862   2.788   7.215  0.0207  0.0889  0.3796
   38POPC   H6R 5093   5.863   2.677   7.215 -3.3495 -0.0486 -0.4085
   38POPC   H6S 5094   5.767   2.809   7.270 -1.9645 -0.5936 -2.5589
   38POPC   C27 5095   5.980   2.843   7.302 -0.2935  0.3319  0.4794
   38POPC   H7R 5096   5.965   2.952   7.316  0.4837  0.2928  1.7636
   38POPC   H7S 5097   6.074   2.823   7.246 -1.4018 -3.3874 -0.3757
   38POPC   C28 5098   6.006   2.782   7.442 -0.2222 -1.0949  0.1951
   38POPC   H8R 5099   6.068   2.860   7.492  0.1237 -1.9685  1.1599
   38POPC   H8S 5100   6.063   2.687   7.438  0.4689 -0.8204  2.0842
   38POPC   C29 5101   5.879   2.776   7.517  0.0697  0.2282 -0.2337
   38POPC   H91 5102   5.796   2.748   7.451  1.1769  0.5599 -1.8231
   38POPC  C210 5103   5.855   2.810   7.647 -0.5833 -1.1195  0.3901
   38POPC  H101 5104   5.757   2.783   7.689 -1.3246  0.4414 -0.2388
   38POPC  C211 5105   5.957   2.863   7.748  0.3932  0.1455 -0.0989
   38POPC  H11R 5106   5.973   2.972   7.730 -1.1859  0.5801  0.9025
   38POPC  H11S 5107   6.053   2.810   7.731 -0.7827 -1.9580 -0.5235
   38POPC  C212 5108   5.913   2.829   7.896 -0.4053  0.3845  0.2300
   38POPC  H12R 5109   5.864   2.730   7.906  0.4517 -0.2315 -1.3993
   38POPC  H12S 5110   5.835   2.896   7.938  0.6422  2.4499 -0.9352
   38POPC  C213 5111   6.027   2.823   8.003  0.3156  0.1006  0.3155
   38POPC  H13R 5112   6.066   2.925   8.026  0.9890  0.1433 -0.9075
   38POPC  H13S 5113   6.118   2.772   7.963 -0.1778 -1.1906  0.8033
   38POPC  C214 5114   5.984   2.741   8.128 -0.5486 -0.0047  0.9231
   38POPC  H14R 5115   6.074   2.732   8.192 -0.4721 -2.1889  0.5687
   38POPC  H14S 5116   5.958   2.639   8.092  0.2678  0.6331 -1.6796
   38POPC  C215 5117   5.877   2.804   8.214  0.7845  0.0471  0.4630
   38POPC  H15R 5118   5.858   2.736   8.300 -0.5759 -0.5671 -0.2917
   38POPC  H15S 5119   5.781   2.816   8.161  0.0496  1.3920  1.9879
   38POPC  C216 5120   5.910   2.949   8.268 -0.6311  0.4044 -0.3422
   38POPC  H16R 5121   5.818   3.004   8.297 -2.8650 -1.7124 -2.9405
   38POPC  H16S 5122   5.936   3.012   8.181  2.9865 -0.1573  0.1749
   38POPC  C217 5123   6.019   2.965   8.373 -0.3079 -0.5414  0.2063
   38POPC  H17R 5124   6.010   3.062   8.426 -0.5837  0.1102 -0.9894
   38POPC  H17S 5125   6.121   2.970   8.329  0.2167  0.5017  1.4879
   38POPC  C218 5126   6.017   2.842   8.466 -0.3386  0.0575  0.0350
   38POPC  H18R 5127   6.097   2.863   8.540  1.4752 -1.9462 -1.2311
   38POPC  H18S 5128   6.050   2.749   8.414  1.4776  0.3623  0.5826
   38POPC  H18T 5129   5.916   2.825   8.509 -0.2594  0.9168  0.5737
   38POPC   C33 5130   6.388   2.716   6.891 -0.1764 -0.0108 -0.5625
   38POPC   H3X 5131   6.323   2.805   6.881 -1.1461 -0.5631  0.5595
   38POPC   H3Y 5132   6.492   2.756   6.890 -0.5809  1.0617 -1.0718
   38POPC   C34 5133   6.369   2.649   7.019  0.2617  0.0213 -0.4769
   38POPC   H4X 5134   6.444   2.569   7.036 -1.1378 -1.3276 -0.4046
   38POPC   H4Y 5135   6.278   2.586   7.003 -0.8504  2.1854 -3.3872
   38POPC   C35 5136   6.351   2.743   7.143  0.9255 -0.8001  0.1982
   38POPC   H5X 5137   6.283   2.826   7.116  1.5949 -0.5377 -0.7218
   38POPC   H5Y 5138   6.446   2.793   7.173  1.2775 -1.0458 -0.4635
   38POPC   C36 5139   6.291   2.668   7.266  0.2477 -0.0291  1.3689
   38POPC   H6X 5140   6.187   2.634   7.251  0.1005  1.5805 -2.3849
   38POPC   H6Y 5141   6.278   2.748   7.342 -0.6456  1.8798 -0.6615
   38POPC   C37 5142   6.377   2.550   7.311  0.6744  0.0113 -0.9072
   38POPC   H7X 5143   6.484   2.578   7.322  0.3172  0.7259  1.0598
   38POPC   H7Y 5144   6.363   2.469   7.236  1.2559  0.5209 -1.5809
   38POPC   C38 5145   6.340   2.499   7.454  0.0279 -0.3503 -0.1965
   38POPC   H8X 5146   6.408   2.414   7.475 -0.1383 -0.9462 -1.9499
   38POPC   H8Y 5147   6.232   2.472   7.455  0.1134 -0.7173 -0.5393
   38POPC   C39 5148   6.352   2.606   7.562  0.1257  0.9850  0.1336
   38POPC   H9X 5149   6.269   2.680   7.552 -2.0059 -1.2837  0.2864
   38POPC   H9Y 5150   6.449   2.661   7.554  0.7797  0.5667  3.6053
   38POPC  C310 5151   6.352   2.548   7.702  0.3857 -0.1177  0.3764
   38POPC  H10X 5152   6.427   2.466   7.713 -0.3248 -1.1015 -1.5185
   38POPC  H10Y 5153   6.253   2.501   7.719  0.7282 -1.1244 -0.2648
   38POPC  C311 5154   6.357   2.664   7.808 -0.0555  0.2002  0.0315
   38POPC  H11X 5155   6.257   2.711   7.815 -0.4350 -0.7698  1.7875
   38POPC  H11Y 5156   6.427   2.743   7.774 -0.3954  0.7166  0.5388
   38POPC  C312 5157   6.401   2.612   7.946  0.8252 -0.1209 -0.0949
   38POPC  H12X 5158   6.405   2.690   8.024  1.9244  1.6136 -1.8091
   38POPC  H12Y 5159   6.499   2.563   7.927  1.5729  1.0756  0.5708
   38POPC  C313 5160   6.300   2.504   8.002  0.2070 -0.3118  0.0799
   38POPC  H13X 5161   6.296   2.426   7.922  0.0186 -1.3749  1.1027
   38POPC  H13Y 5162   6.198   2.546   8.014  0.1447 -0.2431 -0.6203
   38POPC  C314 5163   6.342   2.443   8.136 -0.1346  0.2356  0.6402
   38POPC  H14X 5164   6.261   2.389   8.189  0.6823 -1.6710  0.0343
   38POPC  H14Y 5165   6.360   2.533   8.198  2.5404  0.2639 -0.0374
   38POPC  C315 5166   6.459   2.342   8.123  0.2100  0.5449  0.2632
   38POPC  H15X 5167   6.547   2.397   8.084  1.0480 -0.5799  0.4995
   38POPC  H15Y 5168   6.429   2.257   8.058  1.5151  0.5595 -0.3870
   38POPC  C316 5169   6.498   2.287   8.256 -0.2723 -0.5443 -0.4525
   38POPC  H16X 5170   6.574   2.207   8.266  2.2288  1.7137 -0.1921
   38POPC  H16Y 5171   6.407   2.246   8.305 -0.4058  1.6295  1.2928
   38POPC  H16Z 5172   6.537   2.370   8.319 -3.7425  0.2095  0.9411
   39POPC     N 5173   1.812   5.368   5.580 -0.6188  0.5463 -0.5636
   39POPC   C12 5174   1.715   5.414   5.684 -0.0250  0.0325 -0.3670
   39POPC  H12A 5175   1.661   5.333   5.730  0.2793  1.5802  3.0767
   39POPC  H12B 5176   1.636   5.468   5.635  0.9240 -0.8207 -2.9722
   39POPC   C13 5177   1.900   5.476   5.540  0.2965 -0.7120  0.1487
   39POPC  H13A 5178   1.846   5.561   5.501  0.2059 -1.5326 -1.6133
   39POPC  H13B 5179   1.937   5.524   5.629 -0.5055  0.3976 -0.0930
   39POPC  H13C 5180   1.971   5.461   5.460  0.7595  0.9543  0.2052
   39POPC   C14 5181   1.892   5.252   5.634  0.0183 -0.1032  0.4882
   39POPC  H14A 5182   1.992   5.244   5.596  0.5301  1.6736  1.3514
   39POPC  H14B 5183   1.909   5.271   5.739  2.5207 -0.8668  0.2833
   39POPC  H14C 5184   1.830   5.164   5.625  1.6583 -1.1823 -0.8962
   39POPC   C15 5185   1.724   5.324   5.465 -0.8853  0.1503 -0.1489
   39POPC  H15A 5186   1.665   5.405   5.425  1.3221  1.8003 -0.2637
   39POPC  H15B 5187   1.657   5.244   5.493  0.4187 -0.8845  0.1010
   39POPC  H15C 5188   1.782   5.286   5.382  0.9440 -1.7047  1.8593
   39POPC   C11 5189   1.775   5.486   5.808 -0.0053 -0.2812  0.0360
   39POPC  H11A 5190   1.697   5.538   5.869  1.4828  0.0704  1.7186
   39POPC  H11B 5191   1.836   5.574   5.779 -0.1631  0.5580  2.0684
   39POPC     P 5192   1.756   5.301   5.997  0.2125 -0.1822  0.3700
   39POPC   O13 5193   1.851   5.240   6.094 -0.3542 -0.0008  0.1003
   39POPC   O14 5194   1.674   5.208   5.914 -0.0145 -0.1421  0.4919
   39POPC   O12 5195   1.841   5.393   5.890  0.1187  0.5658 -0.5525
   39POPC   O11 5196   1.667   5.403   6.079 -0.2908 -0.1279  0.5070
   39POPC    C1 5197   1.730   5.504   6.159  0.4008 -0.6000 -0.3146
   39POPC    HA 5198   1.680   5.602   6.139  0.9691 -0.4115 -0.8400
   39POPC    HB 5199   1.840   5.502   6.151  0.5668 -1.6598  1.7319
   39POPC    C2 5200   1.682   5.470   6.301 -0.9407  0.2046 -0.3053
   39POPC    HS 5201   1.690   5.360   6.314 -0.7581  0.0990 -1.2636
   39POPC   O21 5202   1.549   5.519   6.313  0.2092 -0.1658 -0.2405
   39POPC   C21 5203   1.464   5.429   6.365  0.1932  0.6745 -0.3869
   39POPC   O22 5204   1.496   5.326   6.421  0.2230  0.1558  0.1212
   39POPC   C22 5205   1.314   5.469   6.345  0.6639 -0.5645  0.0578
   39POPC   H2R 5206   1.253   5.394   6.290 -0.8809  0.3178  0.4877
   39POPC   H2S 5207   1.304   5.564   6.287  0.4864 -0.2933  0.5211
   39POPC    C3 5208   1.776   5.523   6.410 -0.0249 -0.0779 -0.7041
   39POPC    HX 5209   1.786   5.630   6.379  1.1442  0.0386  0.0255
   39POPC    HY 5210   1.876   5.474   6.407  0.4590  0.9044 -1.1516
   39POPC   O31 5211   1.721   5.513   6.549  0.3840 -0.0795 -0.2801
   39POPC   C31 5212   1.728   5.390   6.602 -0.5377 -0.4878  0.7208
   39POPC   O32 5213   1.783   5.293   6.557 -0.3916  0.3719 -0.5564
   39POPC   C32 5214   1.641   5.386   6.732 -0.7404 -0.0922  0.7265
   39POPC   H2X 5215   1.677   5.463   6.804 -0.8944  0.5805  0.0956
   39POPC   H2Y 5216   1.539   5.420   6.704 -0.2601  0.8302  0.0407
   39POPC   C23 5217   1.236   5.495   6.479 -0.7716 -0.9424  0.0877
   39POPC   H3R 5218   1.236   5.395   6.529 -0.2239 -1.0086 -0.0420
   39POPC   H3S 5219   1.128   5.520   6.464 -0.4856 -0.7904 -2.1276
   39POPC   C24 5220   1.301   5.608   6.565 -0.7586  0.5245  0.0197
   39POPC   H4R 5221   1.303   5.713   6.528 -0.5809  0.0054 -1.5514
   39POPC   H4S 5222   1.408   5.579   6.559 -0.2197  2.6304 -4.2239
   39POPC   C25 5223   1.257   5.611   6.711 -0.3311  0.4521 -0.8810
   39POPC   H5R 5224   1.265   5.509   6.753  1.3678  0.7094 -0.4857
   39POPC   H5S 5225   1.156   5.656   6.721 -0.2965 -0.0678  3.4605
   39POPC   C26 5226   1.342   5.709   6.794  0.3090 -0.6052 -0.2274
   39POPC   H6R 5227   1.311   5.810   6.760 -1.9542 -1.0400  0.3415
   39POPC   H6S 5228   1.450   5.696   6.773  0.1110  0.0658 -1.8199
   39POPC   C27 5229   1.318   5.712   6.946  0.0465  0.2793  0.3395
   39POPC   H7R 5230   1.329   5.607   6.978 -0.5306 -0.2531 -1.1258
   39POPC   H7S 5231   1.213   5.738   6.971 -0.0911  0.6527 -0.5806
   39POPC   C28 5232   1.424   5.793   7.019 -0.0922  0.0468  0.2557
   39POPC   H8R 5233   1.519   5.777   6.963 -0.8622 -0.4956 -0.9469
   39POPC   H8S 5234   1.448   5.737   7.112 -1.4727 -2.1261 -0.5988
   39POPC   C29 5235   1.402   5.945   7.026 -0.2099 -0.0441  0.6539
   39POPC   H91 5236   1.437   6.009   6.944 -2.6305 -0.1902 -0.5851
   39POPC  C210 5237   1.353   6.000   7.136 -0.5424 -0.3931  0.4351
   39POPC  H101 5238   1.330   6.107   7.145  0.7954 -0.0529  0.0310
   39POPC  C211 5239   1.310   5.926   7.261 -0.2006  0.3065  0.6297
   39POPC  H11R 5240   1.258   5.831   7.235 -1.3808  1.2624 -0.6760
   39POPC  H11S 5241   1.233   5.987   7.313 -2.6122 -1.9152 -0.1559
   39POPC  C212 5242   1.422   5.906   7.359 -0.6582 -0.6868  0.8205
   39POPC  H12R 5243   1.455   6.000   7.407 -0.3384 -0.4131  0.0803
   39POPC  H12S 5244   1.511   5.866   7.306  0.2648  0.8236  1.1728
   39POPC  C213 5245   1.385   5.817   7.470  0.8776  0.0843 -0.0953
   39POPC  H13R 5246   1.360   5.712   7.447  0.8441  0.0017  0.3163
   39POPC  H13S 5247   1.297   5.861   7.521  0.1489  0.9071 -1.9801
   39POPC  C214 5248   1.490   5.824   7.587 -0.2763  0.1545 -0.6442
   39POPC  H14R 5249   1.522   5.919   7.636 -0.7891 -0.7047  1.4638
   39POPC  H14S 5250   1.583   5.776   7.550  1.1733  0.8060  1.9263
   39POPC  C215 5251   1.448   5.730   7.701  0.3802 -0.0407 -0.4201
   39POPC  H15R 5252   1.410   5.640   7.648  0.8900  0.2185 -1.2543
   39POPC  H15S 5253   1.360   5.775   7.752  0.4430  1.1739 -1.3336
   39POPC  C216 5254   1.573   5.706   7.786 -0.5464 -0.1955  0.4512
   39POPC  H16R 5255   1.622   5.805   7.798  1.8947 -1.2253 -0.4182
   39POPC  H16S 5256   1.642   5.641   7.728 -1.2894 -0.0189 -0.6766
   39POPC  C217 5257   1.559   5.641   7.919 -0.3870  0.1091  0.1089
   39POPC  H17R 5258   1.503   5.715   7.980 -0.0373  1.4353 -1.1186
   39POPC  H17S 5259   1.655   5.619   7.971  0.5119 -0.4759 -1.7068
   39POPC  C218 5260   1.489   5.510   7.899  0.5777  0.3589 -0.4235
   39POPC  H18R 5261   1.494   5.449   7.992  3.1275 -1.6938 -1.7543
   39POPC  H18S 5262   1.553   5.453   7.828  2.7601  1.1594  0.7778
   39POPC  H18T 5263   1.381   5.512   7.874  0.4188 -0.0136  0.1960
   39POPC   C33 5264   1.629   5.240   6.786 -0.1753 -0.8058  0.0803
   39POPC   H3X 5265   1.729   5.205   6.817  0.5138  0.1556 -0.9603
   39POPC   H3Y 5266   1.606   5.171   6.701  1.6103  0.6806 -1.7268
   39POPC   C34 5267   1.530   5.237   6.902  1.0670 -0.4809  0.1002
   39POPC   H4X 5268   1.433   5.265   6.854  2.5793  0.3114 -2.6977
   39POPC   H4Y 5269   1.569   5.316   6.970  2.2288 -0.0338 -1.0577
   39POPC   C35 5270   1.523   5.110   6.983 -0.1572  0.0949  1.1807
   39POPC   H5X 5271   1.473   5.030   6.925  0.1172  1.6328 -1.3645
   39POPC   H5Y 5272   1.446   5.118   7.062 -1.3134 -0.1850  0.1080
   39POPC   C36 5273   1.660   5.069   7.047 -0.2422  0.3049  0.0160
   39POPC   H6X 5274   1.749   5.071   6.980  0.1002 -0.7671  0.4182
   39POPC   H6Y 5275   1.651   4.961   7.071  0.9116 -0.2422 -1.8346
   39POPC   C37 5276   1.682   5.141   7.174  0.0674 -0.4405 -0.4884
   39POPC   H7X 5277   1.620   5.107   7.260  1.3422  0.3521  0.8048
   39POPC   H7Y 5278   1.658   5.249   7.161  0.7236 -0.3431 -0.9400
   39POPC   C38 5279   1.826   5.132   7.221 -0.4911  0.5341 -0.0797
   39POPC   H8X 5280   1.888   5.184   7.145  1.4394 -1.1549  0.2561
   39POPC   H8Y 5281   1.872   5.030   7.222 -0.5364  0.4862 -1.3361
   39POPC   C39 5282   1.851   5.201   7.357 -0.4385 -0.0534  0.0357
   39POPC   H9X 5283   1.804   5.302   7.351 -1.6441 -0.4397  1.9760
   39POPC   H9Y 5284   1.959   5.225   7.358 -0.7007  1.3108 -1.1594
   39POPC  C310 5285   1.795   5.134   7.487  0.3643 -0.2177 -0.1605
   39POPC  H10X 5286   1.819   5.026   7.494 -0.4889 -0.4895 -1.1555
   39POPC  H10Y 5287   1.685   5.134   7.471  0.0240  0.6444  1.9371
   39POPC  C311 5288   1.823   5.226   7.610 -0.5724 -0.6344  0.3045
   39POPC  H11X 5289   1.807   5.333   7.587  1.1537 -0.4573 -0.1901
   39POPC  H11Y 5290   1.933   5.231   7.626 -0.0779  1.5832 -2.7027
   39POPC  C312 5291   1.744   5.182   7.739 -0.4342 -0.2878 -0.0500
   39POPC  H12X 5292   1.755   5.072   7.750 -1.3020 -0.4726 -0.8623
   39POPC  H12Y 5293   1.635   5.194   7.721 -0.1578 -0.6771 -2.3004
   39POPC  C313 5294   1.787   5.263   7.867  0.0180 -0.4176  0.5642
   39POPC  H13X 5295   1.778   5.371   7.842  2.7198 -0.5747 -1.5584
   39POPC  H13Y 5296   1.896   5.248   7.881  0.5946  2.9598  0.5766
   39POPC  C314 5297   1.718   5.225   7.995  0.1105  0.5841  0.1462
   39POPC  H14X 5298   1.734   5.120   8.028 -1.4019  0.5253  0.7707
   39POPC  H14Y 5299   1.609   5.226   7.973 -0.4921  2.1661  2.7253
   39POPC  C315 5300   1.738   5.324   8.114 -0.6710  0.1647  0.0668
   39POPC  H15X 5301   1.662   5.299   8.192 -0.8743  2.4323  0.6501
   39POPC  H15Y 5302   1.721   5.430   8.088 -1.0342 -0.1146 -0.8651
   39POPC  C316 5303   1.886   5.316   8.171 -0.5357  0.1118 -0.1703
   39POPC  H16X 5304   1.961   5.341   8.093  1.6677 -0.6452  1.5915
   39POPC  H16Y 5305   1.909   5.213   8.204  0.5266 -0.1290 -1.5314
   39POPC  H16Z 5306   1.901   5.393   8.250 -0.0749  0.1454 -0.2859
   40POPC     N 5307   2.186   5.319   6.089  0.6509  0.3084  0.3335
   40POPC   C12 5308   2.139   5.429   5.992  0.5204 -0.2613  0.4254
   40POPC  H12A 5309   2.031   5.418   5.989  0.4797  0.0829  0.6026
   40POPC  H12B 5310   2.170   5.403   5.891  0.2251 -0.2820  0.3372
   40POPC   C13 5311   2.156   5.187   6.026  0.9850 -0.8506 -0.1749
   40POPC  H13A 5312   2.174   5.111   6.101  0.5062  0.6497  1.5392
   40POPC  H13B 5313   2.051   5.176   6.003  1.4176 -1.2144 -2.0997
   40POPC  H13C 5314   2.205   5.164   5.933 -0.3112 -0.6323 -0.9354
   40POPC   C14 5315   2.333   5.319   6.108 -0.0512  0.3350 -0.0543
   40POPC  H14A 5316   2.374   5.334   6.009  1.3794 -1.0574  0.2882
   40POPC  H14B 5317   2.364   5.402   6.169  1.5295  1.2305 -1.9545
   40POPC  H14C 5318   2.372   5.229   6.152  0.7085  0.1854 -0.9884
   40POPC   C15 5319   2.109   5.321   6.215 -0.6941  0.0947  0.1511
   40POPC  H15A 5320   2.138   5.261   6.300 -1.1301  2.3366  1.9816
   40POPC  H15B 5321   2.005   5.303   6.194 -0.3284  0.0811 -1.7890
   40POPC  H15C 5322   2.116   5.424   6.248 -1.0310  0.3392 -0.5222
   40POPC   C11 5323   2.172   5.575   6.029 -0.1020 -0.3816  0.0433
   40POPC  H11A 5324   2.141   5.650   5.953  2.6975  1.2589  0.4013
   40POPC  H11B 5325   2.281   5.596   6.024  0.1024 -1.3841  0.0876
   40POPC     P 5326   2.085   5.749   6.194 -0.3484 -0.3706 -0.4404
   40POPC   O13 5327   1.939   5.771   6.195  0.0358 -0.4870 -0.8294
   40POPC   O14 5328   2.179   5.846   6.129  0.9389  0.5301 -0.1565
   40POPC   O12 5329   2.115   5.607   6.154 -0.2774 -0.2181  0.4320
   40POPC   O11 5330   2.122   5.750   6.345 -0.9840  0.0218 -0.0124
   40POPC    C1 5331   2.257   5.703   6.383  0.4492 -0.3418  0.1564
   40POPC    HA 5332   2.304   5.775   6.454  0.3373 -0.4902  0.3825
   40POPC    HB 5333   2.326   5.681   6.298  0.1141  0.3405 -0.3044
   40POPC    C2 5334   2.239   5.569   6.457 -0.1802  0.8166 -0.1298
   40POPC    HS 5335   2.150   5.519   6.414 -1.3173 -0.2094  3.1398
   40POPC   O21 5336   2.217   5.604   6.593 -0.3163  0.1815 -0.2809
   40POPC   C21 5337   2.124   5.538   6.655 -0.5289 -0.1489 -0.5153
   40POPC   O22 5338   2.064   5.443   6.612 -0.0569  0.4739 -0.0444
   40POPC   C22 5339   2.109   5.578   6.805 -0.0073 -0.5960 -0.3762
   40POPC   H2R 5340   2.139   5.684   6.814  0.8579 -0.8061 -0.6956
   40POPC   H2S 5341   2.175   5.510   6.863  1.8542  0.6630 -0.9316
   40POPC    C3 5342   2.368   5.475   6.440  0.8419 -0.2178 -0.4316
   40POPC    HX 5343   2.438   5.518   6.515 -0.3540  1.2845 -0.1088
   40POPC    HY 5344   2.401   5.494   6.336  1.0098 -0.6035 -0.4489
   40POPC   O31 5345   2.330   5.335   6.462 -0.4454 -0.4066  0.5725
   40POPC   C31 5346   2.409   5.260   6.533 -0.5140  0.2269  0.2035
   40POPC   O32 5347   2.522   5.295   6.564  0.4694  0.3823 -0.2281
   40POPC   C32 5348   2.351   5.122   6.554 -0.3150  0.4334 -0.3867
   40POPC   H2X 5349   2.385   5.070   6.462 -0.6811 -0.0221 -0.2697
   40POPC   H2Y 5350   2.241   5.106   6.550 -0.0869 -1.4492 -0.0615
   40POPC   C23 5351   1.967   5.558   6.855 -0.6273  0.6507  0.1013
   40POPC   H3R 5352   1.912   5.471   6.815  1.2829  0.1747 -1.6345
   40POPC   H3S 5353   1.910   5.641   6.808  0.6763  0.4242 -2.0078
   40POPC   C24 5354   1.950   5.577   7.009  0.1073 -0.0011 -0.3057
   40POPC   H4R 5355   2.007   5.665   7.048 -0.0173  0.2609 -0.7069
   40POPC   H4S 5356   1.991   5.486   7.057 -0.0817  0.5063  0.8480
   40POPC   C25 5357   1.805   5.610   7.045 -0.0872 -0.5479 -0.2684
   40POPC   H5R 5358   1.731   5.550   6.988 -0.8732  0.9592 -0.8962
   40POPC   H5S 5359   1.795   5.715   7.010 -0.3121 -0.8139 -1.0170
   40POPC   C26 5360   1.785   5.607   7.202 -0.0262  0.3866 -0.2703
   40POPC   H6R 5361   1.789   5.503   7.240 -2.4998  0.7795  1.3337
   40POPC   H6S 5362   1.685   5.646   7.233  0.0284 -0.1156  0.5449
   40POPC   C27 5363   1.882   5.695   7.275 -0.3953  0.3715  0.0890
   40POPC   H7R 5364   1.872   5.797   7.233  3.6120  0.6793 -0.5568
   40POPC   H7S 5365   1.987   5.666   7.250 -0.4530 -0.2127  0.5070
   40POPC   C28 5366   1.851   5.684   7.430 -0.0170  0.3406 -0.4995
   40POPC   H8R 5367   1.836   5.575   7.447 -3.0759  0.7861  0.3143
   40POPC   H8S 5368   1.750   5.725   7.453  0.5117  1.3454  0.0920
   40POPC   C29 5369   1.961   5.738   7.515 -0.0711 -0.7277  0.5289
   40POPC   H91 5370   2.022   5.818   7.469  1.5875 -1.0936  1.9626
   40POPC  C210 5371   2.001   5.710   7.641 -0.4749  0.5871  0.2344
   40POPC  H101 5372   2.091   5.756   7.683  0.8102 -0.1263 -1.5933
   40POPC  C211 5373   1.939   5.603   7.721 -0.1481 -0.4013  0.2116
   40POPC  H11R 5374   1.982   5.504   7.694 -1.0395 -1.2355  1.7333
   40POPC  H11S 5375   1.829   5.593   7.709 -0.0506 -1.5482  0.2303
   40POPC  C212 5376   1.983   5.616   7.864  0.0565 -0.3531 -0.1546
   40POPC  H12R 5377   2.093   5.606   7.876 -0.2276 -0.2808  4.2445
   40POPC  H12S 5378   1.938   5.534   7.923  1.9076 -0.1704  1.6412
   40POPC  C213 5379   1.936   5.751   7.930  0.1797  0.0745 -0.1508
   40POPC  H13R 5380   1.825   5.749   7.928  0.1583  1.1285 -1.7095
   40POPC  H13S 5381   1.964   5.841   7.872 -0.4925  2.6771  3.2749
   40POPC  C214 5382   1.979   5.760   8.076 -0.0817  0.4404 -0.0667
   40POPC  H14R 5383   2.089   5.761   8.056  0.0725  0.3342  0.7630
   40POPC  H14S 5384   1.967   5.668   8.136  1.6271  0.9518  1.1495
   40POPC  C215 5385   1.916   5.884   8.144 -0.6254 -0.0112  0.3673
   40POPC  H15R 5386   1.914   5.973   8.077  0.4738  0.4831  0.9666
   40POPC  H15S 5387   1.989   5.913   8.222  1.4468 -2.4980 -0.4813
   40POPC  C216 5388   1.778   5.847   8.195 -0.1827  0.5235 -0.1907
   40POPC  H16R 5389   1.780   5.747   8.243 -1.0176  0.0960 -1.0253
   40POPC  H16S 5390   1.715   5.837   8.104  0.2963 -1.2776 -0.3508
   40POPC  C217 5391   1.724   5.960   8.288  0.2447  0.0463 -0.3534
   40POPC  H17R 5392   1.749   6.058   8.240 -0.8664 -0.2667 -1.6387
   40POPC  H17S 5393   1.778   5.954   8.385 -2.3307 -1.5909  1.0842
   40POPC  C218 5394   1.574   5.979   8.317  0.0533  0.2954  0.0835
   40POPC  H18R 5395   1.519   5.980   8.221  0.3118  4.2121 -0.2057
   40POPC  H18S 5396   1.547   6.075   8.366 -0.8089 -0.5320  1.2731
   40POPC  H18T 5397   1.541   5.895   8.382  2.8540 -0.2651  0.9178
   40POPC   C33 5398   2.397   5.053   6.683  0.0408 -0.4096  0.2387
   40POPC   H3X 5399   2.502   5.084   6.705  0.6052 -2.0776  0.0626
   40POPC   H3Y 5400   2.404   4.944   6.665 -0.9246 -0.1243 -2.1566
   40POPC   C34 5401   2.310   5.076   6.802  0.6965  0.2264 -0.1568
   40POPC   H4X 5402   2.331   5.001   6.882  2.8367  2.0503  1.0794
   40POPC   H4Y 5403   2.206   5.055   6.769  0.1297 -1.0791  2.2031
   40POPC   C35 5404   2.297   5.218   6.854  0.5298 -0.6946 -0.5456
   40POPC   H5X 5405   2.258   5.291   6.780  0.8538  0.0840  0.0300
   40POPC   H5Y 5406   2.400   5.254   6.875  1.4676 -1.8383 -2.8839
   40POPC   C36 5407   2.206   5.228   6.985 -1.2304  0.8891 -0.0383
   40POPC   H6X 5408   2.113   5.168   6.979 -1.3818  1.2090 -1.0946
   40POPC   H6Y 5409   2.162   5.330   6.992  0.7349  1.8544 -0.9748
   40POPC   C37 5410   2.290   5.199   7.117  0.2461  0.3376  0.5510
   40POPC   H7X 5411   2.358   5.286   7.125 -0.9923  1.6792 -2.0426
   40POPC   H7Y 5412   2.344   5.104   7.100  1.7580  1.6780 -3.1585
   40POPC   C38 5413   2.206   5.194   7.245 -0.3851  0.0455 -0.4818
   40POPC   H8X 5414   2.119   5.132   7.216  0.7250 -2.0151  0.3642
   40POPC   H8Y 5415   2.175   5.294   7.280 -3.3626 -0.3637 -1.7062
   40POPC   C39 5416   2.282   5.114   7.356  0.3738 -0.0746  0.7470
   40POPC   H9X 5417   2.362   5.182   7.393 -0.7083 -0.1967  3.6024
   40POPC   H9Y 5418   2.327   5.018   7.323 -0.0343  0.2367 -0.7922
   40POPC  C310 5419   2.204   5.079   7.472  0.7631  0.3639 -0.1113
   40POPC  H10X 5420   2.115   5.015   7.454  1.8976 -1.1104 -0.7371
   40POPC  H10Y 5421   2.164   5.172   7.517  0.7404 -0.1959  1.0687
   40POPC  C311 5422   2.285   5.014   7.591  0.0173 -0.2805  0.0019
   40POPC  H11X 5423   2.381   5.070   7.599  0.1160 -0.4246 -0.1718
   40POPC  H11Y 5424   2.309   4.907   7.576 -1.8286 -1.2842  3.2140
   40POPC  C312 5425   2.206   5.026   7.727 -0.0569 -0.5920  0.0873
   40POPC  H12X 5426   2.133   4.942   7.724 -2.1809  1.2078 -0.6712
   40POPC  H12Y 5427   2.158   5.126   7.730 -1.1312 -1.0187 -1.3941
   40POPC  C313 5428   2.297   5.014   7.846 -0.0249  0.6080  0.4098
   40POPC  H13X 5429   2.372   5.096   7.845 -1.1322  1.6651  1.8259
   40POPC  H13Y 5430   2.358   4.921   7.839 -1.5493 -0.3175 -1.7073
   40POPC  C314 5431   2.226   5.016   7.976 -0.5462 -0.1627  0.6634
   40POPC  H14X 5432   2.168   5.111   7.977  0.2280  0.3205  0.4478
   40POPC  H14Y 5433   2.299   5.031   8.058  0.4054 -1.0844  0.0031
   40POPC  C315 5434   2.144   4.897   8.008 -0.5159  0.4205  0.0721
   40POPC  H15X 5435   2.209   4.809   7.986 -1.1423 -0.2490  0.8506
   40POPC  H15Y 5436   2.056   4.885   7.941  0.5755 -1.8692 -1.0778
   40POPC  C316 5437   2.106   4.896   8.151  0.3598 -0.4175 -0.0547
   40POPC  H16X 5438   2.087   5.001   8.181  0.8437 -1.1992  3.3059
   40POPC  H16Y 5439   2.179   4.866   8.228 -1.1093 -4.2199  0.0989
   40POPC  H16Z 5440   2.001   4.858   8.154 -0.8808  1.8314 -4.5521
   41CHL1    C3 5441   0.324   2.659  10.155 -0.0109 -0.0406 -0.0146
   41CHL1    H3 5442   0.231   2.602  10.175 -0.3007  0.8115  1.1441
   41CHL1    O3 5443   0.357   2.730  10.273 -0.0908  0.4764 -0.3530
   41CHL1   H3' 5444   0.448   2.762  10.273  0.3832 -0.7158 -1.9329
   41CHL1    C4 5445   0.431   2.561  10.111 -0.4106  0.6908  0.3168
   41CHL1   H4A 5446   0.528   2.615  10.107 -1.0383  1.7673 -1.1693
   41CHL1   H4B 5447   0.437   2.492  10.198 -0.1759  0.5572  0.1979
   41CHL1    C5 5448   0.402   2.490   9.976  0.0717  0.6101 -0.5274
   41CHL1    C6 5449   0.401   2.356   9.956  0.4246  0.4327  0.0352
   41CHL1    H6 5450   0.433   2.289  10.037  0.5277  1.4776  0.8764
   41CHL1    C7 5451   0.360   2.288   9.828  0.3176  0.3917 -0.2451
   41CHL1   H7A 5452   0.412   2.192   9.808 -1.0023 -0.0464 -1.8150
   41CHL1   H7B 5453   0.254   2.260   9.843  0.0510  0.1249 -2.3707
   41CHL1    C8 5454   0.379   2.382   9.708  0.6301  0.1293  0.1490
   41CHL1    H8 5455   0.487   2.399   9.693  0.4189 -0.1305 -2.0026
   41CHL1   C14 5456   0.312   2.326   9.578  0.5400 -0.0706  0.1518
   41CHL1   H14 5457   0.203   2.332   9.597  0.2887 -0.9098 -0.9181
   41CHL1   C15 5458   0.323   2.177   9.538 -0.7499 -0.2824  0.1113
   41CHL1  H15A 5459   0.423   2.141   9.570 -1.3705 -1.2767  1.0093
   41CHL1  H15B 5460   0.247   2.120   9.596 -0.5460 -0.1506  0.5117
   41CHL1   C16 5461   0.296   2.174   9.391  0.1037 -0.7971  0.3925
   41CHL1  H16A 5462   0.393   2.148   9.343 -0.8633  0.2212 -2.3329
   41CHL1  H16B 5463   0.224   2.102   9.346 -2.2898  0.7019  1.6296
   41CHL1   C17 5464   0.256   2.316   9.344  0.0058 -0.0240 -0.7764
   41CHL1   H17 5465   0.148   2.326   9.370  0.3549  1.4574  0.2091
   41CHL1   C13 5466   0.317   2.413   9.444 -1.1946  0.5292 -0.6310
   41CHL1   C18 5467   0.468   2.432   9.410  0.6528 -0.1240  0.4910
   41CHL1  H18A 5468   0.519   2.336   9.386  0.7509  0.3058 -1.1825
   41CHL1  H18B 5469   0.468   2.494   9.318 -0.7858 -0.8292 -0.0128
   41CHL1  H18C 5470   0.533   2.477   9.488 -1.6529  1.4013  1.6253
   41CHL1   C12 5471   0.246   2.550   9.474 -0.1416 -0.0057  0.0189
   41CHL1  H12A 5472   0.272   2.621   9.393 -2.8880  2.1055  0.8506
   41CHL1  H12B 5473   0.136   2.547   9.492 -0.4958  0.5188 -1.8753
   41CHL1   C11 5474   0.305   2.617   9.605 -0.3050  0.1761  0.9414
   41CHL1  H11A 5475   0.409   2.651   9.587  0.6567 -2.8320  0.2576
   41CHL1  H11B 5476   0.241   2.704   9.633  1.9616  2.4017 -0.4314
   41CHL1    C9 5477   0.310   2.519   9.733 -0.7503 -1.2168 -0.4104
   41CHL1    H9 5478   0.206   2.498   9.764 -1.7268  1.7311 -1.3378
   41CHL1   C10 5479   0.363   2.588   9.864 -0.0093  0.1488 -0.2780
   41CHL1   C19 5480   0.483   2.685   9.829  0.0418 -0.5205  0.1958
   41CHL1  H19A 5481   0.570   2.639   9.777  2.7492  3.1523  1.0642
   41CHL1  H19B 5482   0.439   2.764   9.765  1.9843  0.1105 -0.4487
   41CHL1  H19C 5483   0.525   2.735   9.920  0.0985 -0.2908  0.0449
   41CHL1    C1 5484   0.253   2.674   9.920 -0.3727 -0.1929  0.6700
   41CHL1   H1A 5485   0.216   2.745   9.843 -2.5493  0.2371  2.0306
   41CHL1   H1B 5486   0.170   2.604   9.940 -1.0264  0.1693 -0.6690
   41CHL1    C2 5487   0.288   2.757  10.044  0.8941  0.8324  1.0484
   41CHL1   H2A 5488   0.202   2.821  10.073  2.8267  3.2539  1.8549
   41CHL1   H2B 5489   0.373   2.828  10.034  0.7866  0.7663 -0.6684
   41CHL1   C20 5490   0.278   2.342   9.192 -0.3854  0.4062 -0.2947
   41CHL1   H20 5491   0.389   2.345   9.185 -0.3968 -0.8205 -1.4414
   41CHL1   C21 5492   0.229   2.485   9.162 -0.4089 -0.5769 -0.3091
   41CHL1  H21A 5493   0.135   2.514   9.214 -0.4217  0.9205 -1.0979
   41CHL1  H21B 5494   0.191   2.482   9.057 -1.6989 -1.3796  0.1545
   41CHL1  H21C 5495   0.299   2.568   9.186  0.4695 -1.9842  2.3356
   41CHL1   C22 5496   0.219   2.236   9.098  0.0630 -0.0167 -0.0993
   41CHL1  H22A 5497   0.232   2.132   9.134 -1.8936 -0.9045 -1.7510
   41CHL1  H22B 5498   0.110   2.256   9.097 -0.5491 -2.8374 -1.6225
   41CHL1   C23 5499   0.270   2.240   8.958  0.3160  0.4021  0.6312
   41CHL1  H23A 5500   0.283   2.341   8.913 -2.0244 -0.8301 -3.2469
   41CHL1  H23B 5501   0.370   2.192   8.962  0.6037  0.8806 -0.4741
   41CHL1   C24 5502   0.192   2.149   8.864 -0.4214  0.0569  1.3569
   41CHL1  H24A 5503   0.190   2.045   8.903 -1.8576 -0.9981 -1.2800
   41CHL1  H24B 5504   0.086   2.182   8.863 -0.5008 -0.0181 -2.0983
   41CHL1   C25 5505   0.231   2.146   8.708 -0.4552 -0.2101 -1.0462
   41CHL1   H25 5506   0.341   2.133   8.699  0.2383  1.7193  2.6773
   41CHL1   C26 5507   0.149   2.030   8.637 -0.6705 -0.1999 -0.2846
   41CHL1  H26A 5508   0.167   2.048   8.529 -1.6758  0.4129 -0.3610
   41CHL1  H26B 5509   0.189   1.929   8.660 -1.5183 -0.4734 -0.0021
   41CHL1  H26C 5510   0.040   2.025   8.658 -0.9991 -0.7465 -1.9703
   41CHL1   C27 5511   0.197   2.285   8.647 -0.7940  0.0084 -0.5231
   41CHL1  H27A 5512   0.093   2.314   8.673 -1.4982  2.0926 -4.7470
   41CHL1  H27B 5513   0.263   2.365   8.685 -0.2760 -0.7743  0.2408
   41CHL1  H27C 5514   0.204   2.283   8.536  3.5276 -0.1251 -0.4092
   42CHL1    C3 5515   1.075   1.194   9.740  0.9309 -0.7910  0.1568
   42CHL1    H3 5516   1.064   1.296   9.698  0.9018 -0.8109  0.1167
   42CHL1    O3 5517   1.077   1.186   9.883 -0.3584  0.0854 -0.1695
   42CHL1   H3' 5518   0.987   1.165   9.910 -0.1948  0.4952  0.7093
   42CHL1    C4 5519   0.957   1.113   9.686  0.8485 -0.6398 -0.0864
   42CHL1   H4A 5520   0.956   1.017   9.744  0.9466 -1.5426 -1.5337
   42CHL1   H4B 5521   0.867   1.171   9.712  2.2143  1.5756 -0.0575
   42CHL1    C5 5522   0.964   1.091   9.534 -0.5623 -0.2146 -0.2585
   42CHL1    C6 5523   0.865   1.124   9.458 -0.6857 -1.0850  0.4020
   42CHL1    H6 5524   0.776   1.181   9.492  0.4636  2.0569 -1.4647
   42CHL1    C7 5525   0.862   1.089   9.311  0.2083 -0.6662 -0.4282
   42CHL1   H7A 5526   0.759   1.058   9.282 -0.6684  2.4149 -0.9118
   42CHL1   H7B 5527   0.883   1.182   9.255  4.3863  0.2925  2.2652
   42CHL1    C8 5528   0.973   0.986   9.266  0.0346 -0.3377 -0.6997
   42CHL1    H8 5529   0.939   0.886   9.301 -0.2160  0.6609  2.1892
   42CHL1   C14 5530   0.981   0.976   9.115 -0.1436 -0.5645 -0.1193
   42CHL1   H14 5531   1.011   1.079   9.082 -2.9950  0.7087  0.9886
   42CHL1   C15 5532   0.855   0.942   9.036 -0.4163  0.3590  0.7435
   42CHL1  H15A 5533   0.813   0.850   9.082 -0.6356  0.1533  0.1535
   42CHL1  H15B 5534   0.792   1.033   9.024  0.9721  1.2044 -0.5635
   42CHL1   C16 5535   0.913   0.911   8.892  0.2142  0.4805 -0.1159
   42CHL1  H16A 5536   0.892   0.804   8.875 -0.6350  0.7419 -0.7793
   42CHL1  H16B 5537   0.871   0.987   8.822 -0.8675 -1.0783 -1.2063
   42CHL1   C17 5538   1.068   0.925   8.907  0.8680  0.0741 -0.0167
   42CHL1   H17 5539   1.078   1.034   8.891 -0.8003  0.4618  1.2081
   42CHL1   C13 5540   1.100   0.900   9.059 -0.3565 -0.5621 -0.2596
   42CHL1   C18 5541   1.093   0.749   9.101  0.6267 -0.3142  0.3259
   42CHL1  H18A 5542   1.012   0.705   9.038 -0.0063  0.8353  0.3157
   42CHL1  H18B 5543   1.183   0.692   9.069  0.8872  0.1284  0.2546
   42CHL1  H18C 5544   1.074   0.734   9.209 -0.3152  2.1807  0.5832
   42CHL1   C12 5545   1.232   0.953   9.116 -0.6550  0.1257 -0.2052
   42CHL1  H12A 5546   1.312   0.880   9.089  0.2907  0.7964  0.6861
   42CHL1  H12B 5547   1.260   1.052   9.073  0.6428  0.1059  0.5103
   42CHL1   C11 5548   1.229   0.958   9.266  0.1597  0.7206  0.4444
   42CHL1  H11A 5549   1.214   0.855   9.305 -1.8985  1.3303  1.3965
   42CHL1  H11B 5550   1.323   1.003   9.305 -0.2908  1.6613  0.4880
   42CHL1    C9 5551   1.105   1.028   9.330  0.1592  0.4796  0.4819
   42CHL1    H9 5552   1.124   1.135   9.309  1.0468  0.1620 -0.3988
   42CHL1   C10 5553   1.095   1.021   9.485 -0.8048 -0.9784  0.0860
   42CHL1   C19 5554   1.109   0.876   9.541 -0.7038 -0.2353  0.4311
   42CHL1  H19A 5555   1.210   0.840   9.513 -0.8233  1.1571 -2.0632
   42CHL1  H19B 5556   1.092   0.879   9.651  0.7156  1.4438  0.6492
   42CHL1  H19C 5557   1.027   0.814   9.496  1.5549 -2.7958 -0.4130
   42CHL1    C1 5558   1.211   1.113   9.543  0.5912  0.8344  0.0430
   42CHL1   H1A 5559   1.309   1.066   9.521 -0.9007 -3.1723  1.0593
   42CHL1   H1B 5560   1.211   1.209   9.487  1.0560  0.3045 -0.8894
   42CHL1    C2 5561   1.207   1.136   9.694 -0.2777 -0.1823 -0.2178
   42CHL1   H2A 5562   1.280   1.211   9.732 -0.2835 -0.2098 -0.1523
   42CHL1   H2B 5563   1.224   1.046   9.756 -0.8418  1.1008  1.9176
   42CHL1   C20 5564   1.150   0.847   8.795 -0.4189  0.3869 -0.1843
   42CHL1   H20 5565   1.165   0.746   8.839  4.4693  1.6512  1.7021
   42CHL1   C21 5566   1.293   0.916   8.780  1.0412 -0.3343  0.4739
   42CHL1  H21A 5567   1.361   0.870   8.705  0.1514  1.2511 -1.3883
   42CHL1  H21B 5568   1.330   0.913   8.885  0.5341  0.8207  0.6994
   42CHL1  H21C 5569   1.265   1.018   8.746 -0.4688 -0.7895  0.2896
   42CHL1   C22 5570   1.081   0.852   8.654 -0.0055 -0.4047  0.1491
   42CHL1  H22A 5571   0.975   0.823   8.668  0.1379 -1.2734 -0.4830
   42CHL1  H22B 5572   1.085   0.956   8.616 -1.6478 -0.6912 -0.9160
   42CHL1   C23 5573   1.151   0.770   8.542 -0.0668  0.7065 -0.6670
   42CHL1  H23A 5574   1.245   0.827   8.525  1.9940 -1.0201  3.5044
   42CHL1  H23B 5575   1.181   0.668   8.573 -0.3130  0.7950 -0.1213
   42CHL1   C24 5576   1.062   0.780   8.415 -0.1642  0.0625 -0.4513
   42CHL1  H24A 5577   0.978   0.711   8.436  1.3427 -1.4298  0.9757
   42CHL1  H24B 5578   1.035   0.883   8.381 -0.8408 -0.0386 -0.2427
   42CHL1   C25 5579   1.129   0.717   8.289 -0.2313 -0.1405 -0.3785
   42CHL1   H25 5580   1.220   0.781   8.284 -0.8088  0.7571  0.3585
   42CHL1   C26 5581   1.166   0.569   8.315  0.0619  0.7534 -0.5653
   42CHL1  H26A 5582   1.204   0.528   8.219 -2.5830 -3.0364 -0.2060
   42CHL1  H26B 5583   1.232   0.558   8.404 -0.4368 -0.3706 -0.3192
   42CHL1  H26C 5584   1.067   0.523   8.333  0.4412  0.6264  1.4371
   42CHL1   C27 5585   1.032   0.723   8.162  0.7555 -0.4291 -0.3149
   42CHL1  H27A 5586   1.004   0.827   8.134  0.5809 -0.1664  0.7815
   42CHL1  H27B 5587   1.081   0.674   8.076  0.9559  0.8227 -0.9382
   42CHL1  H27C 5588   0.934   0.676   8.184  1.4385 -1.8953 -0.2949
   43CHL1    C3 5589   1.161   1.685   9.813 -0.5790  0.3939  0.0083
   43CHL1    H3 5590   1.242   1.758   9.793 -0.0015  0.1917  1.5344
   43CHL1    O3 5591   1.142   1.666   9.954 -0.1386  0.7101  0.1759
   43CHL1   H3' 5592   1.047   1.658   9.969 -0.0949 -0.5259 -0.1043
   43CHL1    C4 5593   1.034   1.748   9.751  0.1220  0.1462 -0.0902
   43CHL1   H4A 5594   0.946   1.694   9.792 -0.8382 -0.6889 -3.0134
   43CHL1   H4B 5595   1.038   1.852   9.791 -0.8633 -0.2261  1.0436
   43CHL1    C5 5596   1.031   1.734   9.599  0.0036  0.2901 -0.2170
   43CHL1    C6 5597   1.018   1.842   9.521 -0.3379  0.5011 -0.0989
   43CHL1    H6 5598   1.013   1.939   9.571  3.4563  0.9495 -0.3066
   43CHL1    C7 5599   1.000   1.839   9.369  0.1645 -0.5325  0.0734
   43CHL1   H7A 5600   0.915   1.905   9.343  0.2086 -0.1376  0.8848
   43CHL1   H7B 5601   1.090   1.876   9.315  0.5167  0.9492  1.5993
   43CHL1    C8 5602   0.973   1.696   9.310  0.3487  0.4061  0.3357
   43CHL1    H8 5603   0.872   1.671   9.348  0.2670  3.0480  2.0960
   43CHL1   C14 5604   0.995   1.691   9.153 -0.1321  0.0064 -0.5438
   43CHL1   H14 5605   1.100   1.721   9.135  0.2370  1.9046  3.5285
   43CHL1   C15 5606   0.909   1.788   9.080  0.3898 -0.7063  0.2140
   43CHL1  H15A 5607   0.809   1.790   9.128 -0.1483  0.7000 -0.8970
   43CHL1  H15B 5608   0.950   1.892   9.082 -0.5677 -0.3324  0.8974
   43CHL1   C16 5609   0.910   1.728   8.933 -0.2901 -0.2537 -0.8301
   43CHL1  H16A 5610   0.803   1.702   8.914 -0.6059 -1.2813  1.9551
   43CHL1  H16B 5611   0.943   1.799   8.853 -0.4365  2.5219  1.4111
   43CHL1   C17 5612   0.986   1.587   8.943 -0.5151  0.0787  0.5236
   43CHL1   H17 5613   1.094   1.612   8.932 -0.7902  1.1847  0.2986
   43CHL1   C13 5614   0.980   1.549   9.095 -0.4739 -0.2059  0.2105
   43CHL1   C18 5615   0.841   1.488   9.119 -0.5584 -0.6091 -0.5847
   43CHL1  H18A 5616   0.822   1.481   9.229  0.7918  0.3984 -0.2738
   43CHL1  H18B 5617   0.754   1.538   9.071 -1.2390 -2.0938 -0.9641
   43CHL1  H18C 5618   0.827   1.382   9.088 -2.3242 -1.3190  2.1830
   43CHL1   C12 5619   1.091   1.462   9.153  0.6401  0.7229 -0.7264
   43CHL1  H12A 5620   1.078   1.359   9.113  0.0282 -0.2731  1.7885
   43CHL1  H12B 5621   1.192   1.478   9.110 -0.0892  0.3425 -2.6708
   43CHL1   C11 5622   1.080   1.461   9.308  0.2750  0.6693 -0.5609
   43CHL1  H11A 5623   0.986   1.407   9.334  1.2950 -0.4847  0.9162
   43CHL1  H11B 5624   1.158   1.394   9.351 -0.2308  1.0283  0.9824
   43CHL1    C9 5625   1.074   1.594   9.379 -0.1907 -0.3857 -0.3755
   43CHL1    H9 5626   1.177   1.629   9.356  0.7581 -0.8301  2.7089
   43CHL1   C10 5627   1.058   1.596   9.536 -0.2318  0.1377  1.6954
   43CHL1   C19 5628   0.932   1.510   9.571 -0.2029 -0.0186 -0.4093
   43CHL1  H19A 5629   0.917   1.501   9.680 -2.7303  0.1332 -0.6993
   43CHL1  H19B 5630   0.838   1.554   9.531  0.1367  1.2439  0.1396
   43CHL1  H19C 5631   0.947   1.406   9.536 -1.1193 -0.3478  0.1606
   43CHL1    C1 5632   1.190   1.545   9.603 -0.4897 -0.0723 -0.1267
   43CHL1   H1A 5633   1.202   1.439   9.575 -0.3278  0.1083 -0.7442
   43CHL1   H1B 5634   1.277   1.596   9.558  0.4286 -0.4594  1.1477
   43CHL1    C2 5635   1.199   1.547   9.758  0.5642  1.3132 -0.1224
   43CHL1   H2A 5636   1.301   1.517   9.790 -0.3795 -0.5086  1.3498
   43CHL1   H2B 5637   1.130   1.468   9.793  0.5721  1.3488 -0.0269
   43CHL1   C20 5638   0.937   1.486   8.843  0.4772  0.0215 -0.4359
   43CHL1   H20 5639   0.829   1.462   8.851  1.2985 -4.2468  0.5627
   43CHL1   C21 5640   1.014   1.351   8.854  0.2690 -0.8133 -0.0338
   43CHL1  H21A 5641   0.994   1.286   8.766 -0.0879  0.2751 -0.7761
   43CHL1  H21B 5642   1.007   1.281   8.940 -0.0617  0.6077  1.1197
   43CHL1  H21C 5643   1.124   1.366   8.857  0.1803 -0.2820  0.6465
   43CHL1   C22 5644   0.952   1.550   8.699 -0.2251 -0.5779  0.7330
   43CHL1  H22A 5645   0.941   1.661   8.692  2.0431 -0.3498 -0.0813
   43CHL1  H22B 5646   1.059   1.535   8.675 -0.2410  0.7571 -0.2589
   43CHL1   C23 5647   0.870   1.487   8.586 -0.7537 -0.5189 -0.0757
   43CHL1  H23A 5648   0.886   1.377   8.590  0.3247 -0.4266 -1.1952
   43CHL1  H23B 5649   0.760   1.501   8.579 -0.7016 -0.1197 -0.1634
   43CHL1   C24 5650   0.922   1.518   8.438  0.3804 -0.1108 -0.7253
   43CHL1  H24A 5651   1.022   1.473   8.419 -0.5285 -2.3913 -0.4609
   43CHL1  H24B 5652   0.861   1.461   8.364 -0.4880  1.0232 -0.9209
   43CHL1   C25 5653   0.925   1.667   8.401 -0.2507  0.4310  0.1843
   43CHL1   H25 5654   1.014   1.713   8.449  0.6459 -1.0291 -0.0283
   43CHL1   C26 5655   0.941   1.680   8.246  0.3969  0.0802 -0.3140
   43CHL1  H26A 5656   0.852   1.654   8.185  0.2581  1.4162 -0.7235
   43CHL1  H26B 5657   0.979   1.783   8.226  0.0085  0.0113 -1.4682
   43CHL1  H26C 5658   1.027   1.616   8.215  0.4803 -0.0749  0.2325
   43CHL1   C27 5659   0.793   1.742   8.435 -0.5141  0.1491  0.4243
   43CHL1  H27A 5660   0.797   1.844   8.390 -0.1159 -0.8257 -1.9298
   43CHL1  H27B 5661   0.718   1.691   8.369  0.6356 -2.2748  0.8764
   43CHL1  H27C 5662   0.765   1.743   8.542 -0.0520 -0.4564  0.5546
   44CHL1    C3 5663   0.103   2.156  10.091  0.9196  0.4972  0.0686
   44CHL1    H3 5664   0.193   2.205  10.048  0.1175  2.8537  0.9430
   44CHL1    O3 5665   0.141   2.133  10.221 -0.3724 -0.1923 -0.1177
   44CHL1   H3' 5666   0.199   2.058  10.211  2.5183  1.5968  1.6871
   44CHL1    C4 5667  -0.024   2.251  10.095 -0.0360  0.5256 -0.6469
   44CHL1   H4A 5668  -0.104   2.192  10.146 -1.7770  1.1409 -2.5250
   44CHL1   H4B 5669   0.003   2.333  10.164  0.8914 -0.6136  0.3806
   44CHL1    C5 5670  -0.073   2.289   9.957  1.0170  0.3992  0.5700
   44CHL1    C6 5671  -0.073   2.410   9.903 -0.0357  0.1805  0.0369
   44CHL1    H6 5672  -0.021   2.494   9.953  1.2741  0.4668 -1.6837
   44CHL1    C7 5673  -0.118   2.449   9.761 -0.4981 -0.2267  0.6266
   44CHL1   H7A 5674  -0.196   2.528   9.760 -0.4747 -0.2049 -0.3763
   44CHL1   H7B 5675  -0.026   2.490   9.713  1.2370 -0.2515  3.6651
   44CHL1    C8 5676  -0.173   2.333   9.681 -0.6904  0.7008 -0.3144
   44CHL1    H8 5677  -0.276   2.324   9.722 -0.0666  0.4645  1.2633
   44CHL1   C14 5678  -0.158   2.361   9.535 -0.1630 -0.0429  0.4878
   44CHL1   H14 5679  -0.050   2.369   9.510  0.1935  0.1222  1.9728
   44CHL1   C15 5680  -0.221   2.492   9.488 -0.0590  0.3090  0.3979
   44CHL1  H15A 5681  -0.323   2.491   9.533 -0.0369  2.5265  0.6261
   44CHL1  H15B 5682  -0.163   2.583   9.515  0.1110 -0.0381  1.2500
   44CHL1   C16 5683  -0.237   2.466   9.334 -0.0828 -0.8302  0.4418
   44CHL1  H16A 5684  -0.338   2.500   9.302  1.1662  2.5278 -0.3267
   44CHL1  H16B 5685  -0.170   2.540   9.284  0.0814  0.1320  2.0086
   44CHL1   C17 5686  -0.199   2.321   9.305  0.4824 -0.7325 -0.0137
   44CHL1   H17 5687  -0.090   2.318   9.283  0.9370  1.2084  1.7257
   44CHL1   C13 5688  -0.211   2.257   9.443 -0.5520 -0.1684  0.7640
   44CHL1   C18 5689  -0.361   2.222   9.482 -0.2395 -0.5111  0.7586
   44CHL1  H18A 5690  -0.430   2.306   9.458  0.3728 -0.7306 -2.1507
   44CHL1  H18B 5691  -0.397   2.135   9.422  3.7725 -0.8063 -1.5587
   44CHL1  H18C 5692  -0.374   2.196   9.589  0.7918 -1.5565  0.6522
   44CHL1   C12 5693  -0.119   2.133   9.468 -0.3826  0.6473  0.7088
   44CHL1  H12A 5694  -0.143   2.048   9.402 -1.0521  1.6969 -0.4420
   44CHL1  H12B 5695  -0.016   2.168   9.445 -0.6143 -0.1314 -1.8201
   44CHL1   C11 5696  -0.132   2.084   9.608 -0.3857 -0.2452  0.1627
   44CHL1  H11A 5697  -0.237   2.053   9.627 -0.8587  0.8752 -0.4992
   44CHL1  H11B 5698  -0.053   2.010   9.630  0.9181  1.1863  0.5060
   44CHL1    C9 5699  -0.102   2.200   9.712  0.4110 -0.1165  0.0350
   44CHL1    H9 5700   0.004   2.224   9.689  0.5637 -1.8470 -1.3287
   44CHL1   C10 5701  -0.102   2.166   9.863 -0.2723  0.4479 -0.6412
   44CHL1   C19 5702  -0.241   2.103   9.902  0.0201 -0.2337  0.0087
   44CHL1  H19A 5703  -0.253   2.075  10.008 -1.9048  0.4807  0.0277
   44CHL1  H19B 5704  -0.313   2.186   9.888  0.3440  0.6950  3.2226
   44CHL1  H19C 5705  -0.257   2.016   9.834 -0.0063  1.3110 -2.0805
   44CHL1    C1 5706   0.009   2.056   9.881 -0.3975  0.4175  0.0312
   44CHL1   H1A 5707  -0.029   1.959   9.844  2.3524 -0.4672 -0.7127
   44CHL1   H1B 5708   0.091   2.071   9.806 -1.8169 -3.6965 -2.7011
   44CHL1    C2 5709   0.057   2.030  10.021 -0.6524  0.2584  0.4632
   44CHL1   H2A 5710   0.137   1.954  10.020 -0.5533  0.2846  2.4822
   44CHL1   H2B 5711  -0.016   1.978  10.087 -1.4707  0.7260 -0.0422
   44CHL1   C20 5712  -0.288   2.268   9.186  0.1750 -0.7785 -0.0328
   44CHL1   H20 5713  -0.395   2.283   9.211  0.1873 -1.2075  0.2830
   44CHL1   C21 5714  -0.265   2.121   9.161 -0.2631 -0.8021  0.1363
   44CHL1  H21A 5715  -0.314   2.065   9.079  1.2474 -2.3373  0.2152
   44CHL1  H21B 5716  -0.270   2.057   9.251  0.7477 -0.5638  0.3783
   44CHL1  H21C 5717  -0.159   2.122   9.126 -0.2151  3.2735 -0.0982
   44CHL1   C22 5718  -0.278   2.360   9.064 -0.3339  0.7131 -0.4458
   44CHL1  H22A 5719  -0.340   2.448   9.091 -1.7137 -0.7103  1.3186
   44CHL1  H22B 5720  -0.170   2.371   9.043  0.4032 -1.4564  1.8285
   44CHL1   C23 5721  -0.337   2.301   8.928  0.2141  0.9378  0.7076
   44CHL1  H23A 5722  -0.271   2.217   8.900 -1.9475  0.0275 -2.1733
   44CHL1  H23B 5723  -0.439   2.268   8.957  0.5262  0.4372  1.2664
   44CHL1   C24 5724  -0.359   2.396   8.816 -0.2149 -0.6644 -0.3297
   44CHL1  H24A 5725  -0.398   2.491   8.858 -1.0269 -1.2873  0.3512
   44CHL1  H24B 5726  -0.259   2.421   8.775 -0.4828 -0.4678 -0.8731
   44CHL1   C25 5727  -0.459   2.360   8.698  0.4360 -0.2257  0.1273
   44CHL1   H25 5728  -0.559   2.362   8.747  0.0026  2.4552 -0.7185
   44CHL1   C26 5729  -0.455   2.476   8.594 -0.1476  0.4380 -0.4503
   44CHL1  H26A 5730  -0.470   2.579   8.634  1.4446  1.0945 -1.4455
   44CHL1  H26B 5731  -0.355   2.489   8.548  0.3068  0.5531  0.5503
   44CHL1  H26C 5732  -0.522   2.449   8.510  0.6554 -1.0491 -0.6419
   44CHL1   C27 5733  -0.422   2.222   8.643 -0.3990 -0.3389  0.2508
   44CHL1  H27A 5734  -0.405   2.140   8.716 -0.0883 -1.4582 -1.0361
   44CHL1  H27B 5735  -0.508   2.189   8.581 -0.6047  0.7663 -0.0677
   44CHL1  H27C 5736  -0.326   2.240   8.591  0.5383  0.3987  2.1630
   45CHL1    C3 5737   6.047   0.259  10.044 -0.4853  0.4841 -0.6719
   45CHL1    H3 5738   6.133   0.328  10.039 -1.0082  1.1367 -0.7309
   45CHL1    O3 5739   6.054   0.174  10.159 -0.3096 -0.0900  0.4420
   45CHL1   H3' 5740   6.021   0.231  10.228  2.4491  0.7529  1.2086
   45CHL1    C4 5741   5.916   0.323  10.043  0.3188 -0.0633  0.2552
   45CHL1   H4A 5742   5.830   0.253  10.047 -2.2775  2.5227 -3.0431
   45CHL1   H4B 5743   5.905   0.387  10.133  0.0621 -0.7172  0.6965
   45CHL1    C5 5744   5.906   0.416   9.920 -0.1871 -0.0434 -0.4730
   45CHL1    C6 5745   5.887   0.552   9.919  0.9432  0.4572 -0.1802
   45CHL1    H6 5746   5.881   0.603  10.016 -1.7424 -1.7951  0.9370
   45CHL1    C7 5747   5.872   0.628   9.793 -0.5148 -0.0647 -0.2641
   45CHL1   H7A 5748   5.788   0.699   9.812 -0.7970 -0.7448  1.2032
   45CHL1   H7B 5749   5.967   0.686   9.791 -0.8172  0.4365 -2.4151
   45CHL1    C8 5750   5.850   0.553   9.662  0.4590  0.0361  0.0237
   45CHL1    H8 5751   5.894   0.602   9.572 -1.1009 -1.6964 -1.7622
   45CHL1   C14 5752   5.698   0.536   9.631  0.4136  0.2936 -0.0959
   45CHL1   H14 5753   5.650   0.487   9.719  1.6914  0.1573  0.5525
   45CHL1   C15 5754   5.637   0.682   9.603  0.0737 -0.4828 -0.5828
   45CHL1  H15A 5755   5.537   0.700   9.647  0.4010 -1.1964  0.4804
   45CHL1  H15B 5756   5.704   0.760   9.645  0.1900  0.1634 -1.9024
   45CHL1   C16 5757   5.627   0.693   9.452  0.1722  0.1182 -0.4716
   45CHL1  H16A 5758   5.531   0.741   9.424 -0.2752 -0.0751  0.6930
   45CHL1  H16B 5759   5.700   0.767   9.412 -0.4129  2.5882  2.6400
   45CHL1   C17 5760   5.663   0.558   9.387  0.3866 -0.4352  0.1490
   45CHL1   H17 5761   5.773   0.566   9.372  0.6799  0.2876  2.2663
   45CHL1   C13 5762   5.660   0.455   9.504 -0.7083 -0.6780 -0.8854
   45CHL1   C18 5763   5.523   0.396   9.524 -0.0190  0.4032 -0.6098
   45CHL1  H18A 5764   5.453   0.468   9.573 -0.2387 -0.4709  0.3854
   45CHL1  H18B 5765   5.481   0.351   9.432  1.2328  0.2242 -1.1050
   45CHL1  H18C 5766   5.536   0.313   9.596  1.3362  0.5285 -0.6784
   45CHL1   C12 5767   5.760   0.337   9.479  0.0051 -0.5056  0.5079
   45CHL1  H12A 5768   5.734   0.242   9.529  2.3545 -0.4156  2.0836
   45CHL1  H12B 5769   5.761   0.315   9.370 -1.9875 -1.5547  0.6691
   45CHL1   C11 5770   5.914   0.345   9.527  0.7316 -0.2650 -0.0013
   45CHL1  H11A 5771   5.960   0.244   9.518 -2.9652 -1.9648 -1.4972
   45CHL1  H11B 5772   5.959   0.413   9.451 -0.3537  0.7148  0.2126
   45CHL1    C9 5773   5.920   0.418   9.664  0.0923  0.7301  0.0492
   45CHL1    H9 5774   6.022   0.460   9.666 -0.1889  1.4098  0.9759
   45CHL1   C10 5775   5.909   0.330   9.791 -0.4377  0.2946  0.9368
   45CHL1   C19 5776   5.787   0.233   9.794 -0.7042  0.0814  0.2520
   45CHL1  H19A 5777   5.776   0.166   9.882 -0.6663  2.4101  2.1177
   45CHL1  H19B 5778   5.689   0.286   9.805 -0.2313  1.2816 -1.0354
   45CHL1  H19C 5779   5.783   0.174   9.700 -1.2197 -0.3142  0.5168
   45CHL1    C1 5780   6.039   0.241   9.794  0.8021 -0.2287 -0.3776
   45CHL1   H1A 5781   6.037   0.168   9.710 -2.8994 -0.6956 -0.0341
   45CHL1   H1B 5782   6.124   0.313   9.782 -2.8520  4.6521 -0.1670
   45CHL1    C2 5783   6.053   0.162   9.929 -0.7865  0.2302 -0.2851
   45CHL1   H2A 5784   6.149   0.108   9.918 -1.2163 -0.3776 -1.1910
   45CHL1   H2B 5785   5.978   0.080   9.925  0.2048 -0.8092  1.4753
   45CHL1   C20 5786   5.583   0.515   9.268  1.0382 -0.4463  0.5249
   45CHL1   H20 5787   5.582   0.405   9.258  2.7283 -0.6321  2.0112
   45CHL1   C21 5788   5.659   0.568   9.151  0.3395  0.0250  0.6468
   45CHL1  H21A 5789   5.681   0.677   9.157 -2.3382  0.5752  1.8428
   45CHL1  H21B 5790   5.610   0.546   9.054 -1.0527 -1.8763  1.7174
   45CHL1  H21C 5791   5.757   0.516   9.142 -0.1045 -0.5865 -1.0091
   45CHL1   C22 5792   5.436   0.566   9.259  0.4009 -0.0151 -0.6613
   45CHL1  H22A 5793   5.381   0.541   9.352  0.3496 -0.3049 -0.7675
   45CHL1  H22B 5794   5.422   0.675   9.246  0.8508  0.0826 -0.3712
   45CHL1   C23 5795   5.346   0.479   9.170  0.8071 -0.3219  0.2707
   45CHL1  H23A 5796   5.387   0.484   9.067  0.8314  2.4400  0.3370
   45CHL1  H23B 5797   5.357   0.374   9.205 -0.6987 -0.7856 -0.5788
   45CHL1   C24 5798   5.205   0.542   9.160  0.2644  0.4439 -0.3220
   45CHL1  H24A 5799   5.182   0.604   9.249  1.0607  1.5610 -0.8782
   45CHL1  H24B 5800   5.189   0.609   9.072  0.8714  0.0918 -0.7107
   45CHL1   C25 5801   5.096   0.443   9.135  0.5154 -0.5081 -0.2172
   45CHL1   H25 5802   5.078   0.371   9.217  0.1162  1.9778  2.0448
   45CHL1   C26 5803   4.961   0.518   9.140 -0.1616  0.0821  0.3440
   45CHL1  H26A 5804   4.953   0.596   9.061 -0.1523 -1.9855 -1.8278
   45CHL1  H26B 5805   4.877   0.447   9.125 -1.6741  1.9067 -0.3509
   45CHL1  H26C 5806   4.956   0.569   9.238  0.0973 -0.6000  0.7169
   45CHL1   C27 5807   5.124   0.384   8.997 -0.0766  0.6507 -0.2177
   45CHL1  H27A 5808   5.207   0.312   9.013 -0.6340  0.1532  0.5107
   45CHL1  H27B 5809   5.037   0.324   8.964 -0.1303  0.6526 -0.0783
   45CHL1  H27C 5810   5.150   0.455   8.916  2.6824  3.1374  2.5518
   46CHL1    C3 5811   2.203   4.830   9.910  0.2302  0.2166  0.0131
   46CHL1    H3 5812   2.142   4.918   9.883  1.9353  0.9181 -1.8272
   46CHL1    O3 5813   2.256   4.817  10.040  0.0430 -0.3759  0.1612
   46CHL1   H3' 5814   2.189   4.846  10.102 -0.0085 -0.0537 -0.0411
   46CHL1    C4 5815   2.111   4.704   9.878 -0.3895 -0.4617 -0.2373
   46CHL1   H4A 5816   2.168   4.617   9.916  1.4676  0.5845 -0.5426
   46CHL1   H4B 5817   2.023   4.722   9.944 -0.0546  0.4447 -0.0266
   46CHL1    C5 5818   2.070   4.703   9.733  0.0486 -0.7854  0.0650
   46CHL1    C6 5819   1.942   4.696   9.698 -0.2762  0.2419  0.6414
   46CHL1    H6 5820   1.871   4.668   9.777 -1.0431 -0.8143 -0.3979
   46CHL1    C7 5821   1.895   4.698   9.557 -0.5398  0.2720  0.4059
   46CHL1   H7A 5822   1.804   4.635   9.548 -0.6120  0.3267  0.7562
   46CHL1   H7B 5823   1.856   4.798   9.530  1.6689  1.0015 -0.3365
   46CHL1    C8 5824   2.003   4.658   9.453  0.1921  0.5772 -0.4040
   46CHL1    H8 5825   2.012   4.548   9.457 -0.0632  0.5791  2.8637
   46CHL1   C14 5826   1.963   4.693   9.305  0.2674  0.2179 -0.6627
   46CHL1   H14 5827   1.952   4.803   9.310  0.2102  0.1662  0.8290
   46CHL1   C15 5828   1.825   4.639   9.262  0.3690  0.4876 -0.0355
   46CHL1  H15A 5829   1.815   4.529   9.273 -1.0748  0.3522 -2.1013
   46CHL1  H15B 5830   1.741   4.693   9.310  1.6380  2.9039 -0.3809
   46CHL1   C16 5831   1.826   4.666   9.110 -0.4887 -0.3768 -0.5114
   46CHL1  H16A 5832   1.781   4.590   9.044 -0.0254  0.3634 -1.7129
   46CHL1  H16B 5833   1.768   4.759   9.095  0.3953  0.3107  0.1538
   46CHL1   C17 5834   1.981   4.704   9.074 -0.1648  0.0932  0.3232
   46CHL1   H17 5835   1.974   4.814   9.059  2.2451  0.3276  0.5759
   46CHL1   C13 5836   2.065   4.656   9.198  0.9249  0.6109 -0.4033
   46CHL1   C18 5837   2.101   4.504   9.195 -0.5040 -0.1440  0.4826
   46CHL1  H18A 5838   2.027   4.450   9.131 -0.8523  1.4602 -0.5230
   46CHL1  H18B 5839   2.200   4.498   9.146 -0.6158 -0.0177  0.2375
   46CHL1  H18C 5840   2.107   4.451   9.293 -0.4783 -3.0559 -0.9601
   46CHL1   C12 5841   2.188   4.738   9.237  0.3557  0.2435  0.4289
   46CHL1  H12A 5842   2.274   4.703   9.176  0.3786 -0.3956  0.8183
   46CHL1  H12B 5843   2.170   4.848   9.231  1.4085  0.7267  3.8246
   46CHL1   C11 5844   2.241   4.715   9.379  1.0452 -0.2668  0.8631
   46CHL1  H11A 5845   2.287   4.615   9.382  2.3081  0.3200  2.5369
   46CHL1  H11B 5846   2.320   4.790   9.400  0.1054  0.3789  2.2776
   46CHL1    C9 5847   2.137   4.722   9.492  0.0669 -0.2608  0.0439
   46CHL1    H9 5848   2.115   4.831   9.491 -1.8283 -0.5905  0.9505
   46CHL1   C10 5849   2.188   4.705   9.640 -0.2172 -0.1551  0.2183
   46CHL1   C19 5850   2.255   4.568   9.643 -0.1129  0.0568  0.7998
   46CHL1  H19A 5851   2.181   4.486   9.632 -1.2364  1.1383 -0.0559
   46CHL1  H19B 5852   2.332   4.567   9.563 -1.8000 -0.0632 -0.8894
   46CHL1  H19C 5853   2.315   4.550   9.734  0.0770 -2.2065  0.2881
   46CHL1    C1 5854   2.287   4.821   9.666 -0.1941  0.4115  0.4409
   46CHL1   H1A 5855   2.379   4.800   9.606  1.3081  3.8318  1.3262
   46CHL1   H1B 5856   2.247   4.921   9.641 -2.8398 -0.6640  0.0357
   46CHL1    C2 5857   2.324   4.832   9.813  0.6747 -0.4220  0.0081
   46CHL1   H2A 5858   2.386   4.923   9.826  0.4083 -0.0469 -1.2172
   46CHL1   H2B 5859   2.403   4.758   9.837  1.4403 -0.1029 -1.4351
   46CHL1   C20 5860   2.034   4.639   8.948 -0.6636 -0.5978 -0.4698
   46CHL1   H20 5861   2.076   4.538   8.968  0.2621 -0.2440 -0.5491
   46CHL1   C21 5862   2.156   4.726   8.897 -0.3791 -0.1318 -0.3888
   46CHL1  H21A 5863   2.239   4.715   8.970 -0.9654 -1.8204  0.0664
   46CHL1  H21B 5864   2.134   4.833   8.875  1.7210  0.4885  0.3211
   46CHL1  H21C 5865   2.202   4.687   8.804  0.1507  1.7629 -0.9493
   46CHL1   C22 5866   1.939   4.621   8.831 -0.4112  0.3529 -0.1775
   46CHL1  H22A 5867   1.867   4.542   8.862  1.1001 -0.2456  2.0562
   46CHL1  H22B 5868   1.877   4.712   8.819  1.5823  1.6375 -1.0796
   46CHL1   C23 5869   2.010   4.592   8.694  0.3970 -0.1008 -0.0179
   46CHL1  H23A 5870   2.046   4.692   8.660 -0.5578  0.4891  0.6680
   46CHL1  H23B 5871   2.094   4.523   8.720 -0.9652 -1.2666  1.4671
   46CHL1   C24 5872   1.909   4.535   8.595  0.6868 -0.7643  0.3095
   46CHL1  H24A 5873   1.859   4.444   8.634 -1.6243  0.0882 -0.5010
   46CHL1  H24B 5874   1.834   4.616   8.578  0.7877 -0.9470 -1.0973
   46CHL1   C25 5875   1.968   4.487   8.467 -0.0141 -0.7774  0.4212
   46CHL1   H25 5876   2.052   4.419   8.492  1.7597  1.5422  1.0943
   46CHL1   C26 5877   1.863   4.424   8.377 -0.5850  0.4951 -0.9105
   46CHL1  H26A 5878   1.774   4.488   8.358 -0.2639  1.4819  0.6651
   46CHL1  H26B 5879   1.916   4.406   8.282 -0.5232  2.5192 -1.2963
   46CHL1  H26C 5880   1.831   4.330   8.427 -2.1078  1.6102  0.3509
   46CHL1   C27 5881   2.038   4.607   8.393 -0.2834 -0.2171 -0.0923
   46CHL1  H27A 5882   2.070   4.584   8.289  0.8437  0.3558  0.1079
   46CHL1  H27B 5883   1.973   4.697   8.384 -2.3285 -1.5112  1.0312
   46CHL1  H27C 5884   2.131   4.624   8.451  0.1475 -2.3741 -0.0748
   47CHL1    C3 5885   2.957   6.287   9.969 -0.1290 -0.2752 -0.0347
   47CHL1    H3 5886   2.936   6.186   9.927 -0.4885  0.4015 -1.5415
   47CHL1    O3 5887   3.032   6.272  10.090 -0.9384 -0.2099 -0.4674
   47CHL1   H3' 5888   3.088   6.349  10.099 -1.7223  0.4893 -1.3562
   47CHL1    C4 5889   3.042   6.367   9.868 -0.5032 -0.4720 -0.0158
   47CHL1   H4A 5890   3.082   6.456   9.921 -0.9062 -1.1927  1.5642
   47CHL1   H4B 5891   3.137   6.317   9.843  1.5443  2.6458  0.9028
   47CHL1    C5 5892   2.955   6.400   9.748  0.4999  0.0529  0.8645
   47CHL1    C6 5893   3.000   6.367   9.627 -0.4167 -0.7161  0.0185
   47CHL1    H6 5894   3.104   6.332   9.631  1.1435  3.4208  0.4869
   47CHL1    C7 5895   2.927   6.392   9.498 -0.6808 -0.1648  0.1909
   47CHL1   H7A 5896   3.002   6.426   9.423  1.4101  0.8313  2.5822
   47CHL1   H7B 5897   2.893   6.295   9.457 -1.5791  0.1286  0.2327
   47CHL1    C8 5898   2.810   6.490   9.515  0.6250 -0.0861  0.3968
   47CHL1    H8 5899   2.850   6.594   9.512  1.8315 -0.5538 -0.3508
   47CHL1   C14 5900   2.715   6.461   9.401 -1.0440 -0.4826  0.4761
   47CHL1   H14 5901   2.682   6.355   9.404 -0.7651 -0.6391 -0.9255
   47CHL1   C15 5902   2.773   6.471   9.251 -0.5484 -0.0032 -0.2379
   47CHL1  H15A 5903   2.844   6.557   9.239  0.1912 -1.0047 -5.6700
   47CHL1  H15B 5904   2.830   6.384   9.214  0.8228  0.8135 -0.1339
   47CHL1   C16 5905   2.647   6.505   9.166  0.3670  0.2263  0.2248
   47CHL1  H16A 5906   2.651   6.611   9.135 -2.4402  0.2411 -0.3209
   47CHL1  H16B 5907   2.634   6.441   9.076 -0.0793 -0.7985  0.9899
   47CHL1   C17 5908   2.524   6.487   9.263  0.1931  0.2187 -0.5215
   47CHL1   H17 5909   2.520   6.378   9.285 -0.9931  0.4690  0.6456
   47CHL1   C13 5910   2.586   6.544   9.392  0.3916  0.3152  0.0929
   47CHL1   C18 5911   2.614   6.702   9.390 -0.4395 -0.3239 -0.2231
   47CHL1  H18A 5912   2.650   6.753   9.482  1.0574 -0.8120 -0.5147
   47CHL1  H18B 5913   2.693   6.726   9.316 -0.0565  1.5440  0.7174
   47CHL1  H18C 5914   2.526   6.768   9.369  0.6110  1.5782  1.0188
   47CHL1   C12 5915   2.513   6.509   9.520  0.3268  0.1604 -0.4362
   47CHL1  H12A 5916   2.419   6.567   9.523  0.2885  0.0616  1.7708
   47CHL1  H12B 5917   2.487   6.401   9.533  1.4103  0.0813  1.3289
   47CHL1   C11 5918   2.594   6.537   9.646 -0.8475  0.3176  0.4919
   47CHL1  H11A 5919   2.603   6.646   9.662 -0.0377 -0.0032  2.4941
   47CHL1  H11B 5920   2.543   6.501   9.737  1.9530 -0.9674  1.6842
   47CHL1    C9 5921   2.729   6.467   9.642 -0.1230  0.3801  0.4112
   47CHL1    H9 5922   2.701   6.360   9.633 -1.0770  0.7060 -0.7745
   47CHL1   C10 5923   2.817   6.466   9.773  0.7574  0.2484  0.0053
   47CHL1   C19 5924   2.832   6.614   9.815 -0.3634  0.1882  0.3320
   47CHL1  H19A 5925   2.874   6.681   9.737  0.7696  1.1553  1.7214
   47CHL1  H19B 5926   2.733   6.647   9.853 -1.1148 -2.2379  0.5951
   47CHL1  H19C 5927   2.887   6.631   9.910 -1.2218  0.9020  0.7173
   47CHL1    C1 5928   2.740   6.383   9.877  0.1604 -0.1526  0.2231
   47CHL1   H1A 5929   2.641   6.422   9.908  0.6923  0.6974  0.8956
   47CHL1   H1B 5930   2.714   6.279   9.848  0.6590  0.0761 -1.1368
   47CHL1    C2 5931   2.824   6.361  10.005 -0.1409 -0.0064  0.5425
   47CHL1   H2A 5932   2.768   6.296  10.076  0.0761  0.5722  1.2531
   47CHL1   H2B 5933   2.837   6.460  10.054  0.3943  0.2223 -0.0606
   47CHL1   C20 5934   2.382   6.531   9.220 -0.8062 -0.2858 -0.0386
   47CHL1   H20 5935   2.340   6.578   9.310  1.0914 -0.5627  1.0439
   47CHL1   C21 5936   2.292   6.411   9.192 -0.7492 -0.8973  0.1488
   47CHL1  H21A 5937   2.330   6.351   9.107  3.7594  0.5539  0.8320
   47CHL1  H21B 5938   2.189   6.451   9.184 -0.4209  0.2061  1.0829
   47CHL1  H21C 5939   2.300   6.334   9.271 -0.7401  0.8713  1.9387
   47CHL1   C22 5940   2.382   6.638   9.107 -0.4807 -1.0683  0.9622
   47CHL1  H22A 5941   2.468   6.706   9.126  1.1114 -2.6331 -0.2859
   47CHL1  H22B 5942   2.396   6.586   9.009 -1.0323  0.7512 -0.1274
   47CHL1   C23 5943   2.246   6.721   9.104  0.7919  0.6202 -0.1572
   47CHL1  H23A 5944   2.149   6.665   9.103 -0.3172  2.1095  3.9674
   47CHL1  H23B 5945   2.236   6.783   9.195  0.5417 -1.0969  1.0300
   47CHL1   C24 5946   2.244   6.815   8.984  0.5881  0.1936  0.4447
   47CHL1  H24A 5947   2.144   6.863   8.969  0.4793 -0.7465 -2.3738
   47CHL1  H24B 5948   2.315   6.897   9.008  0.0789  1.0204 -0.7248
   47CHL1   C25 5949   2.286   6.767   8.841 -0.4956  0.2325  0.6842
   47CHL1   H25 5950   2.393   6.739   8.839 -0.8580 -1.2256  0.2079
   47CHL1   C26 5951   2.203   6.645   8.793 -0.0677  0.4153  0.2735
   47CHL1  H26A 5952   2.246   6.604   8.699  0.5440  2.4577 -0.4091
   47CHL1  H26B 5953   2.102   6.685   8.770 -0.3448  1.5312  3.0276
   47CHL1  H26C 5954   2.184   6.570   8.872 -0.2805 -0.1806 -0.3386
   47CHL1   C27 5955   2.267   6.880   8.739 -0.3752 -0.1911 -0.0818
   47CHL1  H27A 5956   2.161   6.902   8.715 -0.3986 -1.4659 -1.3185
   47CHL1  H27B 5957   2.333   6.968   8.755  0.0464 -0.3077 -1.0826
   47CHL1  H27C 5958   2.295   6.848   8.636  1.0514 -0.9200  0.4960
   48CHL1    C3 5959   2.326   2.450   9.930 -0.1562 -0.2772 -0.8201
   48CHL1    H3 5960   2.248   2.529   9.930  1.0687  0.9806  0.8403
   48CHL1    O3 5961   2.350   2.408  10.057 -0.2775 -0.4171 -0.6164
   48CHL1   H3' 5962   2.446   2.404  10.066 -0.3357  1.7783  4.8506
   48CHL1    C4 5963   2.289   2.333   9.843  0.4828  0.1178  0.2814
   48CHL1   H4A 5964   2.367   2.256   9.860 -0.3114 -0.4709  1.3966
   48CHL1   H4B 5965   2.197   2.283   9.881  0.1208 -0.6280 -1.4593
   48CHL1    C5 5966   2.285   2.370   9.692 -0.1954  0.9844  0.1886
   48CHL1    C6 5967   2.177   2.340   9.623 -0.2030 -0.1625  0.0662
   48CHL1    H6 5968   2.100   2.282   9.674 -0.9012  0.8235  0.1676
   48CHL1    C7 5969   2.152   2.367   9.475  0.0953 -0.0302 -0.0801
   48CHL1   H7A 5970   2.112   2.276   9.426  0.5476  0.5986 -1.6901
   48CHL1   H7B 5971   2.090   2.456   9.451  0.3125  0.8826  2.4297
   48CHL1    C8 5972   2.291   2.394   9.401 -0.2018  0.4183  0.1063
   48CHL1    H8 5973   2.341   2.295   9.394 -1.3531 -0.1154 -0.8769
   48CHL1   C14 5974   2.275   2.445   9.260  0.9310  0.5494  0.1183
   48CHL1   H14 5975   2.216   2.539   9.268 -2.2946 -1.2059 -0.9221
   48CHL1   C15 5976   2.191   2.373   9.160  0.1225  0.2082 -0.3077
   48CHL1  H15A 5977   2.230   2.269   9.152  1.8452  0.9230 -1.7129
   48CHL1  H15B 5978   2.081   2.368   9.177  0.1918 -0.2041  0.0403
   48CHL1   C16 5979   2.226   2.439   9.029 -0.4071  0.1659  0.0458
   48CHL1  H16A 5980   2.255   2.363   8.953 -1.8515 -0.4385  0.0603
   48CHL1  H16B 5981   2.147   2.503   8.984  0.5911  0.8864 -0.7430
   48CHL1   C17 5982   2.343   2.536   9.045  0.3658  0.4271 -0.4893
   48CHL1   H17 5983   2.304   2.639   9.061 -2.7213 -0.7199  0.1074
   48CHL1   C13 5984   2.401   2.486   9.171  0.4942  0.0924  0.1160
   48CHL1   C18 5985   2.483   2.360   9.143  0.2290 -0.2703  0.1065
   48CHL1  H18A 5986   2.524   2.330   9.241  0.0077 -1.1728 -0.0657
   48CHL1  H18B 5987   2.423   2.273   9.107 -2.7974  0.6757  2.3733
   48CHL1  H18C 5988   2.578   2.382   9.091  0.5863  0.1718  0.9262
   48CHL1   C12 5989   2.474   2.586   9.259  0.2736  0.6175 -0.3685
   48CHL1  H12A 5990   2.564   2.623   9.206 -0.4360  1.1422 -1.2325
   48CHL1  H12B 5991   2.401   2.670   9.257 -2.0359 -1.2861 -2.9088
   48CHL1   C11 5992   2.503   2.547   9.407 -0.1490 -0.5849 -0.0794
   48CHL1  H11A 5993   2.582   2.472   9.384 -0.9836 -1.0731 -1.5211
   48CHL1  H11B 5994   2.541   2.637   9.459  1.4895 -0.1765 -1.8384
   48CHL1    C9 5995   2.386   2.488   9.486  0.8983  0.0330  0.4729
   48CHL1    H9 5996   2.317   2.574   9.501  2.4689  1.0779  2.0515
   48CHL1   C10 5997   2.403   2.441   9.634 -0.4254 -0.0812  0.3347
   48CHL1   C19 5998   2.534   2.352   9.624  0.8043 -0.8499  0.0055
   48CHL1  H19A 5999   2.629   2.409   9.622 -0.0875  0.7182 -2.0008
   48CHL1  H19B 6000   2.544   2.281   9.708  0.1352 -0.7568  0.1709
   48CHL1  H19C 6001   2.529   2.305   9.524 -0.2379 -1.7953  0.4825
   48CHL1    C1 6002   2.424   2.558   9.728  0.1065  0.0817 -0.1014
   48CHL1   H1A 6003   2.510   2.622   9.699 -0.6457  2.7256  2.9131
   48CHL1   H1B 6004   2.341   2.631   9.741  0.5369  0.9047 -1.6950
   48CHL1    C2 6005   2.452   2.513   9.882  0.1567 -0.2931  0.3799
   48CHL1   H2A 6006   2.466   2.602   9.947  0.6082 -0.5994  0.7107
   48CHL1   H2B 6007   2.537   2.441   9.890 -1.4854 -2.5876 -1.4862
   48CHL1   C20 6008   2.428   2.552   8.913 -0.5654 -0.2174  0.0717
   48CHL1   H20 6009   2.448   2.450   8.876 -1.0514  0.0697 -1.0272
   48CHL1   C21 6010   2.563   2.615   8.942  0.2590  0.5298 -0.9737
   48CHL1  H21A 6011   2.613   2.637   8.845 -0.2378  0.7343 -1.1859
   48CHL1  H21B 6012   2.620   2.544   9.007 -2.5921 -0.6694  0.4113
   48CHL1  H21C 6013   2.541   2.716   8.982 -0.0172  0.2196 -0.3240
   48CHL1   C22 6014   2.347   2.623   8.802 -0.5407  0.1381 -0.1043
   48CHL1  H22A 6015   2.254   2.564   8.792 -3.5095  4.3224  0.1616
   48CHL1  H22B 6016   2.322   2.728   8.828  1.2044  0.5959 -0.1593
   48CHL1   C23 6017   2.423   2.632   8.675 -0.5963 -0.4419  0.1463
   48CHL1  H23A 6018   2.509   2.702   8.677 -0.9852  0.0287  1.6281
   48CHL1  H23B 6019   2.468   2.531   8.664 -0.7719 -0.4881 -0.1615
   48CHL1   C24 6020   2.353   2.648   8.547  0.0661  0.1864  0.2222
   48CHL1  H24A 6021   2.419   2.633   8.459 -1.1990 -1.2302 -0.5276
   48CHL1  H24B 6022   2.276   2.569   8.541 -0.7146  0.5503  3.2955
   48CHL1   C25 6023   2.299   2.791   8.534  0.2922  0.6732 -0.3506
   48CHL1   H25 6024   2.241   2.813   8.626 -2.2619 -0.3698 -1.6209
   48CHL1   C26 6025   2.406   2.905   8.510  0.3753  0.1243 -0.1300
   48CHL1  H26A 6026   2.465   2.874   8.422  0.5073 -2.0906  0.6561
   48CHL1  H26B 6027   2.345   2.998   8.506 -0.1486 -0.1126  1.3842
   48CHL1  H26C 6028   2.475   2.906   8.598 -0.1983  1.0717  0.3209
   48CHL1   C27 6029   2.204   2.800   8.412 -0.2770 -1.0676 -0.3935
   48CHL1  H27A 6030   2.121   2.727   8.407 -0.3711 -0.9565 -0.4817
   48CHL1  H27B 6031   2.160   2.902   8.398 -0.1466 -0.8768  0.4905
   48CHL1  H27C 6032   2.273   2.793   8.326 -0.7914  2.3252 -1.2400
   49CHL1    C3 6033   1.822   3.577  10.007 -0.2170 -0.0496  0.3856
   49CHL1    H3 6034   1.857   3.667   9.950  1.8741 -0.3491  1.1092
   49CHL1    O3 6035   1.785   3.611  10.136  0.3250 -0.5036 -0.3687
   49CHL1   H3' 6036   1.770   3.527  10.179  2.9534 -0.5189  0.6411
   49CHL1    C4 6037   1.704   3.515   9.938 -0.1504 -0.8753  0.9376
   49CHL1   H4A 6038   1.675   3.425   9.997 -1.6598 -0.2245  1.2294
   49CHL1   H4B 6039   1.617   3.583   9.941  3.0117  3.6566  0.0016
   49CHL1    C5 6040   1.740   3.470   9.795 -0.3339 -0.7166 -0.0921
   49CHL1    C6 6041   1.675   3.514   9.686 -0.3079  0.3758 -0.5366
   49CHL1    H6 6042   1.594   3.587   9.697 -0.2296  0.4551 -0.4819
   49CHL1    C7 6043   1.697   3.448   9.555  0.1714 -0.5192  0.0142
   49CHL1   H7A 6044   1.600   3.406   9.521  0.4193 -1.5406  0.5295
   49CHL1   H7B 6045   1.738   3.522   9.484 -2.2567 -0.4158 -1.3901
   49CHL1    C8 6046   1.795   3.329   9.554 -0.2396  0.3436  0.3538
   49CHL1    H8 6047   1.726   3.248   9.586 -2.8193  2.5913  0.9261
   49CHL1   C14 6048   1.857   3.311   9.416 -0.5010  0.3795  0.5908
   49CHL1   H14 6049   1.923   3.397   9.390  0.9996 -0.8481  0.2393
   49CHL1   C15 6050   1.754   3.312   9.299 -0.7454  0.4363  0.0322
   49CHL1  H15A 6051   1.671   3.248   9.336  0.2388 -0.6124  0.5081
   49CHL1  H15B 6052   1.731   3.416   9.270  1.4885  1.2619  0.9748
   49CHL1   C16 6053   1.827   3.232   9.185  0.3373  0.1446  0.4710
   49CHL1  H16A 6054   1.761   3.146   9.162  0.5909  0.2261 -0.5932
   49CHL1  H16B 6055   1.848   3.292   9.094  0.7113 -0.6077  0.0445
   49CHL1   C17 6056   1.960   3.175   9.246  0.0102  0.2398  0.0345
   49CHL1   H17 6057   2.039   3.249   9.225 -0.9012  1.9122  2.1407
   49CHL1   C13 6058   1.936   3.181   9.397 -0.1793 -0.5063 -0.9388
   49CHL1   C18 6059   1.853   3.058   9.439 -0.4522  0.9559  0.4536
   49CHL1  H18A 6060   1.904   2.964   9.411 -1.6881  0.4289 -0.0908
   49CHL1  H18B 6061   1.829   3.060   9.547  0.2741  0.1466  0.6346
   49CHL1  H18C 6062   1.756   3.047   9.386 -0.1135 -0.0588  0.0252
   49CHL1   C12 6063   2.056   3.210   9.490  0.1277 -0.6627  0.3822
   49CHL1  H12A 6064   2.104   3.110   9.492 -0.4460 -0.9429  1.9606
   49CHL1  H12B 6065   2.126   3.285   9.448 -0.5401 -0.8235 -1.0804
   49CHL1   C11 6066   2.018   3.245   9.635 -0.5461 -0.5233 -0.1973
   49CHL1  H11A 6067   1.978   3.147   9.669  0.5297 -0.1241  2.3886
   49CHL1  H11B 6068   2.112   3.282   9.680  1.2648  0.9933 -4.6796
   49CHL1    C9 6069   1.908   3.350   9.651 -0.5194  0.7058  0.0376
   49CHL1    H9 6070   1.957   3.442   9.615  1.2342 -0.0967  0.2803
   49CHL1   C10 6071   1.860   3.372   9.796  0.4563  0.5863 -0.0344
   49CHL1   C19 6072   1.807   3.242   9.853  0.1505  0.5761  0.1064
   49CHL1  H19A 6073   1.780   3.253   9.960 -1.8799  0.2962 -0.3330
   49CHL1  H19B 6074   1.714   3.207   9.803  0.0648 -2.2937  2.0629
   49CHL1  H19C 6075   1.878   3.158   9.840  1.4766  1.6383  0.2324
   49CHL1    C1 6076   1.980   3.416   9.885  0.9722  1.0431 -0.0132
   49CHL1   H1A 6077   2.049   3.334   9.910  0.3428  1.0556  1.9542
   49CHL1   H1B 6078   2.033   3.497   9.830  1.4747  0.6600 -0.0972
   49CHL1    C2 6079   1.943   3.483  10.021  0.3263 -0.1835 -0.2911
   49CHL1   H2A 6080   2.032   3.535  10.064  0.3381  0.9948 -1.6712
   49CHL1   H2B 6081   1.920   3.393  10.081 -1.9704 -0.2983 -1.2382
   49CHL1   C20 6082   2.005   3.037   9.183  0.0521  0.2187 -0.8781
   49CHL1   H20 6083   1.927   2.963   9.213  0.1765 -0.3193 -1.8239
   49CHL1   C21 6084   2.123   2.983   9.266  0.2148  0.5172 -0.0379
   49CHL1  H21A 6085   2.163   2.893   9.215  0.3638  1.3917 -1.5218
   49CHL1  H21B 6086   2.097   2.941   9.366  2.0758 -1.0526 -0.1549
   49CHL1  H21C 6087   2.199   3.064   9.264 -1.7154  2.4104 -0.9832
   49CHL1   C22 6088   2.026   3.038   9.033 -0.1489 -0.1214  0.1895
   49CHL1  H22A 6089   2.056   2.939   8.991 -1.5209  0.7734 -3.1519
   49CHL1  H22B 6090   1.926   3.054   8.987 -1.4229 -0.7726  2.5352
   49CHL1   C23 6091   2.129   3.143   8.989  0.0990  0.9268  1.0133
   49CHL1  H23A 6092   2.100   3.248   9.011 -0.5005  1.3266 -1.3824
   49CHL1  H23B 6093   2.229   3.121   9.033  0.0255  1.3259  1.3919
   49CHL1   C24 6094   2.133   3.133   8.836  0.5333  0.7697 -0.5302
   49CHL1  H24A 6095   2.182   3.036   8.810 -0.8981 -0.5676  1.5259
   49CHL1  H24B 6096   2.031   3.138   8.793  1.2069  1.6905 -2.1284
   49CHL1   C25 6097   2.209   3.247   8.770  0.4241  0.0624 -0.1512
   49CHL1   H25 6098   2.202   3.350   8.812  0.0101  0.0956 -0.2961
   49CHL1   C26 6099   2.361   3.219   8.772  0.1157  0.1582 -0.3326
   49CHL1  H26A 6100   2.392   3.140   8.700 -1.4449  1.0253 -2.0428
   49CHL1  H26B 6101   2.417   3.312   8.747 -0.3744 -0.1384 -2.8078
   49CHL1  H26C 6102   2.388   3.190   8.875 -0.5941 -0.9982 -0.4541
   49CHL1   C27 6103   2.163   3.262   8.621 -0.0209 -0.2199 -0.1910
   49CHL1  H27A 6104   2.221   3.347   8.580  0.8808 -1.0679 -0.7174
   49CHL1  H27B 6105   2.183   3.167   8.567  1.5573  0.2198 -0.4463
   49CHL1  H27C 6106   2.055   3.288   8.626  0.2160  0.6136  0.8600
   50CHL1    C3 6107   6.220   3.790  10.060 -0.0778  0.0068  0.3578
   50CHL1    H3 6108   6.282   3.703  10.092  1.6002  1.6137  1.6699
   50CHL1    O3 6109   6.144   3.843  10.169 -0.6789 -0.2111  0.8694
   50CHL1   H3' 6110   6.121   3.762  10.216  3.5738 -1.9871  0.3770
   50CHL1    C4 6111   6.309   3.896  10.000 -0.3490 -0.9472 -0.4394
   50CHL1   H4A 6112   6.263   3.992   9.970 -0.5212 -1.0231 -0.4182
   50CHL1   H4B 6113   6.381   3.921  10.080 -2.7459 -0.6690  1.7506
   50CHL1    C5 6114   6.380   3.844   9.872  0.6429  0.5599 -0.1881
   50CHL1    C6 6115   6.508   3.839   9.864 -0.3957 -0.0080 -0.1553
   50CHL1    H6 6116   6.574   3.881   9.942  0.8751 -0.2460 -1.0598
   50CHL1    C7 6117   6.580   3.803   9.734  0.3944 -0.3904 -0.1634
   50CHL1   H7A 6118   6.665   3.872   9.717 -0.4378  0.7092  0.0788
   50CHL1   H7B 6119   6.619   3.699   9.737 -1.1629 -1.0048 -0.3850
   50CHL1    C8 6120   6.485   3.808   9.610  0.3945 -0.3371 -0.8809
   50CHL1    H8 6121   6.461   3.914   9.586  1.3786  0.3995  1.1826
   50CHL1   C14 6122   6.545   3.763   9.481 -0.9758  0.8391  0.5839
   50CHL1   H14 6123   6.579   3.658   9.496 -1.5668  0.4375 -0.7508
   50CHL1   C15 6124   6.663   3.838   9.424 -0.1625 -0.0270  0.2583
   50CHL1  H15A 6125   6.641   3.947   9.429 -0.6468 -0.1214  0.2116
   50CHL1  H15B 6126   6.757   3.821   9.481  0.3755 -1.8059 -1.0553
   50CHL1   C16 6127   6.685   3.784   9.281 -0.5310  0.3841 -0.1669
   50CHL1  H16A 6128   6.696   3.869   9.211  0.9688 -1.6866 -2.6870
   50CHL1  H16B 6129   6.779   3.723   9.277 -1.2809 -0.7613 -1.2613
   50CHL1   C17 6130   6.564   3.701   9.255  0.6293 -0.5296  0.3609
   50CHL1   H17 6131   6.591   3.595   9.269  0.4787 -0.6463 -0.1859
   50CHL1   C13 6132   6.459   3.742   9.359  0.6750 -0.2571  0.4659
   50CHL1   C18 6133   6.399   3.877   9.319  0.2257 -0.0587 -0.2244
   50CHL1  H18A 6134   6.334   3.855   9.232  1.2357  0.2198 -1.0717
   50CHL1  H18B 6135   6.324   3.916   9.391 -0.0265 -1.0534  0.0821
   50CHL1  H18C 6136   6.466   3.959   9.288 -1.1981  1.9145  1.6174
   50CHL1   C12 6137   6.351   3.638   9.399 -0.3975 -0.5096 -0.2081
   50CHL1  H12A 6138   6.284   3.617   9.313  0.6566 -1.8502 -0.7418
   50CHL1  H12B 6139   6.404   3.543   9.424 -0.0756 -0.2966 -0.0763
   50CHL1   C11 6140   6.269   3.683   9.515 -0.5452  0.3741  0.0287
   50CHL1  H11A 6141   6.211   3.775   9.494 -0.4080  1.0808  2.4583
   50CHL1  H11B 6142   6.213   3.597   9.558  1.3243 -0.6654  0.4979
   50CHL1    C9 6143   6.364   3.720   9.639  0.2373  0.0478 -0.3257
   50CHL1    H9 6144   6.390   3.621   9.683 -1.3813 -0.9673 -1.5219
   50CHL1   C10 6145   6.283   3.782   9.761 -0.0819  0.1550  0.6936
   50CHL1   C19 6146   6.215   3.915   9.708 -0.2601  0.3037 -0.0975
   50CHL1  H19A 6147   6.148   3.962   9.783  0.2395  0.4402  0.2678
   50CHL1  H19B 6148   6.293   3.990   9.682  1.1983 -0.9502  0.4933
   50CHL1  H19C 6149   6.140   3.907   9.626 -0.9671  1.4175  0.4195
   50CHL1    C1 6150   6.178   3.688   9.827  0.9628  0.3415  0.4508
   50CHL1   H1A 6151   6.095   3.658   9.759  0.9825 -3.0552  1.7428
   50CHL1   H1B 6152   6.237   3.600   9.860  1.6369  0.7263  0.2773
   50CHL1    C2 6153   6.116   3.736   9.957 -0.1193  0.0613  0.0761
   50CHL1   H2A 6154   6.051   3.657  10.001 -1.0581 -0.2476 -1.7718
   50CHL1   H2B 6155   6.050   3.822   9.931 -2.0155 -1.7511 -1.4061
   50CHL1   C20 6156   6.522   3.706   9.104  0.5520 -0.1736 -0.3939
   50CHL1   H20 6157   6.512   3.812   9.071 -1.2153 -0.4722 -0.9130
   50CHL1   C21 6158   6.383   3.635   9.070 -0.9807  0.3058  0.7978
   50CHL1  H21A 6159   6.375   3.646   8.959 -0.8600 -0.6668  0.6838
   50CHL1  H21B 6160   6.298   3.687   9.119 -1.6279 -0.5163  0.5781
   50CHL1  H21C 6161   6.385   3.529   9.102  0.9585  0.3278  0.8328
   50CHL1   C22 6162   6.627   3.641   9.019 -0.1042  0.5959  0.3203
   50CHL1  H22A 6163   6.730   3.674   9.042  0.4598 -1.1869  0.5214
   50CHL1  H22B 6164   6.629   3.531   9.034 -0.8191  0.6918  1.1624
   50CHL1   C23 6165   6.638   3.660   8.871  0.0002 -0.3069  0.2904
   50CHL1  H23A 6166   6.547   3.623   8.819  0.8794  1.2917 -2.5963
   50CHL1  H23B 6167   6.640   3.767   8.842 -0.8517 -0.1088  0.9324
   50CHL1   C24 6168   6.766   3.586   8.810  0.2500  0.2370  0.3521
   50CHL1  H24A 6169   6.863   3.626   8.848  0.3943 -1.5335  1.9777
   50CHL1  H24B 6170   6.753   3.480   8.840  0.9933 -1.1303 -3.5368
   50CHL1   C25 6171   6.775   3.584   8.653  0.2571  0.1936  0.1778
   50CHL1   H25 6172   6.865   3.526   8.625 -1.2486 -1.8777 -0.6165
   50CHL1   C26 6173   6.663   3.507   8.585  0.0382  0.1532  0.0280
   50CHL1  H26A 6174   6.673   3.506   8.475  0.2244  3.9205 -0.1096
   50CHL1  H26B 6175   6.651   3.403   8.623 -2.0423  0.2657 -0.1800
   50CHL1  H26C 6176   6.572   3.567   8.607 -0.1152 -0.1409  0.2137
   50CHL1   C27 6177   6.780   3.722   8.587 -0.3003 -0.2235  0.2935
   50CHL1  H27A 6178   6.690   3.775   8.624 -0.4293 -1.2597  1.5339
   50CHL1  H27B 6179   6.872   3.773   8.624  0.9393 -1.4944 -0.9147
   50CHL1  H27C 6180   6.785   3.715   8.476  1.4579  2.6260  0.0955
   51CHL1    C3 6181   4.987   1.358   9.987  0.1609 -0.4149  0.3729
   51CHL1    H3 6182   5.052   1.447  10.003  1.1404 -0.8122 -1.2065
   51CHL1    O3 6183   4.962   1.296  10.110 -0.7864  0.1314 -0.2825
   51CHL1   H3' 6184   4.904   1.350  10.166  0.4398  0.0782  1.0968
   51CHL1    C4 6185   4.851   1.381   9.918  0.6635 -0.2574 -0.0285
   51CHL1   H4A 6186   4.790   1.288   9.912 -0.4607  0.5527 -2.0685
   51CHL1   H4B 6187   4.783   1.447   9.975  0.0063 -0.8226 -0.1353
   51CHL1    C5 6188   4.877   1.439   9.777  0.5173 -0.5112 -0.4934
   51CHL1    C6 6189   4.824   1.556   9.734 -0.2367  0.2193  0.6125
   51CHL1    H6 6190   4.745   1.586   9.803  0.0460  0.2047  0.9449
   51CHL1    C7 6191   4.838   1.620   9.597  0.2629  0.2390 -0.2414
   51CHL1   H7A 6192   4.738   1.653   9.563  0.2271  0.8662  0.4286
   51CHL1   H7B 6193   4.906   1.708   9.597 -0.0487  0.4865  0.4514
   51CHL1    C8 6194   4.894   1.514   9.497 -0.4872 -0.1370  0.7378
   51CHL1    H8 6195   4.818   1.438   9.471  0.9308 -1.5982  0.7288
   51CHL1   C14 6196   4.939   1.577   9.363  0.1063  0.3719 -0.2256
   51CHL1   H14 6197   5.015   1.648   9.402 -0.7535  0.2552  1.8272
   51CHL1   C15 6198   4.836   1.670   9.294  0.5500  0.2170  1.1994
   51CHL1  H15A 6199   4.736   1.622   9.286  0.0662  1.4681 -1.1327
   51CHL1  H15B 6200   4.826   1.769   9.342  0.5692  1.6538 -1.5531
   51CHL1   C16 6201   4.897   1.689   9.154 -0.1035 -0.2069  0.6428
   51CHL1  H16A 6202   4.827   1.673   9.069  0.5193 -1.9371  0.4088
   51CHL1  H16B 6203   4.921   1.797   9.148 -0.3055 -0.1851  0.1719
   51CHL1   C17 6204   5.020   1.594   9.149 -0.8088  0.5691  0.5453
   51CHL1   H17 6205   5.105   1.649   9.194  0.1782 -1.8411  1.7445
   51CHL1   C13 6206   4.998   1.484   9.254  0.1209  0.7230 -0.6398
   51CHL1   C18 6207   4.886   1.388   9.205  0.6589  0.7114  0.2255
   51CHL1  H18A 6208   4.919   1.327   9.118  0.1795 -0.2342  0.6912
   51CHL1  H18B 6209   4.842   1.322   9.282 -1.0588  2.3355  0.6964
   51CHL1  H18C 6210   4.801   1.445   9.161 -0.4849 -1.6224 -0.7498
   51CHL1   C12 6211   5.120   1.408   9.315 -0.3354 -0.6880  0.6427
   51CHL1  H12A 6212   5.144   1.328   9.242 -0.9237 -0.0540 -0.2668
   51CHL1  H12B 6213   5.207   1.476   9.329  1.7143 -2.9327 -0.4648
   51CHL1   C11 6214   5.082   1.350   9.448 -1.4627 -0.1423  0.2024
   51CHL1  H11A 6215   5.005   1.277   9.415 -1.0151 -1.1949  1.3974
   51CHL1  H11B 6216   5.165   1.297   9.499 -0.9396  1.2846  0.9058
   51CHL1    C9 6217   5.012   1.433   9.556  0.5746 -0.1532 -0.3004
   51CHL1    H9 6218   5.083   1.510   9.593 -0.9869  1.4807 -0.5761
   51CHL1   C10 6219   4.973   1.362   9.688 -0.0167  0.4851 -0.2354
   51CHL1   C19 6220   4.893   1.227   9.650 -0.1469  0.3075  0.0726
   51CHL1  H19A 6221   4.962   1.173   9.581 -0.3377  1.8419 -1.3792
   51CHL1  H19B 6222   4.875   1.163   9.739  2.2885  0.5196  0.8161
   51CHL1  H19C 6223   4.806   1.262   9.591  0.6425  0.1151 -1.2346
   51CHL1    C1 6224   5.102   1.333   9.767 -0.5388 -0.0849  0.0585
   51CHL1   H1A 6225   5.166   1.263   9.710  0.4818  0.7350  0.1591
   51CHL1   H1B 6226   5.164   1.425   9.778 -0.0361 -0.3916 -0.1485
   51CHL1    C2 6227   5.073   1.264   9.905 -0.3238  1.1192  0.7750
   51CHL1   H2A 6228   5.169   1.236   9.954  1.0278  0.4360 -2.0374
   51CHL1   H2B 6229   5.026   1.164   9.893 -1.0144  1.3990  1.1420
   51CHL1   C20 6230   5.053   1.562   9.005 -0.3287 -0.5516 -0.5300
   51CHL1   H20 6231   4.967   1.511   8.957 -0.4482 -0.8067 -0.0592
   51CHL1   C21 6232   5.176   1.464   9.002 -0.4205  0.3391 -0.1950
   51CHL1  H21A 6233   5.216   1.456   8.899  0.1977  1.4320 -0.0454
   51CHL1  H21B 6234   5.146   1.362   9.036  0.3232 -0.5675 -2.1033
   51CHL1  H21C 6235   5.261   1.495   9.066 -2.3490  2.1016  1.6438
   51CHL1   C22 6236   5.099   1.687   8.915  0.1561 -0.2540  0.5534
   51CHL1  H22A 6237   5.041   1.778   8.944 -2.8994 -1.5721 -0.9710
   51CHL1  H22B 6238   5.204   1.714   8.940  0.8154 -1.2145 -1.0215
   51CHL1   C23 6239   5.096   1.660   8.761  0.1650 -0.5187 -0.1151
   51CHL1  H23A 6240   5.165   1.575   8.738 -1.8189 -2.3203  0.2696
   51CHL1  H23B 6241   4.993   1.626   8.740  0.1585 -1.0226  0.6744
   51CHL1   C24 6242   5.122   1.780   8.670  0.3077 -0.4896 -0.8371
   51CHL1  H24A 6243   5.033   1.847   8.666 -0.8217 -1.7468  1.1567
   51CHL1  H24B 6244   5.218   1.827   8.699  0.0444 -0.5723  0.2064
   51CHL1   C25 6245   5.147   1.741   8.518  0.8361 -0.3400 -0.1021
   51CHL1   H25 6246   5.240   1.682   8.509  0.5222 -0.8110 -0.3224
   51CHL1   C26 6247   5.023   1.677   8.451 -0.3402 -0.2967 -0.3933
   51CHL1  H26A 6248   4.930   1.735   8.466  0.1617  0.3794  0.1396
   51CHL1  H26B 6249   5.036   1.667   8.341  0.2033  0.4728 -0.4040
   51CHL1  H26C 6250   5.007   1.578   8.499  0.3304 -1.4531 -2.3745
   51CHL1   C27 6251   5.167   1.874   8.444  0.2034 -0.3175  0.3537
   51CHL1  H27A 6252   5.074   1.935   8.449  1.0149  0.9630  0.2168
   51CHL1  H27B 6253   5.247   1.938   8.488 -0.3621  0.4778  0.2374
   51CHL1  H27C 6254   5.197   1.860   8.338  1.0148  2.6466  0.1085
   52CHL1    C3 6255   3.226   6.758   9.802 -0.8598 -0.2030  0.4354
   52CHL1    H3 6256   3.144   6.687   9.822  0.0034 -1.1254  0.7952
   52CHL1    O3 6257   3.284   6.780   9.925  0.0174 -0.1064 -0.7463
   52CHL1   H3' 6258   3.218   6.817   9.983  1.7493 -0.0597  1.2946
   52CHL1    C4 6259   3.338   6.699   9.712  0.7601 -0.0069  0.3876
   52CHL1   H4A 6260   3.427   6.764   9.724  0.8773 -0.3069  1.2275
   52CHL1   H4B 6261   3.346   6.600   9.762 -2.1597 -0.4817  0.1071
   52CHL1    C5 6262   3.299   6.680   9.564  0.4027  0.5607  0.3224
   52CHL1    C6 6263   3.320   6.566   9.501  0.1898  0.3986  0.1181
   52CHL1    H6 6264   3.374   6.488   9.556  2.1611  1.2103 -0.5982
   52CHL1    C7 6265   3.299   6.531   9.355  0.6680 -0.0136  1.1509
   52CHL1   H7A 6266   3.394   6.494   9.311 -1.0676 -1.1309 -2.0103
   52CHL1   H7B 6267   3.228   6.445   9.351 -0.7788  1.1334  1.3046
   52CHL1    C8 6268   3.249   6.659   9.274 -0.2392  0.4265  0.2251
   52CHL1    H8 6269   3.336   6.719   9.239  0.9851 -1.1701  0.4446
   52CHL1   C14 6270   3.174   6.617   9.150 -0.7516  0.8513 -0.3562
   52CHL1   H14 6271   3.086   6.559   9.182 -0.8939  1.3483  0.1657
   52CHL1   C15 6272   3.251   6.511   9.066 -0.5518  0.4305  0.1651
   52CHL1  H15A 6273   3.357   6.542   9.052 -0.3515  0.3915  1.5155
   52CHL1  H15B 6274   3.236   6.410   9.109 -1.4806  0.7809  0.6964
   52CHL1   C16 6275   3.184   6.516   8.929  0.5138 -0.2972  0.0240
   52CHL1  H16A 6276   3.258   6.552   8.854  0.8447  1.8614  1.2906
   52CHL1  H16B 6277   3.135   6.422   8.897 -1.5878  0.3802  1.0606
   52CHL1   C17 6278   3.073   6.631   8.937 -0.9884 -0.5225 -0.0528
   52CHL1   H17 6279   2.981   6.575   8.963 -2.4600  1.0383 -1.6513
   52CHL1   C13 6280   3.121   6.724   9.055 -0.4119 -0.8581  0.4080
   52CHL1   C18 6281   3.238   6.812   8.998  0.5801 -0.0795 -0.0855
   52CHL1  H18A 6282   3.284   6.877   9.076 -1.1797  0.0787  0.8869
   52CHL1  H18B 6283   3.322   6.747   8.965  1.1747  0.7702 -0.2805
   52CHL1  H18C 6284   3.200   6.872   8.913  0.7940  1.9571  1.1759
   52CHL1   C12 6285   3.019   6.816   9.136  0.4481  0.7325  0.2799
   52CHL1  H12A 6286   2.981   6.903   9.079 -1.6688 -0.3385 -0.0503
   52CHL1  H12B 6287   2.934   6.752   9.167  0.3129  0.2969 -0.9320
   52CHL1   C11 6288   3.092   6.861   9.268  0.2833  0.3142  1.0167
   52CHL1  H11A 6289   3.163   6.943   9.245  0.0098 -0.3004 -2.5626
   52CHL1  H11B 6290   3.020   6.912   9.336 -0.0542  0.8940  0.2427
   52CHL1    C9 6291   3.162   6.750   9.354  0.1445  0.0219 -0.0991
   52CHL1    H9 6292   3.077   6.684   9.381  1.0785 -1.1849 -0.0546
   52CHL1   C10 6293   3.229   6.795   9.493  0.5011 -0.3326 -0.4688
   52CHL1   C19 6294   3.357   6.881   9.456 -0.2932  0.6698 -0.7368
   52CHL1  H19A 6295   3.449   6.860   9.514 -1.3818  0.0823  0.8340
   52CHL1  H19B 6296   3.378   6.862   9.349  1.0068 -2.2970 -0.0374
   52CHL1  H19C 6297   3.324   6.986   9.471 -1.0627  0.1510  1.6717
   52CHL1    C1 6298   3.138   6.875   9.592  0.3179 -0.1982 -0.4367
   52CHL1   H1A 6299   3.120   6.976   9.548  2.8140  0.0862 -0.9531
   52CHL1   H1B 6300   3.040   6.823   9.601 -0.3357  0.8785 -1.0549
   52CHL1    C2 6301   3.187   6.895   9.741  0.5720 -0.2415 -0.6649
   52CHL1   H2A 6302   3.111   6.951   9.801 -0.9401  0.4234 -3.0521
   52CHL1   H2B 6303   3.275   6.962   9.746  0.1289  0.2390  1.8324
   52CHL1   C20 6304   3.043   6.687   8.797 -0.9442  0.6706 -0.0937
   52CHL1   H20 6305   3.133   6.730   8.747 -1.3382  0.9318 -0.5822
   52CHL1   C21 6306   2.935   6.799   8.803 -0.2528 -0.1625  0.6592
   52CHL1  H21A 6307   2.910   6.824   8.697 -0.1954 -2.0313  0.1706
   52CHL1  H21B 6308   2.976   6.888   8.856 -0.6322  0.3838  0.0567
   52CHL1  H21C 6309   2.848   6.762   8.861 -1.8102  0.5641 -1.1113
   52CHL1   C22 6310   3.009   6.574   8.699  0.9529  0.2760 -0.8033
   52CHL1  H22A 6311   3.085   6.493   8.701  0.9100  0.2431 -0.3237
   52CHL1  H22B 6312   2.915   6.537   8.745  1.9606 -0.7198  0.5384
   52CHL1   C23 6313   2.985   6.625   8.557  0.2869 -0.4747  0.0486
   52CHL1  H23A 6314   2.890   6.682   8.553 -0.4336 -1.3794  2.6631
   52CHL1  H23B 6315   3.075   6.685   8.528  1.4152 -0.8499  2.5324
   52CHL1   C24 6316   2.980   6.515   8.452  0.2182 -0.5422  0.1678
   52CHL1  H24A 6317   3.066   6.449   8.475  0.3684 -0.4153 -0.0337
   52CHL1  H24B 6318   2.888   6.452   8.451 -2.0396  2.5250  1.2425
   52CHL1   C25 6319   3.010   6.569   8.312 -0.6501  0.2627 -0.5925
   52CHL1   H25 6320   3.118   6.590   8.296 -0.7319  1.4089  0.2361
   52CHL1   C26 6321   2.988   6.448   8.218  0.0379 -0.1195 -0.2953
   52CHL1  H26A 6322   3.026   6.350   8.253 -1.2987 -0.1160  1.2779
   52CHL1  H26B 6323   2.877   6.440   8.208 -0.3031  3.3390 -0.5158
   52CHL1  H26C 6324   3.023   6.474   8.116  0.3651  0.5910 -0.0062
   52CHL1   C27 6325   2.929   6.691   8.265  0.1552 -0.5703 -0.8119
   52CHL1  H27A 6326   2.953   6.775   8.333 -1.7497 -0.3093 -0.4138
   52CHL1  H27B 6327   2.965   6.730   8.168  0.5419  0.6824 -0.1783
   52CHL1  H27C 6328   2.820   6.670   8.268 -0.6371  2.9745  1.0273
   53CHL1    C3 6329   3.563   6.406   9.920  0.5925 -0.3718  0.4946
   53CHL1    H3 6330   3.492   6.478   9.875  0.4230 -1.1245 -0.4798
   53CHL1    O3 6331   3.576   6.414  10.062  0.8030 -0.3070  0.3176
   53CHL1   H3' 6332   3.597   6.323  10.087  0.4491 -0.6770 -0.6887
   53CHL1    C4 6333   3.505   6.272   9.883  0.0636 -0.6873 -0.6210
   53CHL1   H4A 6334   3.562   6.195   9.939  1.4969  0.5031 -0.3806
   53CHL1   H4B 6335   3.401   6.279   9.923  0.2947 -2.3693  0.3742
   53CHL1    C5 6336   3.509   6.241   9.732  0.2726  0.4202  0.4623
   53CHL1    C6 6337   3.392   6.217   9.663 -0.2446  0.1597 -0.3261
   53CHL1    H6 6338   3.305   6.201   9.728  0.5304 -0.2731  0.6446
   53CHL1    C7 6339   3.387   6.182   9.518 -0.0302 -0.1648 -0.1737
   53CHL1   H7A 6340   3.319   6.098   9.496  0.5191 -0.2026 -1.8666
   53CHL1   H7B 6341   3.349   6.271   9.463  0.5987 -1.0098 -2.0727
   53CHL1    C8 6342   3.525   6.164   9.453 -0.1085 -0.4107  0.2494
   53CHL1    H8 6343   3.556   6.062   9.484  0.1593 -0.7564 -1.1218
   53CHL1   C14 6344   3.510   6.170   9.303 -0.2709  0.0098  0.0454
   53CHL1   H14 6345   3.479   6.273   9.275 -1.6025 -0.7926 -1.6409
   53CHL1   C15 6346   3.402   6.074   9.247 -0.1718  0.6519  1.6793
   53CHL1  H15A 6347   3.420   5.972   9.288  0.8779 -0.2811 -0.8914
   53CHL1  H15B 6348   3.301   6.116   9.269 -0.7773  1.5199 -2.0446
   53CHL1   C16 6349   3.434   6.076   9.096  0.0106  0.5975 -0.0884
   53CHL1  H16A 6350   3.438   5.969   9.067  2.0966  0.5811  0.1013
   53CHL1  H16B 6351   3.343   6.117   9.048  1.1174  1.5107 -1.5218
   53CHL1   C17 6352   3.562   6.157   9.076 -0.7426 -0.5862 -0.9248
   53CHL1   H17 6353   3.541   6.265   9.063  0.9125 -0.4714 -3.3928
   53CHL1   C13 6354   3.632   6.151   9.218  0.7750  0.5334  0.0067
   53CHL1   C18 6355   3.691   6.014   9.239 -0.4065  0.6385 -0.4113
   53CHL1  H18A 6356   3.637   5.930   9.190 -0.6948  1.4871 -1.5848
   53CHL1  H18B 6357   3.798   6.008   9.208  0.4469 -2.3533  2.4189
   53CHL1  H18C 6358   3.700   5.990   9.347  0.0881 -2.9022 -1.1146
   53CHL1   C12 6359   3.731   6.261   9.268 -0.3522 -0.7862 -0.4821
   53CHL1  H12A 6360   3.831   6.241   9.224 -0.6542 -2.0523 -0.6407
   53CHL1  H12B 6361   3.699   6.365   9.245  2.4048  0.1748 -0.3441
   53CHL1   C11 6362   3.754   6.261   9.426  0.4368 -0.1789 -0.2757
   53CHL1  H11A 6363   3.809   6.165   9.435 -1.4143 -1.3727 -1.0968
   53CHL1  H11B 6364   3.816   6.351   9.446 -0.7411  0.3402  1.1938
   53CHL1    C9 6365   3.627   6.267   9.512  0.0336 -0.0414  0.4556
   53CHL1    H9 6366   3.589   6.367   9.483  3.3078  1.3170  0.4107
   53CHL1   C10 6367   3.645   6.260   9.663 -0.5896 -0.0503  0.1812
   53CHL1   C19 6368   3.740   6.142   9.697  0.4720  0.1796  0.8570
   53CHL1  H19A 6369   3.842   6.164   9.659  0.5493 -1.2569  0.1724
   53CHL1  H19B 6370   3.766   6.120   9.803  2.1171  0.1818  0.4799
   53CHL1  H19C 6371   3.701   6.052   9.645  1.9158 -0.2343  0.4290
   53CHL1    C1 6372   3.709   6.396   9.710 -0.3110  0.8630 -0.3503
   53CHL1   H1A 6373   3.816   6.385   9.680 -0.3610 -1.2648  0.0861
   53CHL1   H1B 6374   3.664   6.486   9.663 -2.8909 -0.5093 -0.6638
   53CHL1    C2 6375   3.700   6.417   9.858  0.6556  1.0218 -0.1397
   53CHL1   H2A 6376   3.737   6.517   9.888  0.4368  0.7095  1.2427
   53CHL1   H2B 6377   3.763   6.337   9.902 -0.8903 -0.1858 -0.0133
   53CHL1   C20 6378   3.648   6.125   8.951 -0.3205 -0.2170 -0.7393
   53CHL1   H20 6379   3.717   6.041   8.974  0.7272  0.2453 -2.0918
   53CHL1   C21 6380   3.761   6.236   8.939 -0.1929 -0.8401  0.0611
   53CHL1  H21A 6381   3.721   6.336   8.914 -1.0945 -0.5867  2.2842
   53CHL1  H21B 6382   3.835   6.206   8.861 -1.4005 -1.7899 -0.7609
   53CHL1  H21C 6383   3.821   6.246   9.032 -0.2962  2.2032 -0.1120
   53CHL1   C22 6384   3.579   6.092   8.820 -0.2136  0.5670 -0.1621
   53CHL1  H22A 6385   3.656   6.065   8.745 -0.8827  3.0687 -1.8716
   53CHL1  H22B 6386   3.519   5.999   8.832  1.9156 -0.8674 -0.0189
   53CHL1   C23 6387   3.492   6.198   8.761 -0.1781 -0.2677 -0.4084
   53CHL1  H23A 6388   3.413   6.215   8.837  2.0306 -1.4986  2.3026
   53CHL1  H23B 6389   3.549   6.293   8.766  0.5722 -0.6139 -1.8640
   53CHL1   C24 6390   3.448   6.183   8.614  0.2544 -0.1324  0.3962
   53CHL1  H24A 6391   3.531   6.177   8.540 -0.8894  0.9274 -1.0142
   53CHL1  H24B 6392   3.394   6.089   8.590 -0.9543  0.6481  0.0087
   53CHL1   C25 6393   3.357   6.301   8.561 -0.1088 -0.2688  0.4701
   53CHL1   H25 6394   3.261   6.295   8.617 -2.2053 -0.7234 -2.8685
   53CHL1   C26 6395   3.423   6.443   8.563 -0.6801  0.3016 -0.7707
   53CHL1  H26A 6396   3.345   6.516   8.535  0.0411  1.2308 -0.3888
   53CHL1  H26B 6397   3.435   6.466   8.671 -0.6593 -1.4432 -0.3738
   53CHL1  H26C 6398   3.515   6.447   8.501 -0.3552  3.2931 -0.2442
   53CHL1   C27 6399   3.311   6.277   8.419  0.5830  0.1540  0.1753
   53CHL1  H27A 6400   3.390   6.289   8.342  0.6340  0.4264  0.2685
   53CHL1  H27B 6401   3.267   6.176   8.407  2.1013 -0.4473 -0.4691
   53CHL1  H27C 6402   3.239   6.354   8.384 -0.5249 -2.0369 -2.7988
   54CHL1    C3 6403   3.202   1.647   9.989  0.9156 -0.0692  0.0079
   54CHL1    H3 6404   3.304   1.660   9.946  1.1770 -0.4970  0.4839
   54CHL1    O3 6405   3.210   1.657  10.129 -0.0806  0.2787  0.0628
   54CHL1   H3' 6406   3.271   1.731  10.135  0.2762  0.1902 -1.8169
   54CHL1    C4 6407   3.123   1.773   9.942  0.8071  0.0190 -0.2711
   54CHL1   H4A 6408   3.020   1.759   9.983  1.4558  0.9939  1.8285
   54CHL1   H4B 6409   3.174   1.866   9.974  0.1541  0.9255 -1.7823
   54CHL1    C5 6410   3.107   1.761   9.793  0.4138  0.2265 -0.0949
   54CHL1    C6 6411   3.145   1.864   9.714 -0.5142  0.2465 -0.0565
   54CHL1    H6 6412   3.196   1.952   9.755  1.6857 -0.2910 -1.4775
   54CHL1    C7 6413   3.131   1.879   9.566 -0.3812  0.2356 -0.4279
   54CHL1   H7A 6414   3.087   1.976   9.532  0.1159  0.2853 -0.9482
   54CHL1   H7B 6415   3.234   1.868   9.527 -0.1277 -3.6106  0.8961
   54CHL1    C8 6416   3.049   1.760   9.506 -0.0553 -0.8960 -0.4846
   54CHL1    H8 6417   2.942   1.784   9.520  0.3332  0.1067  0.9860
   54CHL1   C14 6418   3.079   1.753   9.360  0.4957 -0.4529  0.0285
   54CHL1   H14 6419   3.186   1.725   9.353  0.2549 -1.3558 -0.0743
   54CHL1   C15 6420   3.062   1.883   9.280 -0.6509  0.0273  0.4064
   54CHL1  H15A 6421   2.978   1.946   9.317  0.6359  0.9444  1.8635
   54CHL1  H15B 6422   3.157   1.936   9.303 -1.2405  0.0078  3.1910
   54CHL1   C16 6423   3.059   1.832   9.129  0.5822 -0.2849 -0.5317
   54CHL1  H16A 6424   2.977   1.894   9.087  1.0334 -0.1056 -1.1461
   54CHL1  H16B 6425   3.150   1.855   9.070  1.2521 -1.6969 -0.0823
   54CHL1   C17 6426   3.049   1.685   9.130  0.6039  0.0432 -0.4800
   54CHL1   H17 6427   3.155   1.653   9.120  0.3492 -0.6441 -1.1102
   54CHL1   C13 6428   3.009   1.639   9.281  0.5491 -0.2753 -0.0520
   54CHL1   C18 6429   2.858   1.647   9.298 -0.6639  0.1597 -0.1863
   54CHL1  H18A 6430   2.814   1.564   9.239  0.8944  1.2638 -3.1298
   54CHL1  H18B 6431   2.845   1.645   9.408 -0.9312  1.1125 -0.1897
   54CHL1  H18C 6432   2.805   1.739   9.263 -1.4283 -0.8683 -1.8828
   54CHL1   C12 6433   3.066   1.510   9.337  0.0442  0.0709 -0.0773
   54CHL1  H12A 6434   3.019   1.416   9.301 -0.9808 -0.6250  2.7753
   54CHL1  H12B 6435   3.174   1.493   9.316 -0.1284 -2.7558  0.9259
   54CHL1   C11 6436   3.038   1.502   9.493  0.7238  1.0979  0.1873
   54CHL1  H11A 6437   2.929   1.491   9.512  0.5540  1.3282 -0.6499
   54CHL1  H11B 6438   3.079   1.408   9.535 -0.1230  0.7360  0.2186
   54CHL1    C9 6439   3.083   1.628   9.575  0.3728  0.5506  0.0599
   54CHL1    H9 6440   3.193   1.618   9.567  0.2893  0.0052 -0.5601
   54CHL1   C10 6441   3.056   1.622   9.727 -0.4862  0.0523 -0.6847
   54CHL1   C19 6442   2.904   1.601   9.752 -0.6115  0.1169 -0.0435
   54CHL1  H19A 6443   2.850   1.692   9.718  1.2961  2.3524  2.4933
   54CHL1  H19B 6444   2.861   1.513   9.699  1.3498 -2.1390  1.8606
   54CHL1  H19C 6445   2.881   1.595   9.860 -0.8772  0.2678 -0.0893
   54CHL1    C1 6446   3.139   1.505   9.786  0.1617  0.3582 -0.6993
   54CHL1   H1A 6447   3.111   1.404   9.749  0.8814 -0.2919  0.4770
   54CHL1   H1B 6448   3.248   1.514   9.770  0.6812 -1.3285  1.4472
   54CHL1    C2 6449   3.141   1.513   9.946  0.7349 -0.0734  0.6177
   54CHL1   H2A 6450   3.210   1.432   9.978  0.9493 -0.1936 -0.1301
   54CHL1   H2B 6451   3.044   1.496   9.997  0.2396  0.6382 -0.0628
   54CHL1   C20 6452   2.971   1.623   9.015 -0.4734 -0.2555 -0.0475
   54CHL1   H20 6453   2.863   1.639   9.038 -0.5741 -1.3586  0.3162
   54CHL1   C21 6454   2.990   1.470   9.018 -0.5861 -0.1752  0.3886
   54CHL1  H21A 6455   2.955   1.419   8.926  1.2464 -1.3113  0.2766
   54CHL1  H21B 6456   2.933   1.425   9.102 -2.2542  1.6653  0.3258
   54CHL1  H21C 6457   3.096   1.448   9.041 -0.3647  1.8308  1.4733
   54CHL1   C22 6458   2.995   1.678   8.871  0.0431  0.1036 -0.1224
   54CHL1  H22A 6459   3.023   1.786   8.878 -0.7697  0.3692 -0.8510
   54CHL1  H22B 6460   3.082   1.628   8.824  1.6070 -0.5351  3.1269
   54CHL1   C23 6461   2.870   1.677   8.778 -0.5811 -0.5740 -0.1802
   54CHL1  H23A 6462   2.843   1.569   8.767  1.3946 -1.5884  3.2211
   54CHL1  H23B 6463   2.789   1.730   8.833 -0.8635 -0.2339 -0.9204
   54CHL1   C24 6464   2.885   1.758   8.657  0.4650 -1.0669  0.1975
   54CHL1  H24A 6465   2.914   1.860   8.690  0.0978 -1.1790  0.8851
   54CHL1  H24B 6466   2.971   1.723   8.596  2.0331  3.8911 -0.9107
   54CHL1   C25 6467   2.759   1.769   8.566  0.4477 -0.2137 -0.0698
   54CHL1   H25 6468   2.669   1.790   8.628  0.7644 -0.5721  0.5304
   54CHL1   C26 6469   2.773   1.867   8.454 -0.5194 -0.2837 -0.7381
   54CHL1  H26A 6470   2.851   1.831   8.384  0.4714  2.4173 -1.1633
   54CHL1  H26B 6471   2.680   1.876   8.393 -2.5154 -1.9737  1.8664
   54CHL1  H26C 6472   2.808   1.966   8.492  2.0565 -1.1228 -0.7490
   54CHL1   C27 6473   2.737   1.631   8.498 -1.0339 -0.0297  0.0993
   54CHL1  H27A 6474   2.720   1.559   8.581  0.0798  0.0783  0.4344
   54CHL1  H27B 6475   2.637   1.631   8.450 -1.3351 -1.7679  0.6473
   54CHL1  H27C 6476   2.821   1.616   8.426  0.1231  3.5628  0.4918
   55CHL1    C3 6477   5.181   5.514  10.159 -0.1364  0.3503  0.2406
   55CHL1    H3 6478   5.072   5.516  10.136 -0.5876 -2.3834  1.7846
   55CHL1    O3 6479   5.205   5.527  10.298 -0.2400 -0.1122 -0.5262
   55CHL1   H3' 6480   5.194   5.620  10.320  0.7603 -0.0588 -0.2192
   55CHL1    C4 6481   5.234   5.376  10.116  0.2822 -0.7316  0.3289
   55CHL1   H4A 6482   5.341   5.379  10.145  0.3399  2.7972  0.1655
   55CHL1   H4B 6483   5.175   5.308  10.181  1.2950  0.1585  2.2715
   55CHL1    C5 6484   5.227   5.351   9.969 -0.1560  0.6089  0.3021
   55CHL1    C6 6485   5.157   5.241   9.924 -0.3525 -0.5678  1.3560
   55CHL1    H6 6486   5.128   5.168  10.000  1.0105 -0.8257  1.6547
   55CHL1    C7 6487   5.141   5.213   9.780  0.3815 -0.2567  0.3321
   55CHL1   H7A 6488   5.180   5.112   9.754 -1.7283 -2.0502  3.4281
   55CHL1   H7B 6489   5.032   5.213   9.756  0.5823  1.5833 -0.7404
   55CHL1    C8 6490   5.223   5.313   9.687  0.4623 -0.6174 -0.3548
   55CHL1    H8 6491   5.327   5.277   9.674  0.6722 -1.0083  2.0265
   55CHL1   C14 6492   5.153   5.318   9.553 -0.6635  0.1428 -0.1897
   55CHL1   H14 6493   5.052   5.363   9.567 -1.0296 -1.1063  1.5445
   55CHL1   C15 6494   5.121   5.180   9.489  0.4601  0.0637  0.5967
   55CHL1  H15A 6495   5.212   5.116   9.489  0.4331  0.0112 -0.1075
   55CHL1  H15B 6496   5.033   5.128   9.532  0.5220 -1.5329 -1.0696
   55CHL1   C16 6497   5.095   5.219   9.338  0.0912  0.3715  0.0574
   55CHL1  H16A 6498   5.165   5.156   9.279 -0.1167 -0.3403  0.5683
   55CHL1  H16B 6499   4.989   5.200   9.312  0.4489 -0.4112 -0.8859
   55CHL1   C17 6500   5.124   5.380   9.325  0.0070  0.6081 -0.6998
   55CHL1   H17 6501   5.022   5.420   9.345  0.0730  0.5871 -0.3147
   55CHL1   C13 6502   5.214   5.410   9.449  0.6667 -0.1438  0.2991
   55CHL1   C18 6503   5.356   5.363   9.417  0.3147  0.2320 -0.0612
   55CHL1  H18A 6504   5.421   5.353   9.506 -2.5024  1.3767  2.2779
   55CHL1  H18B 6505   5.360   5.261   9.375  1.2486 -0.4152  1.5331
   55CHL1  H18C 6506   5.405   5.426   9.338 -0.0857  0.6301  0.0023
   55CHL1   C12 6507   5.202   5.552   9.503  0.6325  0.1565  0.4585
   55CHL1  H12A 6508   5.232   5.634   9.434 -0.0288  2.1662  2.4382
   55CHL1  H12B 6509   5.097   5.577   9.527  0.1915 -0.6855 -0.5222
   55CHL1   C11 6510   5.275   5.564   9.637  0.0615  0.1719  0.2572
   55CHL1  H11A 6511   5.381   5.554   9.605 -0.2582  1.5896 -1.4091
   55CHL1  H11B 6512   5.281   5.665   9.683 -0.5761  1.1059 -1.5802
   55CHL1    C9 6513   5.229   5.457   9.737  0.0040 -0.2642 -0.7282
   55CHL1    H9 6514   5.123   5.483   9.754 -0.2257 -1.4837 -0.1875
   55CHL1   C10 6515   5.287   5.460   9.878 -0.5376 -0.4663  0.5615
   55CHL1   C19 6516   5.443   5.440   9.876 -0.0355  0.6288 -0.2143
   55CHL1  H19A 6517   5.464   5.338   9.837  1.7849  0.7424  0.3574
   55CHL1  H19B 6518   5.489   5.510   9.803 -0.2308  2.1242  1.0517
   55CHL1  H19C 6519   5.479   5.451   9.980 -0.7773  0.3536  0.0740
   55CHL1    C1 6520   5.257   5.605   9.936 -0.4055  0.8981  0.5202
   55CHL1   H1A 6521   5.313   5.684   9.881  1.2047 -0.6137 -0.1243
   55CHL1   H1B 6522   5.150   5.626   9.914 -1.3053 -3.6876 -0.4697
   55CHL1    C2 6523   5.268   5.625  10.090  0.2997  0.2410 -0.0165
   55CHL1   H2A 6524   5.238   5.725  10.125  0.9502 -0.0631  1.4568
   55CHL1   H2B 6525   5.373   5.618  10.126  0.5159 -0.3971 -0.7355
   55CHL1   C20 6526   5.177   5.419   9.187 -0.4300  0.4576  0.8422
   55CHL1   H20 6527   5.270   5.363   9.165 -0.7597  0.7052 -1.3949
   55CHL1   C21 6528   5.200   5.570   9.167 -0.0268 -0.2181  0.0355
   55CHL1  H21A 6529   5.110   5.621   9.209  0.7377  1.3011 -0.0875
   55CHL1  H21B 6530   5.218   5.589   9.059 -0.8098  0.5967  0.0259
   55CHL1  H21C 6531   5.286   5.604   9.228  0.4167 -1.7893  0.3185
   55CHL1   C22 6532   5.079   5.359   9.086  1.5183 -0.8296  0.3661
   55CHL1  H22A 6533   5.123   5.381   8.987 -0.1800 -1.1805 -0.4995
   55CHL1  H22B 6534   5.078   5.248   9.090  0.4277 -1.0807 -3.1974
   55CHL1   C23 6535   4.937   5.421   9.089  0.2118 -0.0934  0.1216
   55CHL1  H23A 6536   4.885   5.392   9.183 -0.4963 -0.1848 -0.2867
   55CHL1  H23B 6537   4.933   5.531   9.081 -0.5989 -0.0675  0.8177
   55CHL1   C24 6538   4.844   5.376   8.977 -0.2392  0.7863  0.1141
   55CHL1  H24A 6539   4.844   5.265   8.978 -1.6856  0.7687  1.2423
   55CHL1  H24B 6540   4.738   5.404   8.990 -1.3280 -1.9815 -1.8581
   55CHL1   C25 6541   4.893   5.424   8.841  0.3632 -0.7335 -1.2729
   55CHL1   H25 6542   5.002   5.407   8.833  0.3688 -1.8387  0.5801
   55CHL1   C26 6543   4.837   5.344   8.720  0.0077 -0.7967  0.1167
   55CHL1  H26A 6544   4.884   5.244   8.729 -1.3963 -1.4040  1.0306
   55CHL1  H26B 6545   4.727   5.336   8.727 -0.1613 -0.7027 -1.9090
   55CHL1  H26C 6546   4.871   5.394   8.627 -2.2432 -0.0495 -0.3439
   55CHL1   C27 6547   4.866   5.572   8.820 -0.3312  0.3150  0.0177
   55CHL1  H27A 6548   4.911   5.611   8.726 -0.1168  1.6921  0.6617
   55CHL1  H27B 6549   4.757   5.594   8.815 -0.5464 -0.7731 -0.1344
   55CHL1  H27C 6550   4.917   5.639   8.893 -0.7178 -1.4236  1.9639
   56CHL1    C3 6551   1.508   2.613   9.993  1.0120  0.5823  0.2766
   56CHL1    H3 6552   1.616   2.602   9.970  0.9458  1.4039 -0.5071
   56CHL1    O3 6553   1.482   2.567  10.126 -0.2835  0.4067  0.1010
   56CHL1   H3' 6554   1.387   2.554  10.128 -0.6481  2.2510  3.6535
   56CHL1    C4 6555   1.470   2.765   9.981  1.0943 -0.7811 -0.3384
   56CHL1   H4A 6556   1.367   2.771  10.020  1.0863  0.5079 -0.5190
   56CHL1   H4B 6557   1.533   2.826  10.049  1.1638  1.0322 -1.9434
   56CHL1    C5 6558   1.472   2.819   9.837  0.3820 -0.1860 -0.4861
   56CHL1    C6 6559   1.536   2.927   9.811 -0.6524 -0.1781 -0.1559
   56CHL1    H6 6560   1.589   2.983   9.890 -0.0145 -1.4551  0.3404
   56CHL1    C7 6561   1.534   2.983   9.667 -0.2136 -0.2061  0.1072
   56CHL1   H7A 6562   1.515   3.091   9.653  0.6854  0.2944  2.2727
   56CHL1   H7B 6563   1.629   2.981   9.611 -0.7005 -1.6673 -0.7209
   56CHL1    C8 6564   1.419   2.923   9.583 -0.0586  1.1949 -0.1958
   56CHL1    H8 6565   1.320   2.949   9.625  0.1142  0.7177  0.5222
   56CHL1   C14 6566   1.431   2.968   9.433  0.4882  0.5243 -0.1435
   56CHL1   H14 6567   1.537   2.942   9.416  0.3544 -0.7614  0.8093
   56CHL1   C15 6568   1.424   3.116   9.401 -0.1122 -0.1564  0.0999
   56CHL1  H15A 6569   1.337   3.161   9.453 -1.3150  0.3614 -2.2173
   56CHL1  H15B 6570   1.523   3.160   9.429 -0.2589 -0.3585  0.9561
   56CHL1   C16 6571   1.400   3.114   9.247  0.1044 -0.0505 -0.2150
   56CHL1  H16A 6572   1.310   3.178   9.239  1.0584  1.4050  0.2747
   56CHL1  H16B 6573   1.484   3.160   9.191  0.2624  0.0012  0.0614
   56CHL1   C17 6574   1.382   2.965   9.197  0.1785  0.8328 -0.0405
   56CHL1   H17 6575   1.479   2.919   9.168  0.4270  2.0835 -1.3024
   56CHL1   C13 6576   1.341   2.900   9.328 -0.1940 -0.7253 -0.0638
   56CHL1   C18 6577   1.193   2.930   9.349 -0.4255  0.3510  0.2042
   56CHL1  H18A 6578   1.157   3.034   9.336 -0.4112  0.2092 -1.1304
   56CHL1  H18B 6579   1.128   2.874   9.278  1.2838 -0.0949 -1.0720
   56CHL1  H18C 6580   1.170   2.899   9.453 -0.8240  0.8828  0.2803
   56CHL1   C12 6581   1.359   2.749   9.337  0.1414 -0.2644  1.5724
   56CHL1  H12A 6582   1.296   2.706   9.256 -0.7582  1.7724  1.1198
   56CHL1  H12B 6583   1.462   2.735   9.299 -1.0626  1.4132 -3.0346
   56CHL1   C11 6584   1.350   2.696   9.476 -0.2339  0.2230  0.3568
   56CHL1  H11A 6585   1.242   2.698   9.503  0.4084 -0.9391  3.3676
   56CHL1  H11B 6586   1.386   2.591   9.473  1.2078  0.6531  1.4439
   56CHL1    C9 6587   1.429   2.771   9.586  0.8516  0.2530 -0.2424
   56CHL1    H9 6588   1.531   2.740   9.554  1.5976  1.0592  1.2215
   56CHL1   C10 6589   1.405   2.722   9.731  0.0687  0.7969 -0.7821
   56CHL1   C19 6590   1.252   2.741   9.767  0.5077 -0.7174  0.1243
   56CHL1  H19A 6591   1.227   2.687   9.861  0.0514 -1.5654 -0.4764
   56CHL1  H19B 6592   1.214   2.845   9.766 -0.5207 -1.0682  1.0257
   56CHL1  H19C 6593   1.187   2.684   9.698 -0.6004  1.7404 -0.9688
   56CHL1    C1 6594   1.436   2.569   9.758  0.0770 -0.4273  0.1857
   56CHL1   H1A 6595   1.374   2.508   9.689  1.1800 -0.0502 -1.1961
   56CHL1   H1B 6596   1.540   2.541   9.731 -0.3840 -0.7387 -1.3485
   56CHL1    C2 6597   1.424   2.522   9.903  0.3542 -0.9385  0.1961
   56CHL1   H2A 6598   1.469   2.420   9.907  0.4736 -0.8653  3.0172
   56CHL1   H2B 6599   1.316   2.529   9.929 -0.4159  1.3570 -3.0614
   56CHL1   C20 6600   1.278   2.961   9.078  0.1258  0.4299  0.0584
   56CHL1   H20 6601   1.175   2.996   9.100  0.5167  1.5678  0.1650
   56CHL1   C21 6602   1.280   2.819   9.008  0.6062  0.3459 -0.3069
   56CHL1  H21A 6603   1.237   2.821   8.906 -0.4145  0.7791  0.1153
   56CHL1  H21B 6604   1.229   2.745   9.073  0.2324 -0.5412 -1.5648
   56CHL1  H21C 6605   1.382   2.776   9.004 -0.0568 -1.2193 -1.2438
   56CHL1   C22 6606   1.326   3.067   8.967  0.0121  0.1599  0.4794
   56CHL1  H22A 6607   1.258   3.057   8.879  1.2082  0.6526 -0.5336
   56CHL1  H22B 6608   1.307   3.168   9.010  4.6775  1.3094  0.3277
   56CHL1   C23 6609   1.471   3.056   8.919 -0.2099  0.1356  0.4666
   56CHL1  H23A 6610   1.523   3.098   9.008 -1.1473  0.9874  0.6284
   56CHL1  H23B 6611   1.513   2.956   8.897  2.0070  0.9568  0.6309
   56CHL1   C24 6612   1.489   3.152   8.797  0.3206  0.4671 -0.1279
   56CHL1  H24A 6613   1.425   3.112   8.715  0.2610 -0.8554  0.5268
   56CHL1  H24B 6614   1.448   3.250   8.829 -0.7832  0.0392 -0.1611
   56CHL1   C25 6615   1.628   3.162   8.740 -0.5393 -0.0948 -0.0777
   56CHL1   H25 6616   1.669   3.059   8.730  0.1944  0.0278  1.3287
   56CHL1   C26 6617   1.624   3.243   8.607 -0.3449  0.2243 -0.3275
   56CHL1  H26A 6618   1.724   3.253   8.559  0.2064  0.4679  0.8242
   56CHL1  H26B 6619   1.569   3.185   8.530 -0.0842 -1.7312  0.9006
   56CHL1  H26C 6620   1.581   3.345   8.614  0.6417  0.5876  0.9406
   56CHL1   C27 6621   1.710   3.227   8.850 -0.3633  0.3840  0.1005
   56CHL1  H27A 6622   1.726   3.149   8.928  1.0273  0.5486  0.0029
   56CHL1  H27B 6623   1.808   3.248   8.801 -0.1157 -1.5787 -0.3417
   56CHL1  H27C 6624   1.671   3.323   8.889 -1.0944 -0.0324  0.4367
   57CHL1    C3 6625   4.877   5.970  10.111  0.7571  0.2047  0.1015
   57CHL1    H3 6626   4.889   6.081  10.116 -0.5187  0.4817 -1.7604
   57CHL1    O3 6627   4.886   5.927  10.252 -0.2457 -0.1849 -0.0515
   57CHL1   H3' 6628   4.835   5.846  10.266 -0.7142  0.3163  1.3508
   57CHL1    C4 6629   4.745   5.931  10.042 -0.7571 -0.1325 -0.2451
   57CHL1   H4A 6630   4.718   5.826  10.065 -2.5772  0.6990  1.7184
   57CHL1   H4B 6631   4.668   5.979  10.107  0.3542  0.3583  0.7652
   57CHL1    C5 6632   4.734   5.948   9.893 -0.1644  0.1757  0.9629
   57CHL1    C6 6633   4.628   6.002   9.837 -0.2084 -0.5418  0.1841
   57CHL1    H6 6634   4.542   6.044   9.892  1.0317  0.1432  1.6997
   57CHL1    C7 6635   4.604   5.992   9.691 -0.2000 -0.9287 -0.3136
   57CHL1   H7A 6636   4.506   5.941   9.675 -1.5731  0.5812  2.5045
   57CHL1   H7B 6637   4.606   6.096   9.654  1.0206 -0.7240  0.2819
   57CHL1    C8 6638   4.709   5.913   9.607  0.1249 -0.3575  0.6429
   57CHL1    H8 6639   4.673   5.808   9.610 -0.7102 -0.0586  2.4105
   57CHL1   C14 6640   4.713   5.968   9.467  0.0854 -0.3486 -0.3948
   57CHL1   H14 6641   4.744   6.075   9.478 -1.4200 -0.0008  0.8315
   57CHL1   C15 6642   4.588   5.985   9.381  0.3936  0.6077 -0.4717
   57CHL1  H15A 6643   4.524   5.898   9.410  1.0524 -0.0267 -0.8894
   57CHL1  H15B 6644   4.527   6.075   9.403  0.4405  0.3682  0.7337
   57CHL1   C16 6645   4.624   5.970   9.233  0.4062 -1.3510  0.7294
   57CHL1  H16A 6646   4.586   5.884   9.174  0.9721 -0.0429 -1.6701
   57CHL1  H16B 6647   4.599   6.062   9.176 -0.4237 -2.1989 -0.3043
   57CHL1   C17 6648   4.781   5.977   9.238  0.1046  0.6508 -0.3662
   57CHL1   H17 6649   4.805   6.085   9.255  0.1153  0.4190  1.2498
   57CHL1   C13 6650   4.816   5.901   9.371  0.0780  0.7093  0.1931
   57CHL1   C18 6651   4.772   5.749   9.359  0.6552  0.0341 -0.7918
   57CHL1  H18A 6652   4.770   5.693   9.455 -2.7838 -1.3871 -1.5195
   57CHL1  H18B 6653   4.671   5.730   9.316  1.5072 -0.6163 -2.6138
   57CHL1  H18C 6654   4.839   5.679   9.305  1.5267 -1.0990  1.6017
   57CHL1   C12 6655   4.954   5.917   9.432 -0.3564 -0.5595 -0.0343
   57CHL1  H12A 6656   5.035   5.868   9.374  0.0310  1.1589 -0.9911
   57CHL1  H12B 6657   4.971   6.026   9.441 -0.5467 -0.6425  1.8338
   57CHL1   C11 6658   4.956   5.860   9.573  0.0936  0.5286  0.7380
   57CHL1  H11A 6659   4.942   5.750   9.574  0.9717  0.3068 -2.3029
   57CHL1  H11B 6660   5.058   5.881   9.612  0.9540 -0.9643 -0.6047
   57CHL1    C9 6661   4.851   5.917   9.668 -0.4200 -0.3959  0.2509
   57CHL1    H9 6662   4.875   6.025   9.656 -0.5930 -0.5557 -2.0541
   57CHL1   C10 6663   4.850   5.877   9.819  0.3452  0.6328  0.8193
   57CHL1   C19 6664   4.835   5.724   9.829 -0.4246  0.6318 -0.2166
   57CHL1  H19A 6665   4.733   5.698   9.793 -0.7540 -0.0406  1.1276
   57CHL1  H19B 6666   4.909   5.670   9.766  1.9457  1.1673  1.9178
   57CHL1  H19C 6667   4.843   5.682   9.932  0.7006 -0.1963 -0.6237
   57CHL1    C1 6668   4.983   5.928   9.883 -0.0614 -0.0783 -0.5513
   57CHL1   H1A 6669   5.072   5.878   9.838  1.0482  0.8458  0.5435
   57CHL1   H1B 6670   4.995   6.037   9.865  0.3802 -0.4039 -2.4957
   57CHL1    C2 6671   4.996   5.913  10.041 -0.5116  0.2070  0.4235
   57CHL1   H2A 6672   5.090   5.967  10.068 -0.9765  1.3800 -0.2391
   57CHL1   H2B 6673   5.021   5.806  10.060 -0.0541  0.3344  0.5513
   57CHL1   C20 6674   4.836   5.925   9.101  0.1666  0.0130  0.2874
   57CHL1   H20 6675   4.770   5.842   9.067 -0.0930  0.7327 -1.0707
   57CHL1   C21 6676   4.989   5.885   9.109  0.1238  0.2678 -0.3662
   57CHL1  H21A 6677   5.059   5.971   9.115  0.1341  0.3468 -1.3596
   57CHL1  H21B 6678   5.011   5.828   9.016  2.7218 -1.3758  1.1004
   57CHL1  H21C 6679   5.003   5.817   9.196  1.6179  0.4918 -0.4027
   57CHL1   C22 6680   4.819   6.024   8.980 -0.1274  0.0549 -0.3596
   57CHL1  H22A 6681   4.717   6.067   8.983 -0.3947 -0.6249  1.6920
   57CHL1  H22B 6682   4.896   6.104   8.987 -0.3686  0.4377 -1.7162
   57CHL1   C23 6683   4.836   5.962   8.836 -0.3149  0.1845  0.4148
   57CHL1  H23A 6684   4.941   5.926   8.838 -0.2395  0.1135 -1.9026
   57CHL1  H23B 6685   4.763   5.878   8.827 -1.6996  1.3171  0.7197
   57CHL1   C24 6686   4.814   6.056   8.714 -0.1851 -0.4217  0.0054
   57CHL1  H24A 6687   4.715   6.108   8.723  0.4179  0.6597  0.6025
   57CHL1  H24B 6688   4.889   6.138   8.711 -0.7528  0.0731 -1.9310
   57CHL1   C25 6689   4.809   5.985   8.577 -0.2864  0.3103  0.5485
   57CHL1   H25 6690   4.726   5.911   8.587  0.3154 -1.3451 -4.2812
   57CHL1   C26 6691   4.764   6.078   8.468  0.0085  0.0774 -0.1629
   57CHL1  H26A 6692   4.720   6.036   8.376 -0.3032 -0.8248  0.3911
   57CHL1  H26B 6693   4.691   6.146   8.517  0.4569  0.3408  0.1531
   57CHL1  H26C 6694   4.838   6.157   8.443  0.0277 -0.5406 -2.2278
   57CHL1   C27 6695   4.938   5.908   8.542 -0.6665  0.3552  0.0420
   57CHL1  H27A 6696   5.017   5.986   8.534 -0.8882  0.5404 -0.3809
   57CHL1  H27B 6697   4.971   5.832   8.615 -0.3678  0.5509  0.1131
   57CHL1  H27C 6698   4.931   5.844   8.451 -0.2074 -1.2030  1.0650
   58CHL1    C3 6699   0.791   5.393  10.193 -0.3163  0.2607  0.9671
   58CHL1    H3 6700   0.896   5.362  10.169 -0.1021  1.6685 -0.0567
   58CHL1    O3 6701   0.787   5.392  10.335 -0.1611 -0.2365 -0.4337
   58CHL1   H3' 6702   0.864   5.443  10.364  0.9154 -1.0564 -1.7043
   58CHL1    C4 6703   0.772   5.528  10.126 -0.0804 -0.3747 -0.3741
   58CHL1   H4A 6704   0.675   5.563  10.168 -0.1169 -1.8376  0.8808
   58CHL1   H4B 6705   0.851   5.595  10.164  0.3759 -1.1339  0.0389
   58CHL1    C5 6706   0.774   5.511   9.971  0.3488 -0.5471 -0.5347
   58CHL1    C6 6707   0.854   5.583   9.895  0.1761 -0.5251  0.3110
   58CHL1    H6 6708   0.915   5.662   9.942 -0.8617  0.1171  0.6318
   58CHL1    C7 6709   0.860   5.586   9.743  0.0424 -0.2020  0.3677
   58CHL1   H7A 6710   0.848   5.689   9.704 -3.7429 -1.2734 -1.7446
   58CHL1   H7B 6711   0.954   5.535   9.714 -1.0952 -2.1787 -0.0607
   58CHL1    C8 6712   0.743   5.507   9.684 -0.4112 -0.4076 -0.1631
   58CHL1    H8 6713   0.651   5.568   9.677  1.0782  1.8425 -1.3566
   58CHL1   C14 6714   0.775   5.472   9.541  0.2161  0.2307  0.3163
   58CHL1   H14 6715   0.873   5.420   9.540 -0.0429 -0.2668  0.3804
   58CHL1   C15 6716   0.797   5.594   9.452 -0.1432  0.1918 -1.1389
   58CHL1  H15A 6717   0.719   5.669   9.479 -0.7399 -0.4094 -1.1931
   58CHL1  H15B 6718   0.894   5.645   9.472  0.3259 -0.6084 -1.3388
   58CHL1   C16 6719   0.765   5.542   9.309  0.9533 -0.4013  0.5276
   58CHL1  H16A 6720   0.695   5.619   9.269 -0.3838 -1.0660  1.5476
   58CHL1  H16B 6721   0.852   5.533   9.240 -0.1704 -1.1615 -0.8507
   58CHL1   C17 6722   0.719   5.395   9.317  0.4022  1.1492 -0.7782
   58CHL1   H17 6723   0.811   5.335   9.307 -0.5220 -0.0616 -2.4431
   58CHL1   C13 6724   0.671   5.392   9.468  0.3043  0.5186  0.0721
   58CHL1   C18 6725   0.529   5.460   9.459  0.4830  0.4297 -0.1354
   58CHL1  H18A 6726   0.546   5.556   9.405  0.7161  0.5868  0.2137
   58CHL1  H18B 6727   0.450   5.404   9.405  0.4164  1.2901 -0.9676
   58CHL1  H18C 6728   0.486   5.488   9.557  0.0059  0.2943 -0.3032
   58CHL1   C12 6729   0.651   5.261   9.540  0.1252 -0.2596  0.2351
   58CHL1  H12A 6730   0.571   5.205   9.488 -0.0591  2.2416 -2.3920
   58CHL1  H12B 6731   0.745   5.200   9.536 -0.4362 -1.1459  0.2967
   58CHL1   C11 6732   0.624   5.282   9.686  0.8642 -0.1408  0.4022
   58CHL1  H11A 6733   0.520   5.322   9.690  1.0586  0.4770 -0.4486
   58CHL1  H11B 6734   0.623   5.179   9.728 -2.4581 -0.2236  0.3687
   58CHL1    C9 6735   0.725   5.374   9.759  0.0631  0.1706 -0.2622
   58CHL1    H9 6736   0.824   5.323   9.762  0.2884  0.6028 -0.2826
   58CHL1   C10 6737   0.690   5.401   9.911  0.7701 -0.0204  0.7797
   58CHL1   C19 6738   0.543   5.445   9.927  0.2094 -0.1608 -0.5985
   58CHL1  H19A 6739   0.521   5.547   9.888 -2.3959  0.9883  3.2132
   58CHL1  H19B 6740   0.467   5.377   9.884  0.0692 -0.4758  0.1319
   58CHL1  H19C 6741   0.515   5.453  10.034  1.1062 -0.4451 -0.3299
   58CHL1    C1 6742   0.713   5.266   9.990  0.4822 -0.8532 -0.0970
   58CHL1   H1A 6743   0.641   5.193   9.949 -1.3970  0.6692  0.3418
   58CHL1   H1B 6744   0.813   5.225   9.962  0.0384 -0.2821 -2.7879
   58CHL1    C2 6745   0.704   5.278  10.137  0.3347 -0.3258 -0.1635
   58CHL1   H2A 6746   0.739   5.183  10.183  0.9195  0.3143  0.7632
   58CHL1   H2B 6747   0.595   5.291  10.153  0.2527  2.2009 -2.1083
   58CHL1   C20 6748   0.630   5.352   9.192  0.4529 -0.4217 -0.8074
   58CHL1   H20 6749   0.559   5.436   9.174  0.8310  0.1851  0.3956
   58CHL1   C21 6750   0.560   5.216   9.213  0.2061  0.3685 -0.1786
   58CHL1  H21A 6751   0.500   5.184   9.125  0.2835 -0.6488  0.1214
   58CHL1  H21B 6752   0.488   5.218   9.298  2.0356  1.0322  1.4334
   58CHL1  H21C 6753   0.630   5.134   9.240  1.4558  1.5078  0.1114
   58CHL1   C22 6754   0.710   5.345   9.057  0.2111  0.1246  0.2592
   58CHL1  H22A 6755   0.785   5.427   9.059 -0.5379  0.8513  2.4032
   58CHL1  H22B 6756   0.763   5.248   9.052 -0.8892 -0.4731 -0.1242
   58CHL1   C23 6757   0.616   5.345   8.938  0.2681 -0.1167 -0.3582
   58CHL1  H23A 6758   0.550   5.256   8.935 -0.8545  0.6957 -0.4492
   58CHL1  H23B 6759   0.550   5.434   8.939  1.0431  0.4734 -0.2004
   58CHL1   C24 6760   0.701   5.343   8.802  0.0380 -0.1360 -0.1622
   58CHL1  H24A 6761   0.778   5.423   8.813  0.5197 -0.5298 -0.6142
   58CHL1  H24B 6762   0.760   5.249   8.798 -1.9145 -1.3742 -1.8385
   58CHL1   C25 6763   0.620   5.363   8.677 -0.3637  0.0708 -0.3899
   58CHL1   H25 6764   0.567   5.459   8.692 -0.0247 -0.1282  2.5448
   58CHL1   C26 6765   0.718   5.373   8.550  0.1240 -0.8341 -0.2228
   58CHL1  H26A 6766   0.798   5.445   8.578 -2.0244  1.1964  1.0422
   58CHL1  H26B 6767   0.759   5.273   8.524  2.0486 -0.5570  1.5229
   58CHL1  H26C 6768   0.663   5.404   8.458 -1.2987 -5.0182 -0.9757
   58CHL1   C27 6769   0.522   5.249   8.649  0.9335 -0.1617 -0.0996
   58CHL1  H27A 6770   0.579   5.157   8.626  0.0908 -1.2707  2.0242
   58CHL1  H27B 6771   0.451   5.231   8.733 -1.9121  0.7786 -2.1165
   58CHL1  H27C 6772   0.458   5.282   8.563  1.1319  0.0541 -0.1652
   59CHL1    C3 6773   6.816   5.180  10.375  0.0660  0.4080  0.6633
   59CHL1    H3 6774   6.873   5.087  10.356  0.4721  0.9795 -1.1691
   59CHL1    O3 6775   6.793   5.197  10.516 -0.0790  0.0889 -0.0164
   59CHL1   H3' 6776   6.731   5.270  10.513  0.2325  0.3095 -1.6985
   59CHL1    C4 6777   6.893   5.299  10.317  0.1613  0.1180  0.2850
   59CHL1   H4A 6778   6.839   5.395  10.333 -1.9314 -1.4051  3.3656
   59CHL1   H4B 6779   6.992   5.307  10.367  0.7793 -0.4248 -0.8199
   59CHL1    C5 6780   6.900   5.287  10.163  1.0952 -0.5363 -0.3668
   59CHL1    C6 6781   7.025   5.296  10.109  0.5306 -0.2385 -0.0668
   59CHL1    H6 6782   7.113   5.320  10.171  0.0179 -1.4937  1.2076
   59CHL1    C7 6783   7.057   5.290   9.964  0.4436  0.1431 -0.3329
   59CHL1   H7A 6784   7.117   5.379   9.936  0.4533  1.7325  3.8929
   59CHL1   H7B 6785   7.112   5.194   9.955 -0.4750 -0.3040 -1.3721
   59CHL1    C8 6786   6.935   5.288   9.874  0.0469 -0.4451 -0.0646
   59CHL1    H8 6787   6.905   5.393   9.856 -0.5795  0.0931  3.3074
   59CHL1   C14 6788   6.958   5.218   9.742  0.2685  0.7857  0.8860
   59CHL1   H14 6789   6.972   5.107   9.748  0.1198  0.6767 -0.3941
   59CHL1   C15 6790   7.087   5.263   9.676  0.1747  0.4918 -0.0410
   59CHL1  H15A 6791   7.087   5.374   9.681 -2.1446  0.5306  0.2187
   59CHL1  H15B 6792   7.181   5.213   9.709 -1.3973 -1.4469  1.8217
   59CHL1   C16 6793   7.062   5.226   9.527 -0.1104 -0.0379 -0.4686
   59CHL1  H16A 6794   7.077   5.317   9.465  1.4158 -0.5206 -0.8514
   59CHL1  H16B 6795   7.135   5.149   9.493  1.8267  0.8785  1.3748
   59CHL1   C17 6796   6.916   5.173   9.517  0.1926  0.4206 -0.1118
   59CHL1   H17 6797   6.910   5.062   9.527 -0.6880 -0.0926 -4.3970
   59CHL1   C13 6798   6.842   5.226   9.640 -0.2189 -0.4276 -0.0973
   59CHL1   C18 6799   6.804   5.376   9.617  0.0590 -0.9138  0.3605
   59CHL1  H18A 6800   6.890   5.437   9.582 -0.4764 -0.4530 -0.1705
   59CHL1  H18B 6801   6.733   5.390   9.533  0.7007 -0.1178 -0.0624
   59CHL1  H18C 6802   6.759   5.428   9.705  0.4294  0.3826 -0.1843
   59CHL1   C12 6803   6.729   5.152   9.700 -0.4069  0.3262 -0.0805
   59CHL1  H12A 6804   6.638   5.151   9.636  0.5203 -2.6507 -1.5220
   59CHL1  H12B 6805   6.758   5.046   9.718  0.5016  0.6155  0.2093
   59CHL1   C11 6806   6.691   5.201   9.846 -0.2768  0.1547  0.0318
   59CHL1  H11A 6807   6.641   5.301   9.845  0.5669  0.5798 -0.3339
   59CHL1  H11B 6808   6.635   5.119   9.896  0.3856 -0.5635 -0.3922
   59CHL1    C9 6809   6.817   5.207   9.936  0.6642  0.1809  0.0068
   59CHL1    H9 6810   6.861   5.106   9.948 -1.0814 -0.6396 -0.1718
   59CHL1   C10 6811   6.774   5.265  10.080  0.8422 -0.3837 -0.3028
   59CHL1   C19 6812   6.719   5.411  10.073  0.1497  0.1824  0.5722
   59CHL1  H19A 6813   6.627   5.415  10.011  1.1901 -0.3708 -1.0702
   59CHL1  H19B 6814   6.678   5.439  10.173 -1.1698  0.3424  0.0106
   59CHL1  H19C 6815   6.788   5.492  10.044 -0.6183  0.1262 -1.6602
   59CHL1    C1 6816   6.684   5.160  10.150 -0.3226  0.6522  0.1062
   59CHL1   H1A 6817   6.579   5.170  10.115 -0.1778  3.5709  0.2487
   59CHL1   H1B 6818   6.729   5.061  10.128 -0.2857  0.4427  1.0671
   59CHL1    C2 6819   6.676   5.169  10.307  0.1326  0.3226  0.1855
   59CHL1   H2A 6820   6.613   5.093  10.358  0.3794 -0.8991 -1.2477
   59CHL1   H2B 6821   6.622   5.265  10.322  0.3772  0.2625  1.5696
   59CHL1   C20 6822   6.859   5.193   9.380  1.0726 -0.0143 -0.0111
   59CHL1   H20 6823   6.869   5.301   9.354 -1.8612  0.5716  0.9638
   59CHL1   C21 6824   6.713   5.161   9.372 -0.3160  0.3272  0.9713
   59CHL1  H21A 6825   6.695   5.076   9.442  1.0414 -0.4471  0.4063
   59CHL1  H21B 6826   6.693   5.140   9.265  1.1143  0.9364  0.5651
   59CHL1  H21C 6827   6.649   5.246   9.403  0.0280  1.4095 -1.1399
   59CHL1   C22 6828   6.923   5.110   9.269 -0.6566  0.0798  0.0512
   59CHL1  H22A 6829   7.021   5.075   9.306  0.4635  1.6379 -1.3020
   59CHL1  H22B 6830   6.858   5.023   9.244 -1.8038  1.3941 -1.8178
   59CHL1   C23 6831   6.964   5.172   9.137  0.8151  0.0034 -0.4501
   59CHL1  H23A 6832   6.879   5.236   9.105  1.3433  1.5157  1.0148
   59CHL1  H23B 6833   7.060   5.229   9.141  1.3791 -0.9578  0.3956
   59CHL1   C24 6834   6.988   5.065   9.023  0.0385 -0.0637 -0.6939
   59CHL1  H24A 6835   7.068   4.998   9.062 -0.1536 -0.1999 -0.5259
   59CHL1  H24B 6836   6.891   5.010   9.015  1.1696 -2.0985 -1.2196
   59CHL1   C25 6837   7.029   5.129   8.896 -0.0103 -0.1032 -0.1562
   59CHL1   H25 6838   7.126   5.176   8.921 -0.1369 -0.3429  0.8361
   59CHL1   C26 6839   7.068   5.020   8.792  0.2942 -0.3352 -0.2568
   59CHL1  H26A 6840   7.075   5.065   8.690  0.4691  0.1209 -0.0501
   59CHL1  H26B 6841   7.166   4.979   8.824 -0.8542 -1.4382  2.0389
   59CHL1  H26C 6842   6.988   4.943   8.797  0.5064 -0.5499 -0.1929
   59CHL1   C27 6843   6.932   5.225   8.826  0.0002 -0.4085 -0.0829
   59CHL1  H27A 6844   6.997   5.275   8.751 -1.9156  0.4748 -1.2413
   59CHL1  H27B 6845   6.861   5.160   8.770  1.1063 -2.8193  1.1479
   59CHL1  H27C 6846   6.876   5.294   8.893  1.4740 -1.0286  1.8994
   60CHL1    C3 6847   5.384   4.214  10.214 -0.2305  0.2990 -0.5247
   60CHL1    H3 6848   5.475   4.150  10.212  0.7120  1.5944 -0.9484
   60CHL1    O3 6849   5.333   4.237  10.340 -0.2421  0.3048 -0.3378
   60CHL1   H3' 6850   5.415   4.236  10.390 -0.4120 -2.0125  0.0197
   60CHL1    C4 6851   5.441   4.351  10.160 -0.3021  0.5042 -0.3740
   60CHL1   H4A 6852   5.360   4.427  10.173  0.1998  0.9206  0.3776
   60CHL1   H4B 6853   5.524   4.387  10.225 -0.1741  0.7666 -0.6771
   60CHL1    C5 6854   5.486   4.350  10.016  0.4970  0.4280  0.3037
   60CHL1    C6 6855   5.607   4.390   9.975 -0.5117 -0.6295 -0.0806
   60CHL1    H6 6856   5.682   4.417  10.050 -1.5494  2.8387 -0.0898
   60CHL1    C7 6857   5.650   4.398   9.831 -0.0362  0.1785 -0.1420
   60CHL1   H7A 6858   5.697   4.496   9.808 -0.0801  0.3435  0.4587
   60CHL1   H7B 6859   5.733   4.328   9.811  0.2071  0.6551 -0.8128
   60CHL1    C8 6860   5.543   4.380   9.725 -0.0164 -0.4388  0.3077
   60CHL1    H8 6861   5.492   4.478   9.715 -1.5727 -1.2328  0.1480
   60CHL1   C14 6862   5.596   4.345   9.581 -0.2448  0.4037  0.3522
   60CHL1   H14 6863   5.649   4.247   9.587  0.6270  0.8572  0.1853
   60CHL1   C15 6864   5.707   4.437   9.526 -0.1476 -0.3594 -0.3678
   60CHL1  H15A 6865   5.683   4.545   9.536  2.1045  0.2419 -0.9867
   60CHL1  H15B 6866   5.804   4.411   9.573 -0.7257 -1.0081  0.5094
   60CHL1   C16 6867   5.703   4.396   9.380  0.1944  0.0448  0.2839
   60CHL1  H16A 6868   5.704   4.487   9.316 -0.7987 -0.0573  0.1009
   60CHL1  H16B 6869   5.788   4.329   9.356 -0.2590  0.1489 -1.8654
   60CHL1   C17 6870   5.575   4.312   9.356  0.4061  0.3639 -0.6733
   60CHL1   H17 6871   5.598   4.204   9.358  1.1539  0.5250  0.2043
   60CHL1   C13 6872   5.491   4.330   9.480  0.3372  0.0373 -0.1240
   60CHL1   C18 6873   5.417   4.459   9.459  0.2527 -0.1208 -0.0741
   60CHL1  H18A 6874   5.324   4.453   9.399  0.2987  3.2543 -0.6973
   60CHL1  H18B 6875   5.385   4.506   9.555 -0.7986 -0.7423 -0.1122
   60CHL1  H18C 6876   5.475   4.539   9.409 -2.0186  2.0750  0.5813
   60CHL1   C12 6877   5.400   4.213   9.524 -0.1875 -0.1493  0.1243
   60CHL1  H12A 6878   5.315   4.207   9.454 -0.5253 -0.6083  0.5692
   60CHL1  H12B 6879   5.452   4.115   9.532 -2.1037 -1.2085 -0.0195
   60CHL1   C11 6880   5.339   4.237   9.666 -0.4185  0.4613 -0.3355
   60CHL1  H11A 6881   5.266   4.321   9.663  1.0983  1.8589  0.3652
   60CHL1  H11B 6882   5.288   4.143   9.698 -2.3376  1.0509 -1.4805
   60CHL1    C9 6883   5.443   4.275   9.771  0.1656  0.6997 -0.8851
   60CHL1    H9 6884   5.509   4.189   9.794 -1.0665 -0.5143 -1.7252
   60CHL1   C10 6885   5.382   4.294   9.922  0.0631 -0.0058 -0.0603
   60CHL1   C19 6886   5.275   4.403   9.913  0.9434  0.0567  0.1790
   60CHL1  H19A 6887   5.220   4.408  10.010  1.4980  1.4931  0.4422
   60CHL1  H19B 6888   5.314   4.504   9.889  0.3728  0.3037  0.2695
   60CHL1  H19C 6889   5.191   4.371   9.847 -0.9488  0.3197  2.3488
   60CHL1    C1 6890   5.322   4.162   9.975 -0.0228  0.1917 -0.2072
   60CHL1   H1A 6891   5.237   4.151   9.905 -0.9500  4.9220 -0.1664
   60CHL1   H1B 6892   5.386   4.073   9.961  0.9324  0.7069  0.7262
   60CHL1    C2 6893   5.275   4.157  10.121  0.7539 -0.1489 -0.3727
   60CHL1   H2A 6894   5.249   4.054  10.154 -1.9927  0.7071  0.3529
   60CHL1   H2B 6895   5.182   4.216  10.133  0.6660 -0.2458 -0.5757
   60CHL1   C20 6896   5.515   4.333   9.212 -0.0701 -0.9341 -0.3218
   60CHL1   H20 6897   5.484   4.440   9.201  1.0903 -0.6718 -1.1899
   60CHL1   C21 6898   5.402   4.234   9.200  0.0469 -0.2764 -0.2409
   60CHL1  H21A 6899   5.313   4.270   9.257  0.7822  0.8850  0.1921
   60CHL1  H21B 6900   5.429   4.130   9.228  0.3564 -0.0318  0.3773
   60CHL1  H21C 6901   5.365   4.234   9.095 -0.7432 -0.3173  0.0310
   60CHL1   C22 6902   5.628   4.303   9.113  0.0873  0.4702  0.8504
   60CHL1  H22A 6903   5.725   4.353   9.130  0.5011 -0.2622  0.6572
   60CHL1  H22B 6904   5.644   4.193   9.118 -3.4580 -0.5714 -3.3999
   60CHL1   C23 6905   5.596   4.330   8.963 -0.8332  0.4682  0.2867
   60CHL1  H23A 6906   5.689   4.309   8.906 -2.4070 -1.3845 -1.7838
   60CHL1  H23B 6907   5.543   4.242   8.920  1.2874  0.6372 -3.0048
   60CHL1   C24 6908   5.525   4.455   8.916 -0.2349 -0.2460 -0.1783
   60CHL1  H24A 6909   5.514   4.458   8.806 -1.6588 -1.3015 -0.0839
   60CHL1  H24B 6910   5.423   4.449   8.960 -0.6970 -0.9556 -1.3201
   60CHL1   C25 6911   5.592   4.593   8.951 -0.7912 -0.2011 -0.2533
   60CHL1   H25 6912   5.619   4.597   9.059  1.2383  0.9852 -0.7453
   60CHL1   C26 6913   5.732   4.592   8.895  0.6651 -0.0747  0.1107
   60CHL1  H26A 6914   5.804   4.666   8.935  1.2986 -0.8089  0.3471
   60CHL1  H26B 6915   5.779   4.493   8.912  1.4678  0.3808  0.5965
   60CHL1  H26C 6916   5.740   4.618   8.787  0.8390  0.5501  0.2719
   60CHL1   C27 6917   5.513   4.713   8.902 -0.0112  0.3625  0.5807
   60CHL1  H27A 6918   5.562   4.808   8.933  1.7087 -0.1172 -0.5705
   60CHL1  H27B 6919   5.507   4.715   8.791  0.8526 -0.5382  0.5056
   60CHL1  H27C 6920   5.415   4.693   8.951 -0.5069 -1.6636 -1.1079
   61CHL1    C3 6921   3.069   1.001  10.186  0.5377  0.5421  0.6583
   61CHL1    H3 6922   2.971   0.961  10.220  1.4340 -2.8564 -0.2912
   61CHL1    O3 6923   3.155   1.004  10.296 -0.0855 -0.4745 -0.2546
   61CHL1   H3' 6924   3.144   1.095  10.323 -1.3568  0.3864 -3.2481
   61CHL1    C4 6925   3.122   0.897  10.086  0.3565 -0.4405  0.3693
   61CHL1   H4A 6926   3.224   0.932  10.058 -0.8387  1.0590 -2.5065
   61CHL1   H4B 6927   3.123   0.796  10.132  0.0894 -0.0154  1.3504
   61CHL1    C5 6928   3.062   0.902   9.949  0.6163  0.3473  0.1301
   61CHL1    C6 6929   3.000   0.798   9.883  0.3966 -0.5036 -0.1409
   61CHL1    H6 6930   3.008   0.702   9.935 -1.8802 -0.2323  0.8200
   61CHL1    C7 6931   2.933   0.794   9.748  0.7830  0.0510 -0.1775
   61CHL1   H7A 6932   2.963   0.704   9.691 -0.6558 -0.8593  0.4453
   61CHL1   H7B 6933   2.822   0.792   9.755  0.7709 -3.1789  0.2510
   61CHL1    C8 6934   2.967   0.927   9.678  0.5640 -1.0346 -0.3852
   61CHL1    H8 6935   3.074   0.912   9.652  1.0036 -1.1103  1.3510
   61CHL1   C14 6936   2.878   0.933   9.564 -0.2121 -0.4192  0.2217
   61CHL1   H14 6937   2.771   0.930   9.595 -0.4155  1.6528 -0.1251
   61CHL1   C15 6938   2.903   0.815   9.466  0.5102  0.2217  0.2602
   61CHL1  H15A 6939   3.011   0.789   9.457 -0.1900 -2.5270 -1.7026
   61CHL1  H15B 6940   2.855   0.718   9.491 -0.1080  0.6494  0.7501
   61CHL1   C16 6941   2.860   0.869   9.330  0.1111  0.6028 -0.7957
   61CHL1  H16A 6942   2.947   0.849   9.264  0.8575 -1.7104  0.7548
   61CHL1  H16B 6943   2.774   0.808   9.295  0.0997 -1.3195  2.1776
   61CHL1   C17 6944   2.830   1.018   9.357 -0.0449 -0.0770  0.9825
   61CHL1   H17 6945   2.722   1.027   9.384 -0.2280 -0.7237  0.4833
   61CHL1   C13 6946   2.904   1.056   9.481  0.4016 -0.0343 -0.7641
   61CHL1   C18 6947   3.047   1.084   9.439 -0.5105  0.1274  0.6452
   61CHL1  H18A 6948   3.115   1.092   9.527 -0.0977 -0.0450  0.3444
   61CHL1  H18B 6949   3.085   1.002   9.375  2.2647  1.6602  0.1609
   61CHL1  H18C 6950   3.059   1.182   9.389  1.1665 -0.0820  0.5937
   61CHL1   C12 6951   2.840   1.173   9.569  0.6444 -0.3103  0.6794
   61CHL1  H12A 6952   2.844   1.268   9.512 -1.4303 -1.0903 -0.9065
   61CHL1  H12B 6953   2.737   1.138   9.594 -0.4110  0.2079 -2.4616
   61CHL1   C11 6954   2.918   1.185   9.707 -0.3200  0.4653  0.6719
   61CHL1  H11A 6955   3.010   1.230   9.664  0.7572 -2.6902 -0.7110
   61CHL1  H11B 6956   2.873   1.259   9.776  0.6371  0.7374  1.0196
   61CHL1    C9 6957   2.949   1.047   9.774 -0.4535  0.1946  0.3709
   61CHL1    H9 6958   2.855   1.024   9.828 -1.0626  0.6121 -0.4883
   61CHL1   C10 6959   3.054   1.047   9.886 -0.3241 -0.6382 -0.3600
   61CHL1   C19 6960   3.193   1.090   9.829  0.4568  0.0551  0.0818
   61CHL1  H19A 6961   3.235   1.018   9.755 -0.4964 -0.5935  0.1419
   61CHL1  H19B 6962   3.187   1.192   9.786 -1.8940 -0.5761 -1.2835
   61CHL1  H19C 6963   3.267   1.096   9.911  0.1344 -0.3790  0.4111
   61CHL1    C1 6964   3.000   1.150   9.989 -0.1051 -0.4362  0.0367
   61CHL1   H1A 6965   3.024   1.254   9.960 -1.7283  0.1451  0.6927
   61CHL1   H1B 6966   2.889   1.149   9.991 -0.1342  0.7235 -0.6016
   61CHL1    C2 6967   3.064   1.140  10.124 -0.1656 -0.2682 -0.2352
   61CHL1   H2A 6968   3.012   1.206  10.197  2.0792  0.8855  0.3869
   61CHL1   H2B 6969   3.168   1.177  10.119 -0.5500  0.8563 -0.0979
   61CHL1   C20 6970   2.846   1.110   9.230  0.0937 -0.0580 -0.2526
   61CHL1   H20 6971   2.953   1.130   9.212  0.8519 -1.3033  2.4029
   61CHL1   C21 6972   2.781   1.246   9.257  0.0776 -0.5505 -0.2922
   61CHL1  H21A 6973   2.684   1.237   9.310  0.9609 -1.1155  1.2686
   61CHL1  H21B 6974   2.756   1.304   9.165  2.7538  1.9450  0.4142
   61CHL1  H21C 6975   2.848   1.312   9.316 -1.6670 -1.0017  2.3378
   61CHL1   C22 6976   2.787   1.048   9.100 -0.0367  0.2243  0.0377
   61CHL1  H22A 6977   2.801   1.123   9.020 -2.6460  3.3233  2.1883
   61CHL1  H22B 6978   2.852   0.961   9.077  0.7163 -0.1078  2.9763
   61CHL1   C23 6979   2.641   1.024   9.112 -0.4597  0.1381  0.4061
   61CHL1  H23A 6980   2.615   0.940   9.179 -1.0213  0.1885  0.2595
   61CHL1  H23B 6981   2.586   1.111   9.155 -2.2505  0.8532 -2.9379
   61CHL1   C24 6982   2.562   0.999   8.984 -0.2232  1.0935  0.2962
   61CHL1  H24A 6983   2.527   1.083   8.919 -1.3706 -0.5286 -1.2754
   61CHL1  H24B 6984   2.638   0.947   8.921  1.7566  2.5445  1.3499
   61CHL1   C25 6985   2.433   0.917   9.007  0.2460 -0.7881 -0.1105
   61CHL1   H25 6986   2.462   0.819   9.050  0.7411 -1.4926 -1.9369
   61CHL1   C26 6987   2.332   0.997   9.096 -0.4520 -0.2417 -0.6172
   61CHL1  H26A 6988   2.328   1.097   9.048  1.7529  0.1920  0.0052
   61CHL1  H26B 6989   2.235   0.944   9.085 -0.4262 -0.3564 -0.3012
   61CHL1  H26C 6990   2.359   1.009   9.203  0.4948  1.7292 -1.0280
   61CHL1   C27 6991   2.367   0.885   8.868 -0.0859 -0.5227 -0.6190
   61CHL1  H27A 6992   2.410   0.789   8.831  0.2416 -0.0784 -1.4086
   61CHL1  H27B 6993   2.262   0.857   8.888 -0.1873  0.0980 -0.2501
   61CHL1  H27C 6994   2.365   0.973   8.800 -0.6130 -0.1165 -0.0877
   62CHL1    C3 6995   4.087   6.195  10.000  0.6387 -1.1771 -0.4608
   62CHL1    H3 6996   3.977   6.176   9.997  0.2895  0.4791  0.4682
   62CHL1    O3 6997   4.128   6.192  10.138  0.4570  0.2533 -0.2430
   62CHL1   H3' 6998   4.066   6.251  10.180 -0.5221  2.5923 -4.4409
   62CHL1    C4 6999   4.171   6.098   9.915 -0.6461 -0.1208 -0.6145
   62CHL1   H4A 7000   4.278   6.120   9.930 -0.3116 -1.9244 -0.1307
   62CHL1   H4B 7001   4.152   5.996   9.954 -0.4889 -0.3286 -1.0732
   62CHL1    C5 7002   4.160   6.118   9.764  0.5963  0.2927  1.2415
   62CHL1    C6 7003   4.127   6.014   9.687 -0.0030 -0.0940  0.3250
   62CHL1    H6 7004   4.126   5.915   9.736 -2.1390 -0.0378  0.5200
   62CHL1    C7 7005   4.110   6.018   9.537  0.5129  0.5633  0.3905
   62CHL1   H7A 7006   4.151   5.929   9.485 -0.2034 -1.0403  2.4148
   62CHL1   H7B 7007   4.002   6.013   9.512  0.9538  0.5831 -1.7150
   62CHL1    C8 7008   4.172   6.138   9.476 -0.3773  0.6418  0.2259
   62CHL1    H8 7009   4.282   6.122   9.478 -0.6409 -1.3086  0.8069
   62CHL1   C14 7010   4.112   6.150   9.334 -0.0530  0.6303  0.3138
   62CHL1   H14 7011   4.002   6.166   9.341 -0.4281 -1.5629 -0.0481
   62CHL1   C15 7012   4.120   6.026   9.235 -0.7199  1.0136  0.8270
   62CHL1  H15A 7013   4.212   5.965   9.238 -1.8507 -0.7715  0.3009
   62CHL1  H15B 7014   4.036   5.961   9.266  1.5003 -2.8686 -0.6941
   62CHL1   C16 7015   4.084   6.086   9.097 -0.2640 -0.2659 -0.3863
   62CHL1  H16A 7016   4.144   6.042   9.014  0.1093 -0.1248 -0.1964
   62CHL1  H16B 7017   3.977   6.063   9.076  0.5476 -2.3592 -2.7766
   62CHL1   C17 7018   4.117   6.242   9.113 -0.2487  0.9674  0.0685
   62CHL1   H17 7019   4.025   6.304   9.105 -0.5148  0.4327 -1.2097
   62CHL1   C13 7020   4.177   6.263   9.253 -0.0977  0.0239  0.4970
   62CHL1   C18 7021   4.331   6.230   9.248 -0.4070  0.1061  0.1148
   62CHL1  H18A 7022   4.349   6.121   9.233  0.3398  0.3551 -0.9155
   62CHL1  H18B 7023   4.387   6.285   9.169  1.3564  2.5332  2.8654
   62CHL1  H18C 7024   4.379   6.267   9.341  1.0702  1.5800 -1.1700
   62CHL1   C12 7025   4.146   6.394   9.325 -0.1436  0.3925  0.2421
   62CHL1  H12A 7026   4.191   6.484   9.278  1.1210  0.9395  2.3708
   62CHL1  H12B 7027   4.037   6.414   9.317  0.1858  2.5516  0.6616
   62CHL1   C11 7028   4.182   6.392   9.480  0.7677  0.8503  0.0754
   62CHL1  H11A 7029   4.293   6.385   9.490  0.6933 -1.7332 -0.1609
   62CHL1  H11B 7030   4.160   6.490   9.527  1.2452  2.6285 -3.1024
   62CHL1    C9 7031   4.138   6.260   9.556 -0.1240 -0.2397 -0.0933
   62CHL1    H9 7032   4.027   6.261   9.544 -0.0889 -0.7494 -0.4810
   62CHL1   C10 7033   4.179   6.259   9.712  1.5474 -0.0933  0.4580
   62CHL1   C19 7034   4.328   6.295   9.725  0.3447 -0.2002 -0.3105
   62CHL1  H19A 7035   4.396   6.219   9.681  1.9853 -1.4802  3.9716
   62CHL1  H19B 7036   4.352   6.390   9.673 -1.9099  0.3214 -0.5321
   62CHL1  H19C 7037   4.359   6.305   9.831  0.3425 -0.1234 -0.3166
   62CHL1    C1 7038   4.097   6.349   9.797  0.6696 -0.0942 -0.3528
   62CHL1   H1A 7039   4.119   6.455   9.776 -1.0105  0.4296  0.3752
   62CHL1   H1B 7040   3.988   6.342   9.774  0.0575  1.1620  1.8601
   62CHL1    C2 7041   4.102   6.335   9.953  0.3172  0.4550 -0.3942
   62CHL1   H2A 7042   4.033   6.407  10.002  2.0287  0.6037  1.9381
   62CHL1   H2B 7043   4.202   6.372   9.984  0.4749 -0.9517  0.8426
   62CHL1   C20 7044   4.204   6.298   8.999 -0.6331  0.2910  0.4163
   62CHL1   H20 7045   4.303   6.248   8.993 -0.9952 -0.5318  1.0820
   62CHL1   C21 7046   4.219   6.453   9.008 -0.4880 -0.3055 -0.2882
   62CHL1  H21A 7047   4.301   6.472   9.081  0.6711  0.4413 -1.7496
   62CHL1  H21B 7048   4.123   6.489   9.051 -1.2623 -0.5529 -1.7637
   62CHL1  H21C 7049   4.260   6.492   8.913  1.3697 -0.8638  0.2413
   62CHL1   C22 7050   4.141   6.269   8.859 -0.0924 -0.1006  0.6038
   62CHL1  H22A 7051   4.080   6.176   8.869  1.7550 -1.2470  2.1245
   62CHL1  H22B 7052   4.071   6.348   8.825 -1.3077 -2.1129 -1.8690
   62CHL1   C23 7053   4.244   6.256   8.742  0.4208 -0.7264 -0.1512
   62CHL1  H23A 7054   4.309   6.346   8.735 -0.5386 -0.0520 -0.7863
   62CHL1  H23B 7055   4.304   6.171   8.779 -1.2154 -1.3775  1.0883
   62CHL1   C24 7056   4.178   6.227   8.598  0.7709 -0.4497 -0.1962
   62CHL1  H24A 7057   4.133   6.125   8.597 -0.2150 -0.0706  1.5688
   62CHL1  H24B 7058   4.095   6.296   8.576 -1.7992 -2.4539  2.3820
   62CHL1   C25 7059   4.281   6.243   8.481 -0.0827 -0.3279  0.8968
   62CHL1   H25 7060   4.332   6.341   8.489  0.0073  0.0599 -2.9246
   62CHL1   C26 7061   4.383   6.122   8.480  0.1422 -0.5358  0.6508
   62CHL1  H26A 7062   4.454   6.124   8.395 -0.3186  2.4504  0.2206
   62CHL1  H26B 7063   4.452   6.121   8.566  1.7549  0.5833 -0.5750
   62CHL1  H26C 7064   4.322   6.031   8.497  0.5475 -0.9820 -0.1999
   62CHL1   C27 7065   4.207   6.232   8.343 -0.1173  0.7671  0.1543
   62CHL1  H27A 7066   4.139   6.145   8.331 -1.0817  1.6715 -1.1685
   62CHL1  H27B 7067   4.151   6.324   8.319 -0.8585  0.4920  0.7817
   62CHL1  H27C 7068   4.289   6.220   8.268 -2.0506  1.4977 -2.1957
   63CHL1    C3 7069   5.608   0.368  10.293 -0.6705  0.5601 -0.4375
   63CHL1    H3 7070   5.698   0.401  10.237  0.9595 -0.7609  1.3038
   63CHL1    O3 7071   5.648   0.279  10.405 -0.0786 -0.8752  0.0240
   63CHL1   H3' 7072   5.569   0.234  10.436  0.2873 -1.2141  0.4934
   63CHL1    C4 7073   5.536   0.494  10.340 -0.2493 -0.8220  0.0728
   63CHL1   H4A 7074   5.447   0.457  10.395 -2.3160  0.7008 -2.0843
   63CHL1   H4B 7075   5.599   0.559  10.404 -2.9866  1.1381  0.9166
   63CHL1    C5 7076   5.492   0.570  10.219 -0.7947  0.2057  0.1257
   63CHL1    C6 7077   5.528   0.701  10.197 -0.0910 -1.2822 -0.4982
   63CHL1    H6 7078   5.590   0.765  10.262 -2.0413  1.0819 -0.8327
   63CHL1    C7 7079   5.469   0.783  10.088  0.5086  0.2199 -0.0370
   63CHL1   H7A 7080   5.445   0.885  10.124 -3.8633 -0.1508 -1.3321
   63CHL1   H7B 7081   5.548   0.793  10.010 -0.8546  0.7256 -1.4034
   63CHL1    C8 7082   5.345   0.716  10.026  0.3489 -0.8343  1.1220
   63CHL1    H8 7083   5.257   0.735  10.092 -1.3323  1.1910 -1.5033
   63CHL1   C14 7084   5.323   0.784   9.890  0.1996 -0.1214 -0.0095
   63CHL1   H14 7085   5.407   0.757   9.822 -0.6905 -3.1600 -0.0443
   63CHL1   C15 7086   5.315   0.942   9.888 -1.1810  0.1511  0.3444
   63CHL1  H15A 7087   5.247   0.969   9.971 -3.1295  0.4909 -1.2781
   63CHL1  H15B 7088   5.412   0.982   9.926 -2.0417 -0.0770  2.9259
   63CHL1   C16 7089   5.248   0.968   9.757  0.4175  0.1932  0.0305
   63CHL1  H16A 7090   5.164   1.038   9.776 -0.5730 -0.5053 -1.5632
   63CHL1  H16B 7091   5.298   1.013   9.669 -0.7120  1.9316  0.2272
   63CHL1   C17 7092   5.203   0.826   9.696 -0.4561 -0.0518 -0.5768
   63CHL1   H17 7093   5.289   0.795   9.633  0.6783 -1.1026  1.3936
   63CHL1   C13 7094   5.198   0.731   9.815 -1.1496 -0.2072 -0.0713
   63CHL1   C18 7095   5.064   0.754   9.893  0.7999 -0.0505  0.0692
   63CHL1  H18A 7096   5.069   0.708   9.994  1.7773 -0.3320 -0.0956
   63CHL1  H18B 7097   5.023   0.858   9.890 -0.2896 -0.4813 -1.9637
   63CHL1  H18C 7098   4.983   0.703   9.836  1.6239 -1.7797  0.4132
   63CHL1   C12 7099   5.226   0.584   9.782 -0.0556  0.3897  0.4618
   63CHL1  H12A 7100   5.148   0.533   9.722 -0.2143 -0.7661  1.6045
   63CHL1  H12B 7101   5.317   0.578   9.720 -0.3267 -0.6670  0.1513
   63CHL1   C11 7102   5.251   0.510   9.912 -0.7751  0.4419 -0.1228
   63CHL1  H11A 7103   5.154   0.526   9.962 -0.9746 -0.2170 -0.2883
   63CHL1  H11B 7104   5.275   0.402   9.895 -2.2138  0.0326  0.3442
   63CHL1    C9 7105   5.367   0.566   9.998 -0.0075 -0.2949 -0.1760
   63CHL1    H9 7106   5.459   0.563   9.936  1.7329  0.0988  2.2624
   63CHL1   C10 7107   5.398   0.485  10.124 -0.2359  0.1164  0.6521
   63CHL1   C19 7108   5.267   0.435  10.200  0.5931 -0.1704  0.5907
   63CHL1  H19A 7109   5.210   0.361  10.140 -0.6998  1.3872 -0.1897
   63CHL1  H19B 7110   5.295   0.404  10.302 -1.1438  1.8268  1.7715
   63CHL1  H19C 7111   5.216   0.532  10.221 -0.2031 -0.6005  0.6749
   63CHL1    C1 7112   5.473   0.360  10.078  0.3360 -0.7332  0.1073
   63CHL1   H1A 7113   5.418   0.285  10.017 -1.4890 -0.2597  1.1070
   63CHL1   H1B 7114   5.559   0.405  10.024 -0.7820  0.3083 -0.8625
   63CHL1    C2 7115   5.529   0.282  10.197  0.5408  0.5716  0.4051
   63CHL1   H2A 7116   5.591   0.196  10.163 -1.0026 -0.1463 -0.6933
   63CHL1   H2B 7117   5.447   0.226  10.247  0.4219 -1.1840 -1.6256
   63CHL1   C20 7118   5.085   0.846   9.605  0.6683  0.3510  0.2007
   63CHL1   H20 7119   5.006   0.893   9.667  0.9982  2.1350 -0.6934
   63CHL1   C21 7120   5.026   0.713   9.546  0.4024 -0.8469  0.1735
   63CHL1  H21A 7121   4.992   0.641   9.623  1.3112 -1.0796  0.3686
   63CHL1  H21B 7122   5.092   0.654   9.478  0.0879  0.2694 -1.1403
   63CHL1  H21C 7123   4.934   0.742   9.491  1.3372  1.1877 -0.4199
   63CHL1   C22 7124   5.110   0.951   9.489  0.5774 -0.9586 -0.6162
   63CHL1  H22A 7125   5.010   0.950   9.441 -0.4430  1.2359  1.2686
   63CHL1  H22B 7126   5.122   1.050   9.537  0.1785 -0.3665 -1.7226
   63CHL1   C23 7127   5.233   0.931   9.394 -0.3899 -0.5001  0.0237
   63CHL1  H23A 7128   5.330   0.958   9.442  0.9256 -3.4408 -0.7313
   63CHL1  H23B 7129   5.246   0.824   9.367 -0.4563 -0.2066 -1.2175
   63CHL1   C24 7130   5.223   1.011   9.252 -0.4344  0.2751 -0.3166
   63CHL1  H24A 7131   5.123   0.995   9.207  0.1422 -1.1446 -1.1804
   63CHL1  H24B 7132   5.258   1.112   9.282  0.7982 -0.7820  2.1660
   63CHL1   C25 7133   5.318   0.951   9.146  0.2557  0.4369  0.7609
   63CHL1   H25 7134   5.290   0.848   9.116 -1.2187  1.3583 -1.2701
   63CHL1   C26 7135   5.303   1.034   9.018  0.4846  0.5115 -0.0904
   63CHL1  H26A 7136   5.208   1.026   8.963  0.6495  2.1640 -0.6473
   63CHL1  H26B 7137   5.334   1.139   9.039  1.6396  0.0323  0.7759
   63CHL1  H26C 7138   5.370   0.992   8.939  0.6476 -2.1150  1.3179
   63CHL1   C27 7139   5.467   0.959   9.187  0.4718  0.3033  0.7563
   63CHL1  H27A 7140   5.495   1.067   9.187 -1.0569  0.7304 -0.1798
   63CHL1  H27B 7141   5.487   0.910   9.285  1.9671 -0.6372  0.0177
   63CHL1  H27C 7142   5.537   0.918   9.111  0.7238 -0.0612  1.1749
   64CHL1    C3 7143   4.452   0.004   9.892 -0.1064 -0.7441  0.2923
   64CHL1    H3 7144   4.363   0.064   9.865 -0.0978 -1.1351 -0.6454
   64CHL1    O3 7145   4.445  -0.030  10.024 -0.3427 -0.7845  0.8243
   64CHL1   H3' 7146   4.535  -0.029  10.057  0.1447 -1.7954 -0.4156
   64CHL1    C4 7147   4.449  -0.120   9.802  0.1137 -0.1283  0.5760
   64CHL1   H4A 7148   4.546  -0.166   9.830 -0.6998 -1.3880  1.4102
   64CHL1   H4B 7149   4.365  -0.189   9.826 -0.2604  0.0979 -0.0414
   64CHL1    C5 7150   4.473  -0.101   9.647  0.3058  0.4030 -0.6106
   64CHL1    C6 7151   4.388  -0.158   9.556  0.1047  1.1687  0.3309
   64CHL1    H6 7152   4.311  -0.226   9.596 -1.6108  3.6950  1.6351
   64CHL1    C7 7153   4.407  -0.146   9.406 -0.0058 -0.2172  0.3832
   64CHL1   H7A 7154   4.414  -0.251   9.369  0.5092  0.5602 -1.8486
   64CHL1   H7B 7155   4.311  -0.112   9.361  0.4273 -0.7138 -0.9328
   64CHL1    C8 7156   4.531  -0.067   9.360  0.7050  0.3831 -0.5843
   64CHL1    H8 7157   4.624  -0.128   9.366  1.9241  2.1300 -1.1974
   64CHL1   C14 7158   4.519  -0.023   9.212 -0.7874 -0.0931  0.0905
   64CHL1   H14 7159   4.432   0.045   9.223 -1.7272 -1.6336  3.3242
   64CHL1   C15 7160   4.474  -0.118   9.098 -1.0154  0.2013  0.1692
   64CHL1  H15A 7161   4.540  -0.205   9.121  0.1352  0.3702 -2.1801
   64CHL1  H15B 7162   4.369  -0.151   9.084 -0.4309 -1.1729 -1.3125
   64CHL1   C16 7163   4.526  -0.040   8.976 -0.1491  0.1532 -0.6950
   64CHL1  H16A 7164   4.598  -0.105   8.922  0.4431 -0.6101  0.9453
   64CHL1  H16B 7165   4.437  -0.027   8.911 -2.5881  1.2543  2.5389
   64CHL1   C17 7166   4.596   0.095   9.016 -0.0282 -0.1196  0.1055
   64CHL1   H17 7167   4.507   0.162   9.017 -0.1007 -0.1819  1.8356
   64CHL1   C13 7168   4.637   0.062   9.164 -0.2549  0.0741  0.1261
   64CHL1   C18 7169   4.761  -0.026   9.169 -0.0487 -0.2430  0.2292
   64CHL1  H18A 7170   4.776  -0.089   9.080 -1.8272  0.0975 -0.3575
   64CHL1  H18B 7171   4.850   0.040   9.174  0.4045 -0.9110  1.4142
   64CHL1  H18C 7172   4.762  -0.088   9.262  1.4540 -1.6492 -0.6725
   64CHL1   C12 7173   4.658   0.189   9.254  0.1955 -0.0858  0.2667
   64CHL1  H12A 7174   4.732   0.267   9.224 -2.3541  2.1684 -0.5795
   64CHL1  H12B 7175   4.562   0.245   9.246  0.2304 -0.2974 -2.7185
   64CHL1   C11 7176   4.683   0.140   9.398 -0.2909 -0.2406 -0.4233
   64CHL1  H11A 7177   4.777   0.081   9.406 -0.1953 -0.1050 -0.5413
   64CHL1  H11B 7178   4.694   0.222   9.471  0.6549 -0.1964 -0.6018
   64CHL1    C9 7179   4.558   0.055   9.455 -0.4701  0.1548  0.4163
   64CHL1    H9 7180   4.478   0.132   9.442 -2.2706 -1.8056 -0.6454
   64CHL1   C10 7181   4.577   0.003   9.604 -0.3224  0.7069  0.7859
   64CHL1   C19 7182   4.719  -0.062   9.626 -0.5506  0.3411  0.5754
   64CHL1  H19A 7183   4.793   0.019   9.612  0.5344 -0.1923  2.7427
   64CHL1  H19B 7184   4.730  -0.099   9.730 -1.4337  1.2319  1.0030
   64CHL1  H19C 7185   4.737  -0.147   9.556  0.5410  2.3217 -1.7241
   64CHL1    C1 7186   4.550   0.126   9.690  0.4123  0.8081 -0.5172
   64CHL1   H1A 7187   4.632   0.198   9.670  1.3145 -0.4419 -1.4520
   64CHL1   H1B 7188   4.465   0.188   9.654 -0.0429 -0.4934 -1.7678
   64CHL1    C2 7189   4.570   0.104   9.838  0.5233  1.1763  0.2043
   64CHL1   H2A 7190   4.552   0.198   9.895  0.5032  1.2652  0.0507
   64CHL1   H2B 7191   4.660   0.048   9.871 -0.2090  0.2153  0.6727
   64CHL1   C20 7192   4.698   0.145   8.911  0.3432 -0.6243 -0.9492
   64CHL1   H20 7193   4.785   0.077   8.907 -0.6665 -1.9456 -1.1160
   64CHL1   C21 7194   4.753   0.287   8.952 -0.2145 -0.2145 -0.5820
   64CHL1  H21A 7195   4.669   0.352   8.983  0.1512 -0.0802  0.1777
   64CHL1  H21B 7196   4.810   0.332   8.868 -2.2810  0.8831 -1.4619
   64CHL1  H21C 7197   4.819   0.275   9.041 -2.9755 -1.6190  1.4460
   64CHL1   C22 7198   4.628   0.147   8.777 -0.1384 -0.5777  0.1126
   64CHL1  H22A 7199   4.706   0.187   8.710 -0.0619 -0.9071  0.0019
   64CHL1  H22B 7200   4.608   0.043   8.743  0.0638 -0.2196 -1.1110
   64CHL1   C23 7201   4.498   0.220   8.762 -0.3167  0.3416  0.1365
   64CHL1  H23A 7202   4.411   0.163   8.800 -2.3640  2.7132 -0.6846
   64CHL1  H23B 7203   4.496   0.316   8.817  0.2871  0.3024  0.2297
   64CHL1   C24 7204   4.466   0.232   8.610 -0.2378  0.5055  0.3463
   64CHL1  H24A 7205   4.541   0.303   8.570 -0.4282  0.0960 -0.7764
   64CHL1  H24B 7206   4.489   0.135   8.560 -2.2257  1.2443 -2.2343
   64CHL1   C25 7207   4.329   0.270   8.569 -0.0600  0.6399  0.2102
   64CHL1   H25 7208   4.267   0.180   8.589  0.9635 -0.2696 -0.5990
   64CHL1   C26 7209   4.278   0.398   8.627 -0.4495  0.2875 -0.0749
   64CHL1  H26A 7210   4.335   0.490   8.600 -2.7005  0.9760 -3.0653
   64CHL1  H26B 7211   4.169   0.410   8.610 -0.4421  0.0212 -0.3132
   64CHL1  H26C 7212   4.290   0.397   8.738 -0.1135 -2.0011 -0.0924
   64CHL1   C27 7213   4.328   0.259   8.409  0.0703 -0.9917 -0.0269
   64CHL1  H27A 7214   4.358   0.154   8.386 -1.2240 -1.5359  0.6519
   64CHL1  H27B 7215   4.233   0.279   8.354 -0.2941 -0.8671  0.6432
   64CHL1  H27C 7216   4.415   0.317   8.373  0.8199 -1.5385  0.8661
   65CHL1    C3 7217   1.012   4.726  10.116  0.3956  0.4825  0.0800
   65CHL1    H3 7218   1.094   4.800  10.128  1.7237 -0.7120 -1.1743
   65CHL1    O3 7219   0.972   4.685  10.246 -0.0668 -0.2472 -0.0530
   65CHL1   H3' 7220   0.877   4.672  10.242 -0.1291  0.4202 -0.9998
   65CHL1    C4 7221   0.902   4.797  10.038  0.9677 -0.2290 -0.7162
   65CHL1   H4A 7222   0.813   4.730  10.032  1.3569 -0.6398 -3.0020
   65CHL1   H4B 7223   0.877   4.885  10.100  2.4282  1.0184 -1.8256
   65CHL1    C5 7224   0.941   4.829   9.896 -0.3484  0.3143  0.1927
   65CHL1    C6 7225   0.920   4.946   9.831  0.2310 -0.0226  0.1343
   65CHL1    H6 7226   0.870   5.032   9.877 -0.2177 -0.1966 -0.0247
   65CHL1    C7 7227   0.958   4.963   9.691 -0.1213 -0.0287  0.4561
   65CHL1   H7A 7228   0.893   5.042   9.647  2.0656  0.5118 -2.0102
   65CHL1   H7B 7229   1.057   5.013   9.686 -0.9991  1.7685 -0.0023
   65CHL1    C8 7230   0.957   4.835   9.601  0.0037 -0.3678 -0.1380
   65CHL1    H8 7231   0.852   4.799   9.589 -0.2836  0.6322 -0.8072
   65CHL1   C14 7232   1.011   4.866   9.463 -0.4154 -0.0737 -0.4463
   65CHL1   H14 7233   1.106   4.920   9.485 -1.5356  1.9822 -0.4204
   65CHL1   C15 7234   0.947   4.975   9.375 -0.3091  0.1034  0.3522
   65CHL1  H15A 7235   0.836   4.977   9.383 -0.2786  0.7668  0.6985
   65CHL1  H15B 7236   0.978   5.076   9.410 -0.5031  0.3495 -0.1849
   65CHL1   C16 7237   0.986   4.947   9.230 -0.7827  0.2305  0.0315
   65CHL1  H16A 7238   0.894   4.922   9.173  0.1759  1.6209 -2.2906
   65CHL1  H16B 7239   1.041   5.024   9.172 -2.2049  1.4374  0.2403
   65CHL1   C17 7240   1.080   4.824   9.243  0.4008 -0.0136 -0.0915
   65CHL1   H17 7241   1.168   4.878   9.285 -0.2384 -0.6162  2.1530
   65CHL1   C13 7242   1.031   4.745   9.369 -0.5001  0.5442  0.3071
   65CHL1   C18 7243   0.895   4.682   9.322  0.0282 -0.2893 -0.3337
   65CHL1  H18A 7244   0.870   4.603   9.396  0.7159  0.4176  0.6685
   65CHL1  H18B 7245   0.806   4.750   9.324 -1.0854 -1.6320 -1.7803
   65CHL1  H18C 7246   0.905   4.625   9.228 -0.5094  0.7633 -1.0604
   65CHL1   C12 7247   1.119   4.638   9.437  0.0694  0.2161 -0.5421
   65CHL1  H12A 7248   1.137   4.547   9.375 -0.0829 -0.4358  0.3520
   65CHL1  H12B 7249   1.219   4.686   9.445 -0.1778  0.9928 -1.8131
   65CHL1   C11 7250   1.074   4.607   9.582  0.4214 -0.1340 -0.3278
   65CHL1  H11A 7251   0.977   4.559   9.559 -0.9786  1.4461  1.9034
   65CHL1  H11B 7252   1.138   4.531   9.631  1.5093  0.5725 -0.6150
   65CHL1    C9 7253   1.052   4.738   9.670  0.5461  0.0308 -0.4263
   65CHL1    H9 7254   1.147   4.794   9.677 -0.1328  1.3867 -1.6211
   65CHL1   C10 7255   0.999   4.708   9.815  0.1335  1.3666 -0.2523
   65CHL1   C19 7256   0.879   4.610   9.791 -0.4841  1.2324 -1.0992
   65CHL1  H19A 7257   0.846   4.549   9.878  0.2156 -1.8971 -2.8941
   65CHL1  H19B 7258   0.791   4.669   9.758 -0.5129  1.6780 -0.2675
   65CHL1  H19C 7259   0.894   4.524   9.723 -1.4922  0.6931 -0.6691
   65CHL1    C1 7260   1.107   4.646   9.908 -0.0695  0.2897 -0.7380
   65CHL1   H1A 7261   1.135   4.559   9.845 -0.3961  0.1401 -0.6783
   65CHL1   H1B 7262   1.199   4.709   9.910 -1.1156  1.8569  0.1427
   65CHL1    C2 7263   1.069   4.607  10.044  0.1935  0.6951 -0.2246
   65CHL1   H2A 7264   1.158   4.583  10.107  0.4800  0.3455 -0.7577
   65CHL1   H2B 7265   0.999   4.523  10.030 -1.9710  2.5058 -0.8780
   65CHL1   C20 7266   1.114   4.745   9.118 -0.9497 -0.6834  0.0461
   65CHL1   H20 7267   1.144   4.646   9.159 -0.8838  0.4210  2.8666
   65CHL1   C21 7268   1.244   4.816   9.061 -0.3649  0.3301 -0.0523
   65CHL1  H21A 7269   1.323   4.839   9.136 -0.7454  3.1221 -0.4338
   65CHL1  H21B 7270   1.204   4.913   9.027 -2.8349 -1.1955 -1.8215
   65CHL1  H21C 7271   1.286   4.752   8.981  0.3894  1.2510 -0.4080
   65CHL1   C22 7272   0.999   4.729   9.010  0.7474  0.1986  0.5686
   65CHL1  H22A 7273   0.903   4.690   9.049 -0.9966  0.7052 -2.8371
   65CHL1  H22B 7274   0.981   4.834   8.979  0.8349  0.3432  1.0139
   65CHL1   C23 7275   1.030   4.645   8.884  0.9254 -0.3532  0.1537
   65CHL1  H23A 7276   1.132   4.665   8.847 -0.1410  1.8036 -1.8315
   65CHL1  H23B 7277   1.015   4.539   8.915 -0.8402  0.4824  2.5400
   65CHL1   C24 7278   0.944   4.662   8.754 -0.1396  0.1021 -0.1329
   65CHL1  H24A 7279   0.839   4.634   8.780  0.5486 -0.2499  2.5030
   65CHL1  H24B 7280   0.938   4.771   8.735 -2.6006 -0.1041 -0.9478
   65CHL1   C25 7281   0.987   4.585   8.631  0.8394 -0.2540  0.2820
   65CHL1   H25 7282   1.090   4.622   8.610  0.8637 -0.1880  0.5121
   65CHL1   C26 7283   0.997   4.432   8.648  0.0976  0.0068 -0.5944
   65CHL1  H26A 7284   0.896   4.391   8.670  0.0183  1.0559  1.1502
   65CHL1  H26B 7285   1.034   4.382   8.556  1.3463 -0.6753  0.2474
   65CHL1  H26C 7286   1.074   4.403   8.722  0.3948  2.5426  0.2066
   65CHL1   C27 7287   0.896   4.617   8.508 -0.0163  0.0068 -0.1244
   65CHL1  H27A 7288   0.794   4.574   8.514 -0.6417  1.4753  0.1694
   65CHL1  H27B 7289   0.856   4.721   8.499  0.4698  0.1391 -0.8799
   65CHL1  H27C 7290   0.945   4.602   8.409  2.3580  0.5831  0.8933
   66CHL1    C3 7291   4.729   2.974  10.476  0.3893 -0.1433  0.3937
   66CHL1    H3 7292   4.742   2.864  10.460 -0.4108 -0.1458 -0.3261
   66CHL1    O3 7293   4.734   3.007  10.608  0.4195  0.5169  0.3900
   66CHL1   H3' 7294   4.642   3.005  10.637  0.4055 -1.4021  0.3708
   66CHL1    C4 7295   4.844   3.049  10.403  0.3113 -0.3774 -0.7344
   66CHL1   H4A 7296   4.826   3.157  10.418  1.4485 -0.0527 -1.5518
   66CHL1   H4B 7297   4.942   3.027  10.449 -0.3885 -0.6432  0.6977
   66CHL1    C5 7298   4.842   3.026  10.251  0.0221  0.0166 -0.3792
   66CHL1    C6 7299   4.938   2.963  10.184 -0.0561 -0.2147 -0.1881
   66CHL1    H6 7300   5.029   2.924  10.234 -0.1079 -2.5715 -1.7463
   66CHL1    C7 7301   4.948   2.944  10.038  0.6087  0.0534  0.0304
   66CHL1   H7A 7302   5.043   2.990  10.004  0.5296  1.0977  1.1615
   66CHL1   H7B 7303   4.948   2.834  10.025 -0.8205  0.1301 -0.7616
   66CHL1    C8 7304   4.829   3.018   9.966  0.1752  0.3938 -0.1830
   66CHL1    H8 7305   4.862   3.124   9.963 -1.1651  0.8434  0.2641
   66CHL1   C14 7306   4.816   2.969   9.826  0.4619  0.2235 -0.7034
   66CHL1   H14 7307   4.788   2.864   9.846  0.6448  0.5136  1.2248
   66CHL1   C15 7308   4.944   2.951   9.738  0.5756 -0.3291 -0.2270
   66CHL1  H15A 7309   5.000   3.047   9.746  0.7883 -0.5172  0.6450
   66CHL1  H15B 7310   4.997   2.858   9.768 -0.1238 -0.8132 -0.4606
   66CHL1   C16 7311   4.880   2.917   9.605 -1.1665 -0.1900 -0.0704
   66CHL1  H16A 7312   4.942   2.976   9.534  1.3304 -2.0078  0.4507
   66CHL1  H16B 7313   4.885   2.807   9.587 -0.1980 -0.1210 -0.2921
   66CHL1   C17 7314   4.729   2.947   9.611  0.1997 -0.4360  0.1468
   66CHL1   H17 7315   4.676   2.850   9.622 -2.1185  0.5205 -1.7620
   66CHL1   C13 7316   4.706   3.026   9.744 -0.8985  0.0058  0.0110
   66CHL1   C18 7317   4.735   3.178   9.726  0.5939 -0.7257  0.1101
   66CHL1  H18A 7318   4.845   3.191   9.714  0.7126 -0.6899  1.1641
   66CHL1  H18B 7319   4.671   3.226   9.649 -1.6256  1.1683  2.9176
   66CHL1  H18C 7320   4.714   3.227   9.824 -2.2332  0.9514 -1.2181
   66CHL1   C12 7321   4.574   2.996   9.811 -0.6254 -0.9585  0.7635
   66CHL1  H12A 7322   4.487   3.036   9.754  0.5958 -1.9541 -1.9944
   66CHL1  H12B 7323   4.557   2.886   9.818  0.7484 -1.2609 -0.1508
   66CHL1   C11 7324   4.571   3.042   9.953  0.2323  0.3867 -0.0574
   66CHL1  H11A 7325   4.564   3.153   9.947  0.4136  0.3103 -2.8532
   66CHL1  H11B 7326   4.481   3.009  10.010 -0.1789  0.8768 -0.4060
   66CHL1    C9 7327   4.697   3.008  10.042  0.7109  0.2462  0.5726
   66CHL1    H9 7328   4.681   2.898  10.051  2.6849 -0.1996 -0.6918
   66CHL1   C10 7329   4.701   3.059  10.188 -0.0262 -0.3935  0.1663
   66CHL1   C19 7330   4.672   3.215  10.188  0.0645  0.3184  0.0365
   66CHL1  H19A 7331   4.566   3.244  10.170 -0.1088 -1.8414 -3.1837
   66CHL1  H19B 7332   4.701   3.260  10.286 -1.0431  1.8136 -0.2793
   66CHL1  H19C 7333   4.739   3.264  10.114  0.4308 -1.3043 -0.7463
   66CHL1    C1 7334   4.591   2.985  10.260 -0.1050 -0.1865  0.0143
   66CHL1   H1A 7335   4.491   3.016  10.223  0.4637  0.5305 -0.9797
   66CHL1   H1B 7336   4.598   2.875  10.252 -3.0776 -0.3626 -1.5430
   66CHL1    C2 7337   4.589   3.002  10.417 -0.3044 -0.4144 -0.2651
   66CHL1   H2A 7338   4.519   2.932  10.467 -1.7397  1.6304  0.7188
   66CHL1   H2B 7339   4.548   3.101  10.446 -0.4143 -0.8195  1.0363
   66CHL1   C20 7340   4.684   3.008   9.480 -0.2361  0.4401 -0.1451
   66CHL1   H20 7341   4.726   3.109   9.461  4.4826 -0.7670  2.3530
   66CHL1   C21 7342   4.531   3.000   9.480 -0.1432  0.3400 -0.1595
   66CHL1  H21A 7343   4.485   3.044   9.389  0.9254  1.2736 -0.2639
   66CHL1  H21B 7344   4.492   3.064   9.562 -1.7863  0.2500 -0.8305
   66CHL1  H21C 7345   4.499   2.895   9.493  1.5167 -0.1810 -0.1429
   66CHL1   C22 7346   4.739   2.916   9.360  0.1371  0.8270  0.0322
   66CHL1  H22A 7347   4.846   2.939   9.341  0.3223 -0.6211 -0.8697
   66CHL1  H22B 7348   4.725   2.809   9.388 -1.6713  0.5941 -1.5337
   66CHL1   C23 7349   4.663   2.949   9.230 -0.2039 -0.9094 -0.7412
   66CHL1  H23A 7350   4.565   2.897   9.227  0.3156 -2.1037  1.0295
   66CHL1  H23B 7351   4.645   3.058   9.226  1.9043 -0.3828  1.6528
   66CHL1   C24 7352   4.734   2.904   9.104 -0.2194 -0.2278 -0.5854
   66CHL1  H24A 7353   4.809   2.978   9.069 -1.8126  1.1843 -1.1182
   66CHL1  H24B 7354   4.784   2.806   9.122 -2.1822 -1.3875 -1.1880
   66CHL1   C25 7355   4.628   2.886   8.988 -0.1433 -0.5536  0.6056
   66CHL1   H25 7356   4.543   2.826   9.025  0.4903 -1.6829  0.2655
   66CHL1   C26 7357   4.567   3.017   8.940 -0.2101  0.1606 -0.0269
   66CHL1  H26A 7358   4.487   3.010   8.864  0.4148 -1.4645 -0.5693
   66CHL1  H26B 7359   4.533   3.085   9.021 -1.2073  0.1884 -0.4526
   66CHL1  H26C 7360   4.648   3.080   8.895  1.2616 -1.2291  0.5979
   66CHL1   C27 7361   4.690   2.793   8.878 -0.3694 -0.0513  0.1300
   66CHL1  H27A 7362   4.790   2.833   8.853 -0.3966  1.1116  1.7609
   66CHL1  H27B 7363   4.707   2.689   8.914  0.4689 -0.2977 -0.9197
   66CHL1  H27C 7364   4.622   2.810   8.791 -2.0643  3.0644  1.8795
   67CHL1    C3 7365   3.382   2.700  10.153  0.7306  0.3500 -1.5275
   67CHL1    H3 7366   3.483   2.687  10.198  0.3690 -0.3705 -0.9017
   67CHL1    O3 7367   3.297   2.726  10.268 -0.3791 -0.2942  0.7772
   67CHL1   H3' 7368   3.214   2.742  10.222  0.4522  1.0190 -0.3293
   67CHL1    C4 7369   3.391   2.833  10.076  0.3342 -0.1104  0.0811
   67CHL1   H4A 7370   3.294   2.887  10.080  0.5610  0.4155 -1.0617
   67CHL1   H4B 7371   3.454   2.904  10.133  2.1356 -1.2528 -0.4360
   67CHL1    C5 7372   3.455   2.817   9.935  0.5930  0.0397  0.1768
   67CHL1    C6 7373   3.553   2.899   9.888  0.7766 -0.1093  0.4601
   67CHL1    H6 7374   3.584   2.983   9.952  1.2444  0.5408 -0.5911
   67CHL1    C7 7375   3.604   2.887   9.747  0.1038 -0.1073 -0.2515
   67CHL1   H7A 7376   3.590   2.987   9.701 -2.0006 -0.3835 -0.2924
   67CHL1   H7B 7377   3.713   2.868   9.754  0.1128 -0.6121 -1.4356
   67CHL1    C8 7378   3.529   2.789   9.655 -0.0363  0.1995  0.2987
   67CHL1    H8 7379   3.440   2.845   9.621 -0.0248  0.3027  0.4355
   67CHL1   C14 7380   3.633   2.749   9.545  0.4180  0.1408 -0.0543
   67CHL1   H14 7381   3.718   2.700   9.597  0.3296  1.5006  1.4660
   67CHL1   C15 7382   3.698   2.862   9.467  0.0997  0.1908 -0.4460
   67CHL1  H15A 7383   3.623   2.945   9.462 -0.4648 -0.2104  0.9361
   67CHL1  H15B 7384   3.789   2.901   9.517  1.5783 -1.1777 -1.9473
   67CHL1   C16 7385   3.733   2.796   9.337  0.2008 -0.1671 -0.0096
   67CHL1  H16A 7386   3.698   2.862   9.255  1.6872  1.0020  0.2648
   67CHL1  H16B 7387   3.842   2.793   9.320  0.1949 -0.8758  0.0294
   67CHL1   C17 7388   3.684   2.649   9.334 -0.4248 -0.9732  0.8450
   67CHL1   H17 7389   3.765   2.596   9.389 -0.8524 -0.7896  1.6704
   67CHL1   C13 7390   3.572   2.652   9.437  0.3955 -0.1410 -0.3386
   67CHL1   C18 7391   3.448   2.721   9.367  0.2568 -0.4009  0.2626
   67CHL1  H18A 7392   3.410   2.651   9.290  0.7576 -0.3361 -0.0473
   67CHL1  H18B 7393   3.362   2.744   9.434 -0.5504  0.0162 -0.8931
   67CHL1  H18C 7394   3.473   2.820   9.323 -0.7157  0.0670  0.7435
   67CHL1   C12 7395   3.531   2.526   9.512  1.3736  1.1141 -0.4117
   67CHL1  H12A 7396   3.504   2.444   9.442  2.9443 -1.6436  2.0041
   67CHL1  H12B 7397   3.615   2.469   9.557  0.7626 -2.1338 -2.9822
   67CHL1   C11 7398   3.432   2.557   9.631  0.2836  0.3581 -0.0017
   67CHL1  H11A 7399   3.336   2.598   9.593 -0.4320  0.5189  1.8761
   67CHL1  H11B 7400   3.405   2.471   9.696 -3.4784  0.3236 -1.3737
   67CHL1    C9 7401   3.486   2.667   9.728  0.4539  0.6108  0.1172
   67CHL1    H9 7402   3.579   2.636   9.780 -0.5966  0.0199  1.6975
   67CHL1   C10 7403   3.403   2.696   9.857  0.7909  0.0471  0.3027
   67CHL1   C19 7404   3.258   2.730   9.816 -0.1842 -0.7655 -0.0486
   67CHL1  H19A 7405   3.250   2.812   9.742 -1.8134 -0.7075  0.1502
   67CHL1  H19B 7406   3.215   2.634   9.780  0.0384 -0.3809 -1.4165
   67CHL1  H19C 7407   3.184   2.762   9.892 -1.2196 -1.6701 -0.6379
   67CHL1    C1 7408   3.411   2.565   9.937 -0.0703 -0.3119 -0.0062
   67CHL1   H1A 7409   3.361   2.479   9.887  1.6462 -0.0248 -2.3483
   67CHL1   H1B 7410   3.515   2.530   9.957 -0.2962 -0.4881  0.9329
   67CHL1    C2 7411   3.333   2.576  10.075  0.0651  0.2716 -0.0086
   67CHL1   H2A 7412   3.363   2.495  10.144 -0.2389  0.7559  0.6972
   67CHL1   H2B 7413   3.224   2.579  10.051  0.5201 -0.6265 -2.4784
   67CHL1   C20 7414   3.666   2.563   9.207  0.5542  0.0491 -1.1655
   67CHL1   H20 7415   3.570   2.509   9.212  0.7460 -0.2035  0.0920
   67CHL1   C21 7416   3.782   2.463   9.205 -1.3647  0.8560 -0.0364
   67CHL1  H21A 7417   3.767   2.401   9.114 -0.4701  1.5986 -0.7123
   67CHL1  H21B 7418   3.789   2.401   9.296  1.3548  0.6390 -0.3139
   67CHL1  H21C 7419   3.876   2.518   9.184 -0.0471 -0.1380  2.7739
   67CHL1   C22 7420   3.654   2.650   9.077 -0.5081  0.5060  0.3764
   67CHL1  H22A 7421   3.586   2.736   9.099 -0.5752  0.5552 -0.0080
   67CHL1  H22B 7422   3.757   2.685   9.055 -1.0413  0.7516 -2.0194
   67CHL1   C23 7423   3.598   2.565   8.963 -0.0080 -0.2620 -0.2822
   67CHL1  H23A 7424   3.666   2.480   8.943  1.1488  0.6170 -0.1544
   67CHL1  H23B 7425   3.497   2.530   8.994 -0.6993  2.3010  0.6043
   67CHL1   C24 7426   3.594   2.648   8.829  0.4623 -0.0467  0.2466
   67CHL1  H24A 7427   3.572   2.756   8.843  0.1827 -0.0293 -0.3196
   67CHL1  H24B 7428   3.696   2.649   8.785 -0.3999  0.8225 -1.8477
   67CHL1   C25 7429   3.506   2.584   8.725 -0.3734  0.0261  0.5016
   67CHL1   H25 7430   3.495   2.475   8.741 -0.2527 -0.0198  0.2834
   67CHL1   C26 7431   3.361   2.645   8.742  0.4434 -0.3318 -0.2009
   67CHL1  H26A 7432   3.359   2.752   8.713  1.9200 -0.4565 -0.8648
   67CHL1  H26B 7433   3.295   2.582   8.679 -1.6696  0.1060  1.4722
   67CHL1  H26C 7434   3.321   2.629   8.844 -0.5236 -0.6955 -0.6238
   67CHL1   C27 7435   3.561   2.618   8.586  0.2904 -0.4010  0.6837
   67CHL1  H27A 7436   3.571   2.728   8.575  3.0116 -0.6444 -0.0022
   67CHL1  H27B 7437   3.667   2.585   8.574  0.4171  0.6115 -1.4957
   67CHL1  H27C 7438   3.506   2.579   8.498 -1.8754  2.9997  0.3773
   68CHL1    C3 7439   0.902   4.075  10.145 -0.2083 -0.2124 -0.3416
   68CHL1    H3 7440   0.807   4.018  10.130 -1.9396  2.0426  1.4075
   68CHL1    O3 7441   0.930   4.079  10.283 -0.0792  0.0077 -0.2206
   68CHL1   H3' 7442   1.016   4.119  10.298  1.0933 -2.4346  0.1138
   68CHL1    C4 7443   1.017   4.000  10.074 -0.2647 -0.1709 -0.1319
   68CHL1   H4A 7444   1.112   4.049  10.102 -0.1644  0.0279 -0.7976
   68CHL1   H4B 7445   1.026   3.899  10.119  1.1260 -1.0812 -2.2933
   68CHL1    C5 7446   1.005   3.989   9.918 -0.2362  0.6404 -0.4320
   68CHL1    C6 7447   0.998   3.870   9.857  0.4569 -0.5222  1.0069
   68CHL1    H6 7448   1.006   3.781   9.922  0.9970  0.5224  2.4125
   68CHL1    C7 7449   1.001   3.868   9.706  0.1412  0.5658  0.0637
   68CHL1   H7A 7450   1.068   3.793   9.660 -2.0583  0.1067 -2.6345
   68CHL1   H7B 7451   0.895   3.846   9.681 -0.8761  4.1346  0.7197
   68CHL1    C8 7452   1.047   3.999   9.637 -0.5954  0.4546  0.3031
   68CHL1    H8 7453   1.158   4.005   9.643 -0.2777 -1.3105 -2.2191
   68CHL1   C14 7454   1.019   4.001   9.488  0.4175  0.0543  0.0592
   68CHL1   H14 7455   0.909   3.993   9.487  0.5688 -3.6172  0.2566
   68CHL1   C15 7456   1.086   3.892   9.405 -0.5823  0.7817 -0.0466
   68CHL1  H15A 7457   1.190   3.867   9.436 -1.0581 -2.2146 -0.6081
   68CHL1  H15B 7458   1.022   3.802   9.406 -2.5758  2.1341  1.7807
   68CHL1   C16 7459   1.081   3.940   9.259 -0.0684 -0.2008 -0.3020
   68CHL1  H16A 7460   1.184   3.924   9.219 -0.5610  0.3906 -1.8556
   68CHL1  H16B 7461   1.010   3.876   9.202 -1.6698  1.0903  0.1723
   68CHL1   C17 7462   1.039   4.088   9.262 -0.6059  0.1235 -0.6908
   68CHL1   H17 7463   0.929   4.078   9.250 -0.4751 -0.9822 -1.0581
   68CHL1   C13 7464   1.058   4.135   9.411 -0.5086  0.3425  1.0700
   68CHL1   C18 7465   1.208   4.168   9.433  0.5714  1.1538 -0.3666
   68CHL1  H18A 7466   1.222   4.190   9.541 -0.0219 -2.1667  0.4807
   68CHL1  H18B 7467   1.264   4.078   9.401 -0.5741 -0.2299  1.3311
   68CHL1  H18C 7468   1.249   4.259   9.384 -1.3439  1.0464 -2.3762
   68CHL1   C12 7469   0.963   4.240   9.467 -0.0071 -0.5592 -0.3337
   68CHL1  H12A 7470   0.996   4.337   9.422  0.5330  0.1832  1.5618
   68CHL1  H12B 7471   0.862   4.223   9.423  0.2193 -0.8272 -0.7510
   68CHL1   C11 7472   0.970   4.251   9.621  0.0997 -0.9571 -0.9536
   68CHL1  H11A 7473   1.064   4.302   9.648 -0.2562 -0.0651 -1.3488
   68CHL1  H11B 7474   0.888   4.313   9.664  2.2656  1.0089  0.5593
   68CHL1    C9 7475   0.964   4.116   9.710 -0.1491 -0.0866  0.2486
   68CHL1    H9 7476   0.861   4.075   9.702 -1.2849  2.2996  1.7217
   68CHL1   C10 7477   0.987   4.128   9.858 -0.7763  0.4121  0.6255
   68CHL1   C19 7478   1.119   4.201   9.887 -0.4385  0.0323 -0.1191
   68CHL1  H19A 7479   1.119   4.307   9.851 -1.3687  0.3073  0.6428
   68CHL1  H19B 7480   1.151   4.213   9.993 -0.0022 -1.0196 -0.1262
   68CHL1  H19C 7481   1.201   4.154   9.829  0.0200 -0.0081  0.5593
   68CHL1    C1 7482   0.877   4.205   9.930  0.1926 -0.2659 -0.7386
   68CHL1   H1A 7483   0.882   4.314   9.909  0.1847  0.5277  2.7459
   68CHL1   H1B 7484   0.781   4.155   9.907  0.1993 -0.1822 -0.9427
   68CHL1    C2 7485   0.884   4.213  10.084  0.6254  0.1418 -0.3248
   68CHL1   H2A 7486   0.788   4.254  10.122 -0.8780 -1.2494 -2.4228
   68CHL1   H2B 7487   0.962   4.288  10.107  1.8969 -1.3095  0.2802
   68CHL1   C20 7488   1.106   4.170   9.153  0.1234 -0.3507 -0.5841
   68CHL1   H20 7489   1.213   4.171   9.183  0.2518  0.8798 -1.0188
   68CHL1   C21 7490   1.073   4.320   9.158 -0.3698 -1.1385  0.0226
   68CHL1  H21A 7491   0.968   4.355   9.150  0.6499  2.9296  1.6215
   68CHL1  H21B 7492   1.136   4.364   9.078  1.6041 -0.4759  1.8384
   68CHL1  H21C 7493   1.114   4.368   9.249 -1.1566  1.2716 -0.8230
   68CHL1   C22 7494   1.087   4.108   9.010  0.1006  0.2816 -0.2349
   68CHL1  H22A 7495   1.104   3.998   9.007  1.6514  0.4980 -0.5204
   68CHL1  H22B 7496   0.985   4.126   8.970  0.3201  0.7904 -0.5689
   68CHL1   C23 7497   1.192   4.153   8.908 -0.6190  0.4727 -0.0527
   68CHL1  H23A 7498   1.202   4.263   8.895  1.4222  0.1398 -1.7517
   68CHL1  H23B 7499   1.289   4.120   8.951 -1.3166 -0.5351  0.7981
   68CHL1   C24 7500   1.171   4.087   8.768 -0.3240  0.1318  0.5501
   68CHL1  H24A 7501   1.064   4.097   8.742 -0.9658  0.8919  3.1710
   68CHL1  H24B 7502   1.231   4.146   8.694 -0.6328 -0.8199 -0.4903
   68CHL1   C25 7503   1.217   3.946   8.756 -0.4310  0.4477 -0.3814
   68CHL1   H25 7504   1.160   3.896   8.837  1.1849  1.6190  1.5642
   68CHL1   C26 7505   1.175   3.895   8.623 -0.0554 -1.2383  0.6680
   68CHL1  H26A 7506   1.073   3.929   8.593  0.1030 -2.1007 -0.9483
   68CHL1  H26B 7507   1.243   3.933   8.544 -2.8446  2.2746 -0.3229
   68CHL1  H26C 7508   1.179   3.784   8.626 -1.2324 -1.2762  2.1834
   68CHL1   C27 7509   1.370   3.924   8.777 -0.7635 -0.3316 -0.6491
   68CHL1  H27A 7510   1.435   3.975   8.702  1.2167 -0.4809  0.8782
   68CHL1  H27B 7511   1.402   3.975   8.871 -0.0001  1.7749 -1.9721
   68CHL1  H27C 7512   1.413   3.821   8.779 -0.5603 -0.2372  0.4283
   69CHL1    C3 7513   4.545   2.698   6.798  0.1608  0.0892 -0.6025
   69CHL1    H3 7514   4.652   2.672   6.795  0.5336  1.3002  1.0378
   69CHL1    O3 7515   4.510   2.729   6.661  0.0023 -0.4500 -0.3350
   69CHL1   H3' 7516   4.415   2.744   6.669  0.0863  2.6203 -3.0360
   69CHL1    C4 7517   4.456   2.585   6.842  0.7409  0.1545 -0.7784
   69CHL1   H4A 7518   4.348   2.609   6.840  0.7899  1.2681  2.6613
   69CHL1   H4B 7519   4.475   2.505   6.768  0.3234  0.7042 -1.4881
   69CHL1    C5 7520   4.474   2.540   6.989  0.3384  0.1931  0.0475
   69CHL1    C6 7521   4.506   2.411   7.024  0.3777 -0.7311 -0.0162
   69CHL1    H6 7522   4.531   2.334   6.950 -0.5828 -0.5741 -0.5310
   69CHL1    C7 7523   4.500   2.373   7.171 -0.5516 -0.0026 -0.5063
   69CHL1   H7A 7524   4.446   2.276   7.184  1.5848 -1.0866  0.8214
   69CHL1   H7B 7525   4.604   2.360   7.209 -0.5500 -1.5032 -0.9409
   69CHL1    C8 7526   4.439   2.477   7.273  0.6459 -0.1725 -0.0054
   69CHL1    H8 7527   4.328   2.472   7.274  0.6967 -1.9499  0.5213
   69CHL1   C14 7528   4.488   2.448   7.415  0.5726  0.2785 -0.2634
   69CHL1   H14 7529   4.598   2.460   7.421  0.7534 -1.4615  0.5030
   69CHL1   C15 7530   4.467   2.308   7.474  0.1086 -0.5080 -0.2852
   69CHL1  H15A 7531   4.364   2.267   7.460  0.3452 -0.7951 -1.3412
   69CHL1  H15B 7532   4.532   2.227   7.434 -1.3145 -1.5013 -0.6838
   69CHL1   C16 7533   4.486   2.328   7.625 -0.3415  0.1823 -0.3839
   69CHL1  H16A 7534   4.399   2.285   7.680  0.0030  0.0071  0.0360
   69CHL1  H16B 7535   4.578   2.274   7.660  0.3737 -0.3811 -2.9358
   69CHL1   C17 7536   4.498   2.481   7.654  0.8859 -0.4929 -0.4394
   69CHL1   H17 7537   4.604   2.513   7.652  0.1831  1.9873 -0.6464
   69CHL1   C13 7538   4.439   2.545   7.525 -0.0499  0.1925  0.4300
   69CHL1   C18 7539   4.278   2.534   7.532 -0.0423 -0.6337 -0.3096
   69CHL1  H18A 7540   4.232   2.599   7.610  0.7478 -0.6880  0.2140
   69CHL1  H18B 7541   4.239   2.572   7.435 -0.1850 -0.3971 -0.1624
   69CHL1  H18C 7542   4.243   2.430   7.550 -1.1374 -0.0481  1.1656
   69CHL1   C12 7543   4.483   2.687   7.493  0.2998  0.3768 -0.5331
   69CHL1  H12A 7544   4.440   2.765   7.560 -0.0060  0.5511 -0.9257
   69CHL1  H12B 7545   4.591   2.699   7.515  0.5762 -0.3055 -1.4712
   69CHL1   C11 7546   4.449   2.719   7.344 -0.1443 -0.5069 -0.2596
   69CHL1  H11A 7547   4.340   2.740   7.346  0.3454  2.4476  2.0464
   69CHL1  H11B 7548   4.497   2.816   7.320 -2.4340  0.5087 -1.0269
   69CHL1    C9 7549   4.493   2.612   7.240 -0.2554 -0.6710  0.5916
   69CHL1    H9 7550   4.604   2.607   7.249  0.8241 -0.5388 -6.4805
   69CHL1   C10 7551   4.452   2.654   7.092  0.3131  0.5946  0.3523
   69CHL1   C19 7552   4.297   2.684   7.090  0.2144 -0.5073  1.0583
   69CHL1  H19A 7553   4.225   2.608   7.128 -1.1721  0.0305 -0.3860
   69CHL1  H19B 7554   4.269   2.773   7.151 -1.1863  1.3195 -2.0162
   69CHL1  H19C 7555   4.268   2.721   6.990  0.1337 -0.9464  0.9204
   69CHL1    C1 7556   4.534   2.779   7.043  0.0246 -0.2954 -0.1007
   69CHL1   H1A 7557   4.516   2.868   7.106 -2.8863 -1.3556  0.7107
   69CHL1   H1B 7558   4.639   2.744   7.058 -0.2884 -1.1284  0.1625
   69CHL1    C2 7559   4.519   2.817   6.901  0.4203  0.4831  0.3450
   69CHL1   H2A 7560   4.576   2.908   6.873  0.7213  0.6738  1.5357
   69CHL1   H2B 7561   4.414   2.851   6.882  0.6019  0.2213 -1.2994
   69CHL1   C20 7562   4.439   2.517   7.789  0.5185  0.8610 -0.2913
   69CHL1   H20 7563   4.334   2.487   7.810  1.0053  1.0288  2.9833
   69CHL1   C21 7564   4.443   2.664   7.817 -0.1982 -0.3839 -0.3426
   69CHL1  H21A 7565   4.550   2.694   7.819 -0.1606 -0.4058  2.6315
   69CHL1  H21B 7566   4.402   2.691   7.917  1.8564 -1.5413  0.8744
   69CHL1  H21C 7567   4.386   2.713   7.735  1.1280 -0.9083 -1.6202
   69CHL1   C22 7568   4.503   2.442   7.909 -0.4849 -0.4267  0.2138
   69CHL1  H22A 7569   4.458   2.484   8.002 -1.2316 -0.4833 -0.1196
   69CHL1  H22B 7570   4.487   2.332   7.909  1.5242 -0.7672  1.2152
   69CHL1   C23 7571   4.649   2.470   7.928  0.0024  0.3365 -0.0992
   69CHL1  H23A 7572   4.710   2.430   7.844  0.5315  0.1846  0.3533
   69CHL1  H23B 7573   4.676   2.578   7.934  0.5394  0.1803  0.3136
   69CHL1   C24 7574   4.698   2.391   8.052  0.1002  0.1887 -0.3303
   69CHL1  H24A 7575   4.669   2.442   8.146  1.9741  2.7071 -1.0105
   69CHL1  H24B 7576   4.655   2.288   8.054  1.3276 -0.3402  0.3085
   69CHL1   C25 7577   4.846   2.377   8.053 -0.9318 -0.4331 -0.0082
   69CHL1   H25 7578   4.883   2.328   7.961  0.5065 -1.7485  1.2177
   69CHL1   C26 7579   4.928   2.516   8.065  0.2595 -0.0837  0.2126
   69CHL1  H26A 7580   5.039   2.512   8.069  0.4987  3.2615 -0.5495
   69CHL1  H26B 7581   4.918   2.574   7.970 -2.4099  0.7221  0.9109
   69CHL1  H26C 7582   4.890   2.578   8.149 -1.3578  0.1646 -0.6514
   69CHL1   C27 7583   4.890   2.285   8.166 -0.8330  0.1700  0.5990
   69CHL1  H27A 7584   5.000   2.281   8.181 -0.9403 -0.8564  1.2168
   69CHL1  H27B 7585   4.844   2.302   8.265  0.5313  0.1314  1.2565
   69CHL1  H27C 7586   4.862   2.179   8.146  3.0622 -0.8919 -0.1961
   70CHL1    C3 7587   4.920   0.219   6.872 -0.3539  0.7891 -0.4242
   70CHL1    H3 7588   5.028   0.214   6.845 -0.6695 -0.2899 -1.5975
   70CHL1    O3 7589   4.856   0.239   6.748 -0.2113 -0.5740  0.3792
   70CHL1   H3' 7590   4.770   0.264   6.783  0.6678  0.5655  1.7659
   70CHL1    C4 7591   4.865   0.095   6.943 -1.0315 -0.1312  0.1795
   70CHL1   H4A 7592   4.754   0.098   6.938 -0.9953  1.1579 -0.2526
   70CHL1   H4B 7593   4.871   0.002   6.882  1.0074 -0.7689  1.2739
   70CHL1    C5 7594   4.924   0.083   7.080  0.4157 -0.7594  0.1101
   70CHL1    C6 7595   4.994  -0.020   7.120  0.2524 -0.7300 -0.8607
   70CHL1    H6 7596   5.019  -0.099   7.047  3.0269 -0.4308 -0.3199
   70CHL1    C7 7597   5.029  -0.044   7.268  0.0102  0.2149  0.4338
   70CHL1   H7A 7598   5.010  -0.153   7.284 -0.5931  0.3596  0.7092
   70CHL1   H7B 7599   5.139  -0.032   7.284  0.7609 -2.0339 -2.2295
   70CHL1    C8 7600   4.956   0.046   7.369 -0.1186 -0.1108  0.1924
   70CHL1    H8 7601   4.853   0.004   7.377  0.1666 -1.0808 -0.8633
   70CHL1   C14 7602   5.032   0.045   7.497  0.3561 -0.1052 -0.1745
   70CHL1   H14 7603   5.131   0.085   7.468  1.2732 -0.7644  1.8117
   70CHL1   C15 7604   5.049  -0.091   7.570  0.7963  0.0422  0.1107
   70CHL1  H15A 7605   4.944  -0.128   7.572  0.1131  1.8159 -0.2841
   70CHL1  H15B 7606   5.102  -0.168   7.511  2.0773  1.2055 -0.2953
   70CHL1   C16 7607   5.101  -0.050   7.711  0.1287 -0.6981 -0.3271
   70CHL1  H16A 7608   5.023  -0.097   7.776 -0.0973 -0.5991 -0.5258
   70CHL1  H16B 7609   5.200  -0.099   7.722  1.3312  1.4167 -1.3119
   70CHL1   C17 7610   5.090   0.104   7.709  0.4215 -1.1406  0.5589
   70CHL1   H17 7611   5.187   0.136   7.665 -0.0512  1.6402  1.3986
   70CHL1   C13 7612   4.985   0.147   7.605 -0.9044  0.5301  0.4790
   70CHL1   C18 7613   4.842   0.115   7.645  0.5808 -0.5582 -0.1630
   70CHL1  H18A 7614   4.775   0.081   7.562  0.6357  0.0166 -0.4460
   70CHL1  H18B 7615   4.854   0.029   7.714  0.3912  1.0133  1.8985
   70CHL1  H18C 7616   4.782   0.188   7.704  2.3876  0.5984  0.3187
   70CHL1   C12 7617   4.989   0.292   7.544  0.2935  0.8987  0.1660
   70CHL1  H12A 7618   4.954   0.355   7.629 -1.2867 -3.0711  2.7774
   70CHL1  H12B 7619   5.093   0.323   7.525  0.8146 -0.3682  0.8264
   70CHL1   C11 7620   4.909   0.297   7.413 -1.0610  0.2271 -0.4401
   70CHL1  H11A 7621   4.802   0.279   7.437 -0.8869  1.1014  1.1133
   70CHL1  H11B 7622   4.919   0.398   7.367  1.1792 -0.6723 -2.1768
   70CHL1    C9 7623   4.957   0.192   7.311 -0.1729  0.6942 -0.4536
   70CHL1    H9 7624   5.062   0.216   7.285 -0.5376  0.0424 -2.7193
   70CHL1   C10 7625   4.884   0.200   7.172 -0.1835 -0.3328 -0.4216
   70CHL1   C19 7626   4.740   0.214   7.197  0.4840  0.9966 -0.7627
   70CHL1  H19A 7627   4.690   0.209   7.098 -0.9912 -4.0287 -0.0520
   70CHL1  H19B 7628   4.701   0.128   7.254  2.1340  0.0042 -1.0599
   70CHL1  H19C 7629   4.711   0.316   7.231 -0.2010  1.0145 -1.3715
   70CHL1    C1 7630   4.949   0.330   7.095  0.5488  0.5354 -0.2334
   70CHL1   H1A 7631   4.929   0.419   7.158  0.7045  0.6169 -0.2997
   70CHL1   H1B 7632   5.059   0.316   7.091  0.3653 -0.9425 -0.8992
   70CHL1    C2 7633   4.904   0.349   6.948 -0.0744 -0.7277  1.4627
   70CHL1   H2A 7634   4.959   0.428   6.893 -1.8182 -1.0301 -0.8736
   70CHL1   H2B 7635   4.795   0.371   6.944 -0.0978 -0.8198  1.6078
   70CHL1   C20 7636   5.088   0.192   7.836 -0.0034  0.4117 -0.5359
   70CHL1   H20 7637   5.067   0.295   7.802 -0.3979  1.6633  3.0684
   70CHL1   C21 7638   5.229   0.188   7.898  0.0326  0.0282  0.7260
   70CHL1  H21A 7639   5.301   0.223   7.821 -2.5312  0.2692 -1.7115
   70CHL1  H21B 7640   5.258   0.088   7.936 -0.4145 -0.2791  0.2638
   70CHL1  H21C 7641   5.249   0.266   7.975  1.2052  0.9862 -0.4920
   70CHL1   C22 7642   4.983   0.172   7.942 -0.3627 -0.7146 -0.7485
   70CHL1  H22A 7643   4.886   0.196   7.894 -0.8476 -0.2198  0.4230
   70CHL1  H22B 7644   4.974   0.073   7.990 -2.8933  0.0584  0.5644
   70CHL1   C23 7645   4.991   0.261   8.073  0.0777 -0.7014 -0.2464
   70CHL1  H23A 7646   5.094   0.256   8.113 -0.6794  0.4802  2.0308
   70CHL1  H23B 7647   4.969   0.367   8.046 -1.0223 -0.7561  0.3565
   70CHL1   C24 7648   4.910   0.202   8.197  1.0692 -0.2193 -0.5508
   70CHL1  H24A 7649   4.820   0.175   8.139  1.6909 -0.1995 -1.5410
   70CHL1  H24B 7650   4.954   0.105   8.232 -1.3948 -1.5126 -0.8539
   70CHL1   C25 7651   4.882   0.305   8.305  0.2714  0.2458  0.3298
   70CHL1   H25 7652   4.836   0.393   8.255  0.8499 -0.6993 -2.0330
   70CHL1   C26 7653   4.796   0.245   8.416  0.0870  0.6203  0.5803
   70CHL1  H26A 7654   4.692   0.228   8.381 -0.3346  2.9744  0.5637
   70CHL1  H26B 7655   4.841   0.149   8.449  0.5423  0.8876  0.7497
   70CHL1  H26C 7656   4.806   0.307   8.507 -0.2094  0.8723  0.4433
   70CHL1   C27 7657   5.005   0.381   8.362  0.1249 -0.9881  0.0834
   70CHL1  H27A 7658   5.036   0.463   8.294  1.7907 -0.4447  1.4370
   70CHL1  H27B 7659   4.968   0.435   8.452 -0.6752  0.5439 -1.1153
   70CHL1  H27C 7660   5.091   0.312   8.377 -0.1911 -1.6768 -1.1915
   71CHL1    C3 7661   2.748   2.027   6.561 -0.4072 -0.5076  0.1639
   71CHL1    H3 7662   2.852   1.989   6.562  0.2636  1.2216  0.5091
   71CHL1    O3 7663   2.711   2.076   6.431  0.7620 -0.4028  0.1141
   71CHL1   H3' 7664   2.651   2.149   6.443 -0.4471 -1.1077 -1.3352
   71CHL1    C4 7665   2.653   1.918   6.611  0.0198 -0.4753 -0.1138
   71CHL1   H4A 7666   2.550   1.956   6.592  0.1791 -0.8922 -1.9585
   71CHL1   H4B 7667   2.654   1.828   6.546 -2.3372 -1.6932  1.3877
   71CHL1    C5 7668   2.685   1.872   6.751  0.0627 -0.2294 -0.2610
   71CHL1    C6 7669   2.720   1.747   6.788  0.0769 -0.3843  0.0980
   71CHL1    H6 7670   2.722   1.665   6.715  3.2947  1.1496 -1.7322
   71CHL1    C7 7671   2.758   1.707   6.929 -0.9959  0.0453  0.0891
   71CHL1   H7A 7672   2.706   1.613   6.959  0.5878 -0.9458 -0.1479
   71CHL1   H7B 7673   2.868   1.702   6.941 -0.7541 -0.6724 -2.0975
   71CHL1    C8 7674   2.706   1.821   7.026 -0.7945  0.9251 -0.2035
   71CHL1    H8 7675   2.595   1.823   7.029 -0.7712  1.6661  1.3844
   71CHL1   C14 7676   2.751   1.790   7.167 -0.0410  0.2022  0.4133
   71CHL1   H14 7677   2.860   1.809   7.162 -0.5269  3.2559 -1.4840
   71CHL1   C15 7678   2.735   1.654   7.235 -0.4395  0.0994  0.2416
   71CHL1  H15A 7679   2.638   1.611   7.202 -0.7473  0.7806  0.2364
   71CHL1  H15B 7680   2.822   1.588   7.219  0.5018  1.1126  1.0411
   71CHL1   C16 7681   2.735   1.691   7.381 -0.1049 -0.0072 -0.8319
   71CHL1  H16A 7682   2.628   1.697   7.410 -0.2232 -0.2867 -1.1974
   71CHL1  H16B 7683   2.798   1.619   7.437  2.8247  0.2738 -3.4932
   71CHL1   C17 7684   2.782   1.837   7.394  0.1153 -0.2522  0.1309
   71CHL1   H17 7685   2.889   1.829   7.368  0.0467  1.5771 -0.9295
   71CHL1   C13 7686   2.718   1.898   7.270 -0.1412 -0.5327  0.0161
   71CHL1   C18 7687   2.562   1.920   7.284 -0.2926 -0.6099 -0.4447
   71CHL1  H18A 7688   2.505   1.830   7.317  0.6871 -1.2911 -0.5732
   71CHL1  H18B 7689   2.549   1.995   7.365 -2.6438  1.2373 -2.3711
   71CHL1  H18C 7690   2.529   1.966   7.189  1.5833  1.6439 -0.0915
   71CHL1   C12 7691   2.786   2.034   7.232  0.1471  0.1634  0.0384
   71CHL1  H12A 7692   2.748   2.097   7.316 -1.4750 -0.6763 -0.0217
   71CHL1  H12B 7693   2.895   2.010   7.235  0.0116 -1.1192 -2.6048
   71CHL1   C11 7694   2.747   2.071   7.090 -0.1454  0.3447  0.2418
   71CHL1  H11A 7695   2.640   2.101   7.091 -1.0896 -2.5564 -1.1640
   71CHL1  H11B 7696   2.807   2.155   7.050 -0.5686  0.4005 -0.2977
   71CHL1    C9 7697   2.762   1.953   6.987  0.1464  0.2959 -0.6058
   71CHL1    H9 7698   2.871   1.945   6.969  0.1672  1.6243 -1.1971
   71CHL1   C10 7699   2.689   1.983   6.853 -0.0768  0.0404 -0.7557
   71CHL1   C19 7700   2.541   2.035   6.862 -0.5963  0.1546 -0.4261
   71CHL1  H19A 7701   2.485   1.949   6.905 -1.0198  1.6260  2.2196
   71CHL1  H19B 7702   2.522   2.132   6.912 -3.0139  0.1456 -1.2334
   71CHL1  H19C 7703   2.493   2.062   6.766 -0.2883  5.0038  0.4904
   71CHL1    C1 7704   2.768   2.110   6.792  0.5092  0.0315 -0.4532
   71CHL1   H1A 7705   2.745   2.194   6.861  1.8425  1.2233 -1.3968
   71CHL1   H1B 7706   2.879   2.106   6.799  0.4181 -0.8255  0.6770
   71CHL1    C2 7707   2.734   2.141   6.652 -0.4617  0.0618 -0.4929
   71CHL1   H2A 7708   2.815   2.212   6.625  0.6218 -1.1779 -0.5911
   71CHL1   H2B 7709   2.637   2.195   6.645 -0.5968 -0.1390 -0.1490
   71CHL1   C20 7710   2.750   1.897   7.528  0.1455 -0.1435 -0.1104
   71CHL1   H20 7711   2.677   1.979   7.514  2.0490  2.1160  2.1925
   71CHL1   C21 7712   2.875   1.970   7.570  0.0847 -0.0712  0.6722
   71CHL1  H21A 7713   2.956   1.896   7.585 -0.5762 -1.0809 -0.5190
   71CHL1  H21B 7714   2.877   2.024   7.667  3.9381  1.4596 -0.0851
   71CHL1  H21C 7715   2.894   2.037   7.483 -0.1360 -1.2086 -0.2749
   71CHL1   C22 7716   2.699   1.799   7.631  0.7564  0.4286 -0.4741
   71CHL1  H22A 7717   2.607   1.745   7.602 -1.3850  1.2154  3.9800
   71CHL1  H22B 7718   2.781   1.730   7.661  0.4939  0.6404  0.8077
   71CHL1   C23 7719   2.651   1.865   7.761 -0.1092  0.3833  0.3614
   71CHL1  H23A 7720   2.723   1.935   7.809  0.9121  0.1379 -0.7725
   71CHL1  H23B 7721   2.557   1.920   7.738 -1.1082 -0.7825  1.4801
   71CHL1   C24 7722   2.629   1.767   7.882 -0.5143 -0.0290 -0.4581
   71CHL1  H24A 7723   2.564   1.820   7.955  0.1475  1.9896 -1.2567
   71CHL1  H24B 7724   2.569   1.686   7.836  1.3599 -1.2413 -0.8390
   71CHL1   C25 7725   2.750   1.693   7.943  0.3328  0.5328  0.0097
   71CHL1   H25 7726   2.807   1.650   7.858  0.9727 -1.4736  1.3909
   71CHL1   C26 7727   2.840   1.789   8.022 -0.1401 -0.3074 -0.0190
   71CHL1  H26A 7728   2.886   1.863   7.953 -0.8930  0.6927  0.5276
   71CHL1  H26B 7729   2.785   1.844   8.101 -2.0449 -1.3536 -0.5399
   71CHL1  H26C 7730   2.919   1.727   8.071 -0.7333 -0.7742  0.3654
   71CHL1   C27 7731   2.715   1.568   8.034  0.1631  0.4196 -0.5274
   71CHL1  H27A 7732   2.809   1.513   8.056 -0.9624 -0.3436  3.0840
   71CHL1  H27B 7733   2.661   1.606   8.124  0.6828 -1.3532  0.5813
   71CHL1  H27C 7734   2.645   1.501   7.979 -1.1254  2.9223 -2.1546
   72CHL1    C3 7735   5.366   6.833   6.925 -0.1944  0.0741  0.2619
   72CHL1    H3 7736   5.262   6.840   6.965 -1.1021 -1.2171 -1.7089
   72CHL1    O3 7737   5.361   6.832   6.782  0.1547 -0.7959 -0.1178
   72CHL1   H3' 7738   5.442   6.789   6.752  1.5266 -0.4504  2.7898
   72CHL1    C4 7739   5.460   6.944   6.980 -0.7568  0.0686  1.2920
   72CHL1   H4A 7740   5.552   6.943   6.917 -2.3990 -1.3118 -1.2614
   72CHL1   H4B 7741   5.409   7.039   6.956 -2.2090 -1.1607 -0.7805
   72CHL1    C5 7742   5.468   6.914   7.132 -0.6224  0.6446 -0.5398
   72CHL1    C6 7743   5.432   7.011   7.219  0.4034 -0.0536  0.1001
   72CHL1    H6 7744   5.404   7.112   7.185  0.0445  0.3535  1.5599
   72CHL1    C7 7745   5.456   7.005   7.366  0.3220 -0.3787 -0.0908
   72CHL1   H7A 7746   5.497   7.094   7.418 -1.3010 -0.4718  1.4425
   72CHL1   H7B 7747   5.355   6.995   7.411 -0.5047  0.5903 -1.6312
   72CHL1    C8 7748   5.534   6.878   7.409  0.1998  0.5361 -0.0049
   72CHL1    H8 7749   5.639   6.906   7.383  0.4355 -0.5773 -0.2753
   72CHL1   C14 7750   5.525   6.855   7.554 -0.8934  0.5536 -0.2484
   72CHL1   H14 7751   5.419   6.842   7.584 -1.9217  1.7518 -3.0714
   72CHL1   C15 7752   5.571   6.972   7.644 -0.6615 -0.3699 -0.5185
   72CHL1  H15A 7753   5.656   7.020   7.592 -1.7168  1.5596 -0.5342
   72CHL1  H15B 7754   5.490   7.048   7.647 -1.1706 -0.9133  2.2421
   72CHL1   C16 7755   5.595   6.908   7.786  0.5395 -0.3793 -0.2184
   72CHL1  H16A 7756   5.699   6.945   7.796  0.5729 -0.5327 -0.0023
   72CHL1  H16B 7757   5.538   6.940   7.875  1.2643 -0.9996  0.4866
   72CHL1   C17 7758   5.590   6.751   7.765 -1.1650  0.5708  0.2570
   72CHL1   H17 7759   5.486   6.720   7.789 -0.4729 -1.9027  0.3693
   72CHL1   C13 7760   5.606   6.736   7.607 -0.5903  0.3279 -0.4673
   72CHL1   C18 7761   5.759   6.742   7.577  0.5827 -0.0323  0.5129
   72CHL1  H18A 7762   5.789   6.767   7.473  1.0719 -2.0909  0.1161
   72CHL1  H18B 7763   5.812   6.816   7.641 -1.0160  0.4576  1.3156
   72CHL1  H18C 7764   5.800   6.638   7.584 -2.3799 -1.6606 -2.9740
   72CHL1   C12 7765   5.556   6.602   7.543 -0.4056  0.2613  0.7669
   72CHL1  H12A 7766   5.627   6.523   7.572 -0.3681  0.2191  0.5597
   72CHL1  H12B 7767   5.453   6.586   7.582  0.0192  1.5571  2.5727
   72CHL1   C11 7768   5.550   6.615   7.383  0.6753 -0.2276 -0.3273
   72CHL1  H11A 7769   5.651   6.599   7.339  1.6698  0.2486  1.6929
   72CHL1  H11B 7770   5.489   6.530   7.344 -1.1329  0.7431  0.2860
   72CHL1    C9 7771   5.494   6.753   7.328  1.0479 -0.4225  0.2463
   72CHL1    H9 7772   5.384   6.742   7.342  0.8540  0.4218 -0.5354
   72CHL1   C10 7773   5.513   6.784   7.177  0.7902  0.4959  1.0760
   72CHL1   C19 7774   5.659   6.784   7.140  0.2631  0.0398 -0.2839
   72CHL1  H19A 7775   5.699   6.683   7.165 -0.5036  0.5321  3.7630
   72CHL1  H19B 7776   5.679   6.809   7.034  0.9842  0.7793  0.0173
   72CHL1  H19C 7777   5.723   6.855   7.197  0.8717 -0.2983 -0.5416
   72CHL1    C1 7778   5.448   6.662   7.096 -0.1242 -0.3715  0.1564
   72CHL1   H1A 7779   5.514   6.574   7.113  0.0334 -0.4211 -0.7001
   72CHL1   H1B 7780   5.345   6.647   7.134 -1.6913 -0.4137 -3.6832
   72CHL1    C2 7781   5.430   6.693   6.947 -0.1597  0.1985 -0.1541
   72CHL1   H2A 7782   5.376   6.604   6.909  0.1884 -1.0484  2.0496
   72CHL1   H2B 7783   5.531   6.676   6.905  0.2869 -1.6166  1.4967
   72CHL1   C20 7784   5.685   6.670   7.859  0.5216 -0.4483 -0.4724
   72CHL1   H20 7785   5.789   6.706   7.841  0.2055 -0.0472 -1.6079
   72CHL1   C21 7786   5.670   6.521   7.837 -0.2164  0.4203 -0.6258
   72CHL1  H21A 7787   5.732   6.487   7.751 -0.6706  0.2143 -0.8751
   72CHL1  H21B 7788   5.562   6.509   7.814 -0.3886  1.9565 -0.6894
   72CHL1  H21C 7789   5.700   6.457   7.923  0.7441 -0.7170 -1.7559
   72CHL1   C22 7790   5.641   6.705   8.006  0.0677  0.3774  0.5978
   72CHL1  H22A 7791   5.716   6.657   8.073 -0.9271 -1.3340  0.5399
   72CHL1  H22B 7792   5.647   6.816   8.015  1.7531  0.3090  0.6672
   72CHL1   C23 7793   5.503   6.661   8.052 -0.4189  0.1327  0.5009
   72CHL1  H23A 7794   5.425   6.714   7.993 -0.5356 -0.2793  0.2804
   72CHL1  H23B 7795   5.485   6.553   8.033 -2.3831  0.8290 -2.2580
   72CHL1   C24 7796   5.475   6.679   8.205 -0.6316  0.0998  0.1769
   72CHL1  H24A 7797   5.378   6.628   8.227 -1.0101  0.0572 -1.4544
   72CHL1  H24B 7798   5.557   6.625   8.258 -0.3750 -0.4358 -0.7323
   72CHL1   C25 7799   5.455   6.816   8.268 -0.5345 -0.0922  0.3639
   72CHL1   H25 7800   5.558   6.856   8.278 -0.9689  1.3331 -0.4545
   72CHL1   C26 7801   5.367   6.908   8.192  0.1080  0.1289  0.9416
   72CHL1  H26A 7802   5.356   7.012   8.228 -3.2992  0.1029  0.3228
   72CHL1  H26B 7803   5.405   6.917   8.088 -1.0510  0.5580  0.5482
   72CHL1  H26C 7804   5.264   6.868   8.185 -0.7075  2.2892 -0.3874
   72CHL1   C27 7805   5.409   6.799   8.411  0.1811 -0.4110  0.5730
   72CHL1  H27A 7806   5.314   6.742   8.419  0.8890 -1.5927  0.8972
   72CHL1  H27B 7807   5.491   6.755   8.472  1.1232 -1.0356 -1.0747
   72CHL1  H27C 7808   5.392   6.904   8.442  2.2779  0.2635 -0.3517
   73CHL1    C3 7809   4.939   2.852   6.902 -0.3261  0.7221 -0.6431
   73CHL1    H3 7810   4.836   2.813   6.885 -0.6139  1.3481 -0.3602
   73CHL1    O3 7811   5.016   2.854   6.780 -0.3246  0.5585 -0.4884
   73CHL1   H3' 7812   5.074   2.929   6.787 -0.7352  0.8806 -0.5023
   73CHL1    C4 7813   4.933   2.993   6.970  0.2841  0.4426 -0.0904
   73CHL1   H4A 7814   5.040   3.022   6.976 -0.2519  2.6011 -0.2375
   73CHL1   H4B 7815   4.890   3.058   6.891  2.0955 -0.3333 -1.7998
   73CHL1    C5 7816   4.882   3.002   7.115 -0.0281 -0.0051 -0.0342
   73CHL1    C6 7817   4.790   3.087   7.154 -0.0337 -0.3706 -0.9960
   73CHL1    H6 7818   4.753   3.154   7.075  1.7084  1.1393 -0.6072
   73CHL1    C7 7819   4.741   3.102   7.299 -0.0974  0.1259  0.2948
   73CHL1   H7A 7820   4.716   3.208   7.319  1.9234  0.3664  1.9316
   73CHL1   H7B 7821   4.646   3.047   7.313  0.0445 -0.2040 -0.0342
   73CHL1    C8 7822   4.830   3.038   7.400  0.7693  0.1648  0.8304
   73CHL1    H8 7823   4.920   3.103   7.408  0.2457  1.1927 -1.0979
   73CHL1   C14 7824   4.762   3.039   7.540 -0.5364  0.7082 -0.2740
   73CHL1   H14 7825   4.672   2.975   7.529 -0.9622  1.1477  0.5667
   73CHL1   C15 7826   4.705   3.165   7.590  0.2356 -0.4848  0.6555
   73CHL1  H15A 7827   4.776   3.246   7.562  1.2288 -0.9765  1.6821
   73CHL1  H15B 7828   4.607   3.186   7.542  1.1096  3.1830  0.1828
   73CHL1   C16 7829   4.711   3.150   7.743  0.0290 -0.4236 -0.2194
   73CHL1  H16A 7830   4.793   3.207   7.792  0.6167 -0.7164 -0.8384
   73CHL1  H16B 7831   4.612   3.172   7.788  0.7579  1.5059  0.5782
   73CHL1   C17 7832   4.759   3.004   7.772  0.0590 -0.0720  0.2935
   73CHL1   H17 7833   4.675   2.931   7.772  0.2183 -0.2545  0.5831
   73CHL1   C13 7834   4.845   2.971   7.651 -0.4885  0.2193  0.4417
   73CHL1   C18 7835   4.984   3.034   7.673  0.3657 -0.6071 -0.4758
   73CHL1  H18A 7836   5.052   2.960   7.721 -0.4102 -2.3182 -1.8972
   73CHL1  H18B 7837   5.037   3.071   7.583 -0.8088 -0.2780 -1.0451
   73CHL1  H18C 7838   4.980   3.121   7.742 -0.1134 -3.2477  3.1942
   73CHL1   C12 7839   4.859   2.827   7.608 -0.0935  0.6610  0.3535
   73CHL1  H12A 7840   4.924   2.759   7.666 -1.1199 -1.5437 -0.9245
   73CHL1  H12B 7841   4.764   2.770   7.598 -0.1899  0.8010  0.4585
   73CHL1   C11 7842   4.934   2.818   7.469 -0.0071 -0.6400 -0.3108
   73CHL1  H11A 7843   5.032   2.869   7.476  0.4328 -1.6130  0.7473
   73CHL1  H11B 7844   4.953   2.710   7.451  0.8045 -0.9256  1.9514
   73CHL1    C9 7845   4.857   2.893   7.352  0.7358 -0.5866 -0.3645
   73CHL1    H9 7846   4.756   2.847   7.346  0.7586 -0.4531 -2.5788
   73CHL1   C10 7847   4.932   2.901   7.213  0.9893 -0.1137 -0.8725
   73CHL1   C19 7848   5.075   2.947   7.240 -0.5161 -0.0838  0.8544
   73CHL1  H19A 7849   5.128   2.988   7.151  2.6330 -1.4852  1.9161
   73CHL1  H19B 7850   5.088   3.016   7.326 -0.1895 -1.6840  2.1490
   73CHL1  H19C 7851   5.139   2.862   7.272 -1.1368 -0.4488  1.1457
   73CHL1    C1 7852   4.934   2.754   7.142 -0.0955 -0.8212  0.1958
   73CHL1   H1A 7853   4.976   2.674   7.206 -3.0833 -1.5993  1.3682
   73CHL1   H1B 7854   4.826   2.739   7.118 -0.4854 -0.9488  1.8439
   73CHL1    C2 7855   5.000   2.747   6.999  0.5061 -0.4196  0.0165
   73CHL1   H2A 7856   4.980   2.648   6.953  0.8313  0.1560 -1.3900
   73CHL1   H2B 7857   5.110   2.761   6.996  0.3542  2.1492  2.6569
   73CHL1   C20 7858   4.821   2.999   7.917  0.0353 -0.4113  0.1555
   73CHL1   H20 7859   4.914   3.060   7.916  0.2902 -0.6814  2.2755
   73CHL1   C21 7860   4.853   2.852   7.953  0.1370  0.1051 -0.2649
   73CHL1  H21A 7861   4.753   2.805   7.955 -0.2922  1.0361  0.6358
   73CHL1  H21B 7862   4.909   2.833   8.047  1.2393  0.0343 -0.9094
   73CHL1  H21C 7863   4.916   2.807   7.873  2.1720 -2.4543  2.5519
   73CHL1   C22 7864   4.728   3.063   8.020  0.2967  0.3097  0.1329
   73CHL1  H22A 7865   4.741   3.172   8.028 -0.5414  0.6493 -2.2415
   73CHL1  H22B 7866   4.625   3.037   7.987  0.0486  0.5559  0.7010
   73CHL1   C23 7867   4.735   3.017   8.166  1.0411  0.1373  0.1414
   73CHL1  H23A 7868   4.680   2.922   8.182  0.3912  0.5906  0.6760
   73CHL1  H23B 7869   4.843   3.007   8.189  1.4932  1.5866 -1.2123
   73CHL1   C24 7870   4.662   3.122   8.249 -0.6382  0.2512 -0.0112
   73CHL1  H24A 7871   4.726   3.212   8.258 -1.1202  0.7929 -1.5343
   73CHL1  H24B 7872   4.570   3.152   8.194 -0.4845 -1.2131 -1.1381
   73CHL1   C25 7873   4.622   3.071   8.388  0.2809 -0.1709  0.1492
   73CHL1   H25 7874   4.558   2.980   8.380  1.9248 -1.2873 -1.2375
   73CHL1   C26 7875   4.739   3.041   8.475 -0.2967  0.0642  0.1386
   73CHL1  H26A 7876   4.806   2.964   8.431 -0.3825 -0.7889  1.4399
   73CHL1  H26B 7877   4.808   3.128   8.476  0.6501 -0.6118 -1.7883
   73CHL1  H26C 7878   4.702   3.017   8.577 -1.6887  2.9683  0.3976
   73CHL1   C27 7879   4.541   3.188   8.456 -0.1241  0.6398  0.3080
   73CHL1  H27A 7880   4.455   3.210   8.389 -0.6800 -0.5066  0.6131
   73CHL1  H27B 7881   4.488   3.165   8.551 -1.2956  1.4407 -0.1178
   73CHL1  H27C 7882   4.610   3.273   8.469  1.9743 -1.2203  2.1600
   74CHL1    C3 7883   2.133   1.068   6.850  0.6191  0.6073  0.5848
   74CHL1    H3 7884   2.238   1.079   6.882  0.9145  3.5244 -1.0326
   74CHL1    O3 7885   2.132   0.996   6.726  0.8476  0.0982  0.1559
   74CHL1   H3' 7886   2.042   0.964   6.718  0.4585  1.2189 -0.0386
   74CHL1    C4 7887   2.058   0.980   6.952  0.5500  0.8413 -0.7014
   74CHL1   H4A 7888   1.959   0.959   6.908  0.0480  0.3634  0.5978
   74CHL1   H4B 7889   2.111   0.885   6.975  0.7954  1.5328  1.9215
   74CHL1    C5 7890   2.031   1.061   7.080  0.4818  0.0944 -0.6244
   74CHL1    C6 7891   2.062   1.003   7.197 -0.2494 -0.5197  0.3157
   74CHL1    H6 7892   2.107   0.903   7.188  0.0998 -0.2551 -0.9937
   74CHL1    C7 7893   2.031   1.064   7.331  0.5457  0.5852 -0.8469
   74CHL1   H7A 7894   1.975   0.990   7.391 -0.0050  0.9043 -0.9614
   74CHL1   H7B 7895   2.114   1.102   7.394  0.4623 -0.4153 -0.1147
   74CHL1    C8 7896   1.931   1.182   7.324  0.3478 -0.1728  0.4078
   74CHL1    H8 7897   1.831   1.136   7.311 -0.1216  0.8444  0.3733
   74CHL1   C14 7898   1.935   1.256   7.456 -0.4442  0.0444  0.9456
   74CHL1   H14 7899   2.040   1.293   7.458 -0.8554  1.2861  0.6042
   74CHL1   C15 7900   1.921   1.174   7.587  0.1735  0.4934  0.5187
   74CHL1  H15A 7901   1.825   1.120   7.571  0.6304  0.2678 -1.8463
   74CHL1  H15B 7902   2.009   1.106   7.594  0.5721  0.4508 -3.0416
   74CHL1   C16 7903   1.907   1.286   7.690  0.0650 -0.7752 -0.4998
   74CHL1  H16A 7904   1.821   1.246   7.748  0.1410 -1.3172 -0.7562
   74CHL1  H16B 7905   2.004   1.294   7.743  0.8638  0.4359 -2.0674
   74CHL1   C17 7906   1.876   1.421   7.612  0.3263 -0.4772 -0.1348
   74CHL1   H17 7907   1.971   1.479   7.613 -0.4345  0.8294 -0.8466
   74CHL1   C13 7908   1.844   1.376   7.462  0.7390 -0.6162  0.7596
   74CHL1   C18 7909   1.695   1.333   7.461 -0.8807 -0.4049  0.5633
   74CHL1  H18A 7910   1.636   1.427   7.465  1.1780  0.9021  1.5447
   74CHL1  H18B 7911   1.684   1.267   7.372  0.8562 -0.7430  0.5783
   74CHL1  H18C 7912   1.675   1.269   7.550 -0.8666 -0.7961  0.2879
   74CHL1   C12 7913   1.890   1.477   7.350  0.2714  0.3731 -0.3296
   74CHL1  H12A 7914   1.830   1.570   7.340  2.2435  1.6271 -1.3569
   74CHL1  H12B 7915   1.996   1.504   7.370 -0.0280  0.7421  0.8056
   74CHL1   C11 7916   1.878   1.409   7.209  0.0269  0.2067  0.8689
   74CHL1  H11A 7917   1.773   1.382   7.187  0.6334  0.1006 -2.3765
   74CHL1  H11B 7918   1.913   1.474   7.127 -0.4116 -0.5622  0.0540
   74CHL1    C9 7919   1.956   1.279   7.203 -0.5429  0.3223 -0.1989
   74CHL1    H9 7920   2.063   1.305   7.222 -0.8304  0.5967  1.1139
   74CHL1   C10 7921   1.962   1.203   7.068 -0.9347  0.5916 -0.0394
   74CHL1   C19 7922   1.818   1.190   7.018  0.3015  0.3308  0.3336
   74CHL1  H19A 7923   1.807   1.125   6.929 -0.8909 -0.1689  0.8287
   74CHL1  H19B 7924   1.738   1.150   7.084  0.6040  1.3498  1.3524
   74CHL1  H19C 7925   1.782   1.288   6.980 -0.8527  1.2400  3.3972
   74CHL1    C1 7926   2.042   1.284   6.961  0.8953 -0.3713  0.4000
   74CHL1   H1A 7927   1.987   1.373   6.926  0.3246 -1.2886 -1.1391
   74CHL1   H1B 7928   2.135   1.323   7.009  1.0299 -1.7176  1.2999
   74CHL1    C2 7929   2.070   1.205   6.828  0.0604  0.0099 -0.4317
   74CHL1   H2A 7930   2.138   1.270   6.769  1.1068  0.1919  0.9418
   74CHL1   H2B 7931   1.975   1.214   6.770  0.3497  0.1946 -0.8788
   74CHL1   C20 7932   1.780   1.511   7.689 -0.1899 -0.7154 -0.1677
   74CHL1   H20 7933   1.689   1.448   7.699  0.1019 -1.7192 -2.8587
   74CHL1   C21 7934   1.745   1.634   7.604 -0.7319 -0.0038  0.1573
   74CHL1  H21A 7935   1.685   1.704   7.665 -0.2372 -0.9119  1.7416
   74CHL1  H21B 7936   1.673   1.609   7.523  1.1189 -0.5027 -1.3981
   74CHL1  H21C 7937   1.835   1.686   7.565 -1.9881  2.3583  0.2325
   74CHL1   C22 7938   1.840   1.550   7.824  0.6695 -0.1499 -0.2467
   74CHL1  H22A 7939   1.812   1.460   7.884  0.0410  1.2925  1.7034
   74CHL1  H22B 7940   1.951   1.551   7.826  0.7419 -2.3397  0.4640
   74CHL1   C23 7941   1.786   1.668   7.903 -0.1290 -0.1911 -0.1569
   74CHL1  H23A 7942   1.830   1.764   7.869 -2.1860  1.2792  1.0508
   74CHL1  H23B 7943   1.681   1.680   7.869 -0.7384 -0.2543  1.5943
   74CHL1   C24 7944   1.801   1.671   8.060 -0.4360  0.2951  0.6862
   74CHL1  H24A 7945   1.729   1.601   8.108 -3.2330  2.4240 -0.1360
   74CHL1  H24B 7946   1.905   1.640   8.081  0.4700  0.7209 -2.6565
   74CHL1   C25 7947   1.781   1.805   8.141  0.2894  0.1406  0.3874
   74CHL1   H25 7948   1.855   1.883   8.112 -3.8156  4.0020 -0.9543
   74CHL1   C26 7949   1.648   1.870   8.104  0.6661 -0.4886 -0.1183
   74CHL1  H26A 7950   1.631   1.879   7.995 -0.4147 -2.2728 -0.1258
   74CHL1  H26B 7951   1.575   1.792   8.135 -0.6368  0.5373 -0.4969
   74CHL1  H26C 7952   1.624   1.962   8.163 -1.1931  0.2591 -1.9093
   74CHL1   C27 7953   1.783   1.774   8.289 -0.0660 -0.8993  0.6834
   74CHL1  H27A 7954   1.708   1.699   8.321 -1.1279 -0.7285 -1.2762
   74CHL1  H27B 7955   1.882   1.730   8.313  0.1770  0.1142  1.6310
   74CHL1  H27C 7956   1.779   1.873   8.339  0.3546 -0.4844 -0.0844
   75CHL1    C3 7957   0.416   2.946   6.550 -0.0221 -0.4292  0.0248
   75CHL1    H3 7958   0.393   3.051   6.577  1.1794  0.1389 -1.0598
   75CHL1    O3 7959   0.402   2.939   6.408 -0.4312  0.2654 -0.3911
   75CHL1   H3' 7960   0.442   2.859   6.373 -1.5293 -0.1258 -0.7984
   75CHL1    C4 7961   0.554   2.892   6.606 -0.1322  0.5444 -0.0679
   75CHL1   H4A 7962   0.569   2.793   6.557 -0.8438 -0.7905  2.2503
   75CHL1   H4B 7963   0.638   2.950   6.563  2.1720 -1.3524  1.6289
   75CHL1    C5 7964   0.560   2.891   6.760 -0.8106 -0.0595 -0.0615
   75CHL1    C6 7965   0.666   2.945   6.822  0.3664 -0.8611 -0.7093
   75CHL1    H6 7966   0.743   3.001   6.768  0.6512  2.1324  2.4385
   75CHL1    C7 7967   0.685   2.952   6.968  0.1293  0.3021 -0.2441
   75CHL1   H7A 7968   0.791   2.930   6.993  0.0978 -0.0304 -0.3896
   75CHL1   H7B 7969   0.648   3.050   7.003 -2.6894 -0.7158 -0.1552
   75CHL1    C8 7970   0.593   2.860   7.046 -0.4023  0.4707  0.1777
   75CHL1    H8 7971   0.640   2.760   7.037  1.0428  0.9115  2.1007
   75CHL1   C14 7972   0.584   2.899   7.193 -0.6013  0.5023 -0.4967
   75CHL1   H14 7973   0.525   2.993   7.201  2.4644  2.7896 -2.6773
   75CHL1   C15 7974   0.722   2.914   7.269  0.0523 -0.0684  0.6337
   75CHL1  H15A 7975   0.782   2.827   7.236 -1.1141 -0.5922 -0.1818
   75CHL1  H15B 7976   0.774   3.010   7.249  2.9837 -1.3967  1.4995
   75CHL1   C16 7977   0.677   2.904   7.414  0.9621 -0.5453  0.0017
   75CHL1  H16A 7978   0.739   2.824   7.461  0.7790 -0.5882  0.1717
   75CHL1  H16B 7979   0.689   2.997   7.474  0.1712 -1.2326  1.2663
   75CHL1   C17 7980   0.528   2.858   7.421  0.2013  0.4720 -0.0189
   75CHL1   H17 7981   0.466   2.950   7.435 -0.0918  0.1791  0.6269
   75CHL1   C13 7982   0.502   2.803   7.279 -1.0986 -0.4665  0.1804
   75CHL1   C18 7983   0.562   2.657   7.270  0.2534  0.5935 -0.3825
   75CHL1  H18A 7984   0.664   2.649   7.313  0.2026 -0.2954 -0.4000
   75CHL1  H18B 7985   0.495   2.588   7.326  1.6158  1.2317  2.1599
   75CHL1  H18C 7986   0.563   2.629   7.162 -1.6017  2.4866 -0.9711
   75CHL1   C12 7987   0.363   2.815   7.228  0.6280 -0.2423 -0.0163
   75CHL1  H12A 7988   0.303   2.738   7.281  0.1118  0.4099  0.3579
   75CHL1  H12B 7989   0.326   2.916   7.254 -0.7263 -0.4501 -1.0454
   75CHL1   C11 7990   0.347   2.785   7.074  0.0056 -0.2907  0.0403
   75CHL1  H11A 7991   0.358   2.676   7.057 -0.4430 -0.4987  0.9894
   75CHL1  H11B 7992   0.247   2.820   7.043  0.4446  1.5179  0.5177
   75CHL1    C9 7993   0.449   2.869   6.992 -0.1901  0.1375 -0.6725
   75CHL1    H9 7994   0.418   2.975   7.004  1.9955  0.7895 -0.3478
   75CHL1   C10 7995   0.437   2.831   6.840 -0.2612  0.0492 -0.2657
   75CHL1   C19 7996   0.455   2.680   6.835 -0.1626  0.0705  1.6966
   75CHL1  H19A 7997   0.361   2.626   6.856  0.7102 -1.6290  1.3856
   75CHL1  H19B 7998   0.485   2.643   6.735  1.2733  2.2577  1.2506
   75CHL1  H19C 7999   0.530   2.648   6.910  0.2672 -0.9909  0.8417
   75CHL1    C1 8000   0.311   2.879   6.770  0.4571 -0.2153 -0.0776
   75CHL1   H1A 8001   0.234   2.814   6.817  0.7428  0.1178  0.8703
   75CHL1   H1B 8002   0.285   2.982   6.802 -2.2096 -0.9933  0.4847
   75CHL1    C2 8003   0.315   2.861   6.624  0.2590 -0.3482  0.5759
   75CHL1   H2A 8004   0.215   2.874   6.577  0.6143  0.8986  0.1243
   75CHL1   H2B 8005   0.342   2.755   6.605 -0.5647 -0.0973 -2.8387
   75CHL1   C20 8006   0.506   2.757   7.545 -0.4418  0.5242  0.8431
   75CHL1   H20 8007   0.561   2.661   7.538  1.3717  1.6160 -1.2492
   75CHL1   C21 8008   0.358   2.725   7.556  0.0011  0.0523 -0.5126
   75CHL1  H21A 8009   0.345   2.666   7.649  1.2823  0.5001 -0.0332
   75CHL1  H21B 8010   0.332   2.666   7.465 -1.7566  1.4989 -1.0140
   75CHL1  H21C 8011   0.301   2.819   7.573 -0.8460 -0.4201 -0.6685
   75CHL1   C22 8012   0.558   2.824   7.678 -0.1102 -0.1957 -0.2789
   75CHL1  H22A 8013   0.652   2.883   7.670 -1.6324  2.3025 -0.9001
   75CHL1  H22B 8014   0.487   2.898   7.721  1.1044 -0.5504  2.5623
   75CHL1   C23 8015   0.573   2.712   7.788  0.2805 -0.4091 -0.1725
   75CHL1  H23A 8016   0.478   2.656   7.800 -0.6097  0.8651 -1.0753
   75CHL1  H23B 8017   0.643   2.630   7.760  0.1195 -0.0158 -1.8919
   75CHL1   C24 8018   0.605   2.767   7.929  0.3973 -0.1480 -0.0693
   75CHL1  H24A 8019   0.706   2.815   7.922  1.0540 -1.6126 -1.1009
   75CHL1  H24B 8020   0.538   2.851   7.958  0.2424  0.8299 -2.8441
   75CHL1   C25 8021   0.638   2.660   8.029  0.0942 -0.3741  0.0694
   75CHL1   H25 8022   0.704   2.585   7.981 -0.3810 -1.3854  0.9592
   75CHL1   C26 8023   0.712   2.717   8.145 -0.5770  0.4969  0.3974
   75CHL1  H26A 8024   0.781   2.798   8.114 -1.8280  1.3437 -0.2765
   75CHL1  H26B 8025   0.639   2.765   8.215  1.5579  1.2784  2.1864
   75CHL1  H26C 8026   0.775   2.644   8.200 -1.2839 -1.2516 -0.9971
   75CHL1   C27 8027   0.506   2.602   8.081 -0.4099  0.6830 -0.8243
   75CHL1  H27A 8028   0.530   2.520   8.151 -1.3699  1.9604  1.0925
   75CHL1  H27B 8029   0.442   2.678   8.131  0.3916  0.9859 -0.2489
   75CHL1  H27C 8030   0.449   2.550   8.001 -2.4740  0.7161  0.5610
   76CHL1    C3 8031   4.522   5.053   7.151  0.4457 -0.2091 -0.3723
   76CHL1    H3 8032   4.420   5.043   7.196  0.0369  1.1466 -0.9691
   76CHL1    O3 8033   4.506   5.032   7.010  0.7081  0.1556 -0.2318
   76CHL1   H3' 8034   4.587   5.056   6.964 -0.7995  2.0845 -2.0447
   76CHL1    C4 8035   4.566   5.197   7.187  0.0783 -0.2010  0.4666
   76CHL1   H4A 8036   4.667   5.206   7.143  0.3079  0.6698  1.1468
   76CHL1   H4B 8037   4.494   5.267   7.139  0.6679  0.1757  0.1263
   76CHL1    C5 8038   4.578   5.218   7.336  0.2618 -0.1671 -0.1453
   76CHL1    C6 8039   4.509   5.319   7.397  0.2481  0.2186 -0.5897
   76CHL1    H6 8040   4.449   5.385   7.332 -0.0358 -0.2842 -0.8425
   76CHL1    C7 8041   4.508   5.342   7.550  0.1565 -0.8958  0.5461
   76CHL1   H7A 8042   4.523   5.450   7.571  3.3754 -0.7944 -1.5646
   76CHL1   H7B 8043   4.414   5.317   7.603  0.8655 -0.7317  1.9173
   76CHL1    C8 8044   4.629   5.267   7.611 -0.1760  0.3897 -0.1074
   76CHL1    H8 8045   4.718   5.323   7.576 -0.7353  1.5193  0.2212
   76CHL1   C14 8046   4.620   5.266   7.767 -0.2738  0.3237  0.0449
   76CHL1   H14 8047   4.522   5.218   7.790 -0.0613  0.6787  1.8555
   76CHL1   C15 8048   4.621   5.412   7.824 -0.1638  0.0686  0.8587
   76CHL1  H15A 8049   4.698   5.475   7.776 -0.3998 -1.4466 -1.7196
   76CHL1  H15B 8050   4.530   5.475   7.814  1.2650  2.2637  1.0656
   76CHL1   C16 8051   4.662   5.385   7.972  0.8813 -0.0172 -0.7944
   76CHL1  H16A 8052   4.761   5.432   7.992  0.6649  0.1742 -0.1741
   76CHL1  H16B 8053   4.586   5.424   8.043 -0.4063 -2.7978 -0.5179
   76CHL1   C17 8054   4.685   5.227   7.985 -0.8059  0.0468 -0.0637
   76CHL1   H17 8055   4.591   5.181   8.022 -1.1437  0.4453 -0.4312
   76CHL1   C13 8056   4.726   5.188   7.840  0.3306 -1.5136 -0.1833
   76CHL1   C18 8057   4.870   5.244   7.811  0.2214  0.1355 -0.9544
   76CHL1  H18A 8058   4.896   5.255   7.704  2.3011  0.5728 -0.4541
   76CHL1  H18B 8059   4.894   5.343   7.857  1.8087 -1.5036  2.0429
   76CHL1  H18C 8060   4.942   5.174   7.857  0.2030  1.4812  1.2917
   76CHL1   C12 8061   4.717   5.044   7.802  0.7827 -0.0781  0.1827
   76CHL1  H12A 8062   4.797   4.986   7.853  0.0457 -1.2112  0.0809
   76CHL1  H12B 8063   4.618   5.007   7.837 -0.6936  2.6626 -0.8049
   76CHL1   C11 8064   4.733   5.029   7.651 -0.2053  0.5684 -0.2104
   76CHL1  H11A 8065   4.839   5.055   7.630  0.4450 -1.5460  0.1621
   76CHL1  H11B 8066   4.717   4.922   7.624  3.6958  0.2464 -1.9712
   76CHL1    C9 8067   4.637   5.123   7.567  0.2254  0.2650  0.0442
   76CHL1    H9 8068   4.536   5.083   7.590  0.2537  0.3006  0.2287
   76CHL1   C10 8069   4.654   5.109   7.411  0.5224  0.2388  0.3553
   76CHL1   C19 8070   4.802   5.121   7.371  0.0557 -0.2667 -0.2072
   76CHL1  H19A 8071   4.861   5.212   7.394 -0.3316  0.0765 -0.5644
   76CHL1  H19B 8072   4.858   5.041   7.425  0.0059  0.5357  1.0610
   76CHL1  H19C 8073   4.814   5.108   7.261  2.9221 -1.7724  0.1862
   76CHL1    C1 8074   4.610   4.962   7.369  0.3335 -0.0226  0.7487
   76CHL1   H1A 8075   4.688   4.891   7.403 -1.2727 -3.4945 -2.1772
   76CHL1   H1B 8076   4.513   4.942   7.418  0.2530  0.0992  0.6413
   76CHL1    C2 8077   4.603   4.940   7.210 -0.2374  0.0907 -0.0298
   76CHL1   H2A 8078   4.555   4.841   7.193  2.0316 -0.8448 -1.3872
   76CHL1   H2B 8079   4.703   4.944   7.162 -0.3365  1.1203 -0.1713
   76CHL1   C20 8080   4.792   5.202   8.100  0.2247 -0.1898 -0.1669
   76CHL1   H20 8081   4.895   5.237   8.078  1.0362 -1.2129  1.7916
   76CHL1   C21 8082   4.814   5.057   8.129 -0.0787  0.0615 -0.1624
   76CHL1  H21A 8083   4.867   5.047   8.227  0.2825  0.7205 -0.2804
   76CHL1  H21B 8084   4.882   5.018   8.050 -1.0564 -1.5036 -0.2636
   76CHL1  H21C 8085   4.723   4.995   8.129  0.5103 -0.8217  0.0520
   76CHL1   C22 8086   4.739   5.261   8.236 -0.1060  0.5563  0.1922
   76CHL1  H22A 8087   4.682   5.356   8.224 -0.2435  0.3933 -0.4815
   76CHL1  H22B 8088   4.654   5.196   8.266  0.6666 -1.1537 -1.1896
   76CHL1   C23 8089   4.838   5.289   8.351 -0.0120  0.2544 -0.5373
   76CHL1  H23A 8090   4.775   5.323   8.436 -0.9942  0.4482 -1.3183
   76CHL1  H23B 8091   4.887   5.197   8.390  0.4179  0.0078 -1.6322
   76CHL1   C24 8092   4.942   5.397   8.321  0.2412 -0.0820  0.2757
   76CHL1  H24A 8093   4.990   5.423   8.418  0.8649 -2.2693  0.5988
   76CHL1  H24B 8094   5.023   5.365   8.252  0.0801  0.1779 -0.0386
   76CHL1   C25 8095   4.880   5.529   8.273  0.0756  0.2139 -0.0434
   76CHL1   H25 8096   4.822   5.514   8.179 -2.3344 -0.6687  1.5093
   76CHL1   C26 8097   4.779   5.595   8.370 -0.1118  0.1034  0.1785
   76CHL1  H26A 8098   4.838   5.629   8.458  1.1391  2.2555 -1.4167
   76CHL1  H26B 8099   4.743   5.684   8.314  1.0880 -1.3794 -3.2185
   76CHL1  H26C 8100   4.697   5.523   8.390 -0.9430  1.0645  0.2876
   76CHL1   C27 8101   5.002   5.624   8.235 -0.1541  0.1724 -0.6640
   76CHL1  H27A 8102   4.966   5.729   8.231 -0.9972 -0.0003  1.1671
   76CHL1  H27B 8103   5.079   5.610   8.314 -1.8585 -0.1713  1.0396
   76CHL1  H27C 8104   5.034   5.604   8.131 -0.6271  0.7670 -0.9314
   77CHL1    C3 8105   4.161   3.356   6.738 -0.0816  0.8128 -0.8622
   77CHL1    H3 8106   4.051   3.347   6.754 -0.2250  1.9077 -1.1342
   77CHL1    O3 8107   4.182   3.409   6.609 -0.2153 -0.7836 -0.4557
   77CHL1   H3' 8108   4.272   3.399   6.576  0.0855  0.0157  0.0907
   77CHL1    C4 8109   4.235   3.444   6.837 -0.3969 -0.0268  0.0473
   77CHL1   H4A 8110   4.342   3.429   6.810 -0.3850 -4.7954  1.8152
   77CHL1   H4B 8111   4.213   3.550   6.814 -0.6656 -0.4973 -2.0187
   77CHL1    C5 8112   4.197   3.394   6.978 -0.0510 -0.3371  1.4195
   77CHL1    C6 8113   4.134   3.480   7.062  0.5408 -0.5559 -0.4729
   77CHL1    H6 8114   4.123   3.585   7.030  0.8091  0.2633  1.9412
   77CHL1    C7 8115   4.105   3.441   7.202 -0.7566 -0.4430 -0.2946
   77CHL1   H7A 8116   4.136   3.529   7.263 -0.0225 -1.9431  1.6054
   77CHL1   H7B 8117   3.996   3.422   7.217 -0.6202 -0.0300  1.3772
   77CHL1    C8 8118   4.174   3.313   7.246 -0.6391  0.4843 -0.3287
   77CHL1    H8 8119   4.279   3.346   7.263 -1.0895  0.4141  3.5662
   77CHL1   C14 8120   4.116   3.275   7.372  0.0777  0.2804 -0.7920
   77CHL1   H14 8121   4.006   3.262   7.367 -0.1074  1.6702 -0.6709
   77CHL1   C15 8122   4.121   3.380   7.487  0.1662  0.4199 -0.0526
   77CHL1  H15A 8123   4.220   3.430   7.493  0.2266  0.1589  1.5831
   77CHL1  H15B 8124   4.043   3.459   7.478 -1.3060 -0.5810  2.6717
   77CHL1   C16 8125   4.111   3.303   7.618  0.2025  0.2898  0.8472
   77CHL1  H16A 8126   4.200   3.312   7.684 -0.1589  0.5594  1.3110
   77CHL1  H16B 8127   4.017   3.328   7.672 -1.4391  0.6665 -1.9919
   77CHL1   C17 8128   4.102   3.148   7.581 -0.0505  0.8379  0.3780
   77CHL1   H17 8129   4.004   3.105   7.549  0.8405 -0.7167 -0.4152
   77CHL1   C13 8130   4.174   3.147   7.431  0.4584 -0.4260 -0.5522
   77CHL1   C18 8131   4.323   3.157   7.452  0.6547  0.2392  0.0876
   77CHL1  H18A 8132   4.357   3.062   7.498 -0.0068  0.4874  1.1270
   77CHL1  H18B 8133   4.380   3.162   7.357  1.8933 -0.5300  0.7570
   77CHL1  H18C 8134   4.356   3.250   7.503  1.6556  0.8060 -1.5317
   77CHL1   C12 8135   4.142   3.031   7.331 -0.2365  0.8777 -0.7529
   77CHL1  H12A 8136   4.183   2.937   7.373  2.0382  1.4978 -1.4631
   77CHL1  H12B 8137   4.034   3.008   7.318  0.1428 -1.4474 -0.2717
   77CHL1   C11 8138   4.203   3.056   7.195  0.7390 -0.2296 -0.4893
   77CHL1  H11A 8139   4.312   3.036   7.202  0.3985 -2.2628 -0.4435
   77CHL1  H11B 8140   4.162   2.986   7.120 -1.4454  1.0783 -0.5862
   77CHL1    C9 8141   4.170   3.198   7.142 -0.5849 -0.4678 -0.5184
   77CHL1    H9 8142   4.063   3.194   7.114 -0.1561  1.0035 -2.6251
   77CHL1   C10 8143   4.234   3.242   7.012  0.0292 -0.7210 -0.3828
   77CHL1   C19 8144   4.392   3.223   7.020  0.1499  0.1438 -0.5927
   77CHL1  H19A 8145   4.410   3.116   7.045 -2.1188 -0.5949 -1.8264
   77CHL1  H19B 8146   4.442   3.272   6.934  1.7841 -0.8345 -0.2367
   77CHL1  H19C 8147   4.427   3.272   7.114 -1.4061 -1.5332  0.9282
   77CHL1    C1 8148   4.192   3.154   6.889  0.1834  0.1850 -0.5695
   77CHL1   H1A 8149   4.237   3.053   6.902 -0.0047  0.0934 -0.6157
   77CHL1   H1B 8150   4.082   3.138   6.897  0.5885 -2.6660  0.2701
   77CHL1    C2 8151   4.212   3.217   6.753  0.4836  0.4272 -0.2832
   77CHL1   H2A 8152   4.160   3.157   6.676 -0.5123 -2.5756  2.5186
   77CHL1   H2B 8153   4.320   3.215   6.726  1.1529  0.4597  2.0752
   77CHL1   C20 8154   4.161   3.050   7.691  0.0294 -0.2835 -0.1598
   77CHL1   H20 8155   4.260   3.095   7.711  0.1812  1.2973 -3.6354
   77CHL1   C21 8156   4.154   2.903   7.642 -0.1582 -0.5550  0.7383
   77CHL1  H21A 8157   4.248   2.880   7.587 -1.1088 -1.6823 -0.4722
   77CHL1  H21B 8158   4.063   2.898   7.579 -0.7391 -0.4884  1.5530
   77CHL1  H21C 8159   4.157   2.831   7.727 -0.2991 -1.5207 -0.0601
   77CHL1   C22 8160   4.086   3.066   7.822  0.3491  0.1949 -0.7869
   77CHL1  H22A 8161   4.059   3.169   7.853 -0.4447 -0.3108  0.2762
   77CHL1  H22B 8162   3.991   3.008   7.813  1.8889 -2.6753  0.0852
   77CHL1   C23 8163   4.172   3.000   7.939 -0.9408  0.5057  0.0856
   77CHL1  H23A 8164   4.197   2.894   7.915  2.1023  1.1814 -0.1085
   77CHL1  H23B 8165   4.273   3.045   7.938 -0.3127 -0.8398 -0.9590
   77CHL1   C24 8166   4.099   3.006   8.065 -0.4945  0.3853 -0.6333
   77CHL1  H24A 8167   4.105   3.110   8.105 -3.2489  0.4725 -0.2357
   77CHL1  H24B 8168   3.989   2.996   8.050 -0.6138  0.5843  0.0416
   77CHL1   C25 8169   4.155   2.909   8.172  0.2538 -0.0686 -0.7888
   77CHL1   H25 8170   4.151   2.804   8.137  0.7401  0.0810 -1.3038
   77CHL1   C26 8171   4.301   2.943   8.207  0.3233  0.4327 -0.8761
   77CHL1  H26A 8172   4.315   3.053   8.210 -4.1948  1.1987 -1.2303
   77CHL1  H26B 8173   4.332   2.904   8.306  1.3945  1.6241 -0.7183
   77CHL1  H26C 8174   4.367   2.896   8.132  0.8272  2.0635 -1.5014
   77CHL1   C27 8175   4.064   2.927   8.295  0.1796 -0.2422 -0.0422
   77CHL1  H27A 8176   3.960   2.897   8.266  0.0475 -1.2388  1.3291
   77CHL1  H27B 8177   4.106   2.870   8.381  0.2130  2.9924  2.2389
   77CHL1  H27C 8178   4.067   3.033   8.327 -0.0479 -0.0779 -0.5645
   78CHL1    C3 8179   0.416   3.590   6.540 -0.3716 -0.0749  0.3990
   78CHL1    H3 8180   0.494   3.515   6.516  1.8896  1.8097  1.4467
   78CHL1    O3 8181   0.380   3.633   6.410 -0.9091 -0.1506 -0.1589
   78CHL1   H3' 8182   0.328   3.711   6.429  1.6466  1.7211 -0.4046
   78CHL1    C4 8183   0.285   3.521   6.594  0.5773  0.3778  0.3837
   78CHL1   H4A 8184   0.204   3.596   6.607 -0.3206  0.1394 -2.9632
   78CHL1   H4B 8185   0.244   3.441   6.529  0.8234  0.8211 -0.3272
   78CHL1    C5 8186   0.312   3.467   6.733  0.5220 -0.3948  0.0047
   78CHL1    C6 8187   0.306   3.332   6.759 -0.5359  0.2475  0.1489
   78CHL1    H6 8188   0.287   3.252   6.686 -1.1884 -1.5375  2.1877
   78CHL1    C7 8189   0.305   3.287   6.905  0.3771  0.8761 -0.2909
   78CHL1   H7A 8190   0.211   3.233   6.927  0.9684 -0.0426  0.0709
   78CHL1   H7B 8191   0.388   3.213   6.914 -0.0022  0.3637 -0.9335
   78CHL1    C8 8192   0.301   3.404   7.015  0.2405  0.6131  0.5515
   78CHL1    H8 8193   0.198   3.445   7.017 -0.4108 -0.6287 -2.3336
   78CHL1   C14 8194   0.336   3.347   7.150 -1.3107 -0.1684  0.3215
   78CHL1   H14 8195   0.443   3.320   7.135 -0.5058  1.7569  2.0643
   78CHL1   C15 8196   0.269   3.215   7.198 -0.6169 -0.1485 -0.2217
   78CHL1  H15A 8197   0.160   3.218   7.177 -0.4919  1.0893 -0.7576
   78CHL1  H15B 8198   0.315   3.128   7.146  0.9720  0.2549  0.4584
   78CHL1   C16 8199   0.297   3.218   7.351 -0.0835  0.4401  0.1707
   78CHL1  H16A 8200   0.204   3.204   7.410 -0.5774 -0.7536 -0.8530
   78CHL1  H16B 8201   0.354   3.126   7.378  1.1214  1.0078 -0.3610
   78CHL1   C17 8202   0.368   3.346   7.383 -0.2491 -0.3381  0.5355
   78CHL1   H17 8203   0.478   3.332   7.374  0.1266  1.8721  0.9452
   78CHL1   C13 8204   0.335   3.443   7.263  0.2201  0.0873  0.2950
   78CHL1   C18 8205   0.192   3.492   7.288  0.4349  0.2561 -0.1835
   78CHL1  H18A 8206   0.118   3.421   7.331 -0.1630  2.7459  3.3613
   78CHL1  H18B 8207   0.204   3.570   7.366 -3.7196  0.6989  0.2464
   78CHL1  H18C 8208   0.141   3.543   7.203 -1.3870  2.3586  2.0182
   78CHL1   C12 8209   0.441   3.556   7.225  1.0935 -0.0371 -0.8199
   78CHL1  H12A 8210   0.449   3.622   7.314 -2.1050 -2.9777  1.8870
   78CHL1  H12B 8211   0.537   3.500   7.224 -0.0022 -2.2907  2.7001
   78CHL1   C11 8212   0.399   3.623   7.096 -0.7038  0.0936 -0.1485
   78CHL1  H11A 8213   0.296   3.664   7.097 -2.3265 -3.3884 -2.5842
   78CHL1  H11B 8214   0.472   3.704   7.075 -0.9854  0.7740  1.3741
   78CHL1    C9 8215   0.390   3.517   6.973  0.2321 -0.3253 -0.1804
   78CHL1    H9 8216   0.496   3.491   6.954  1.2755  3.0862  0.3008
   78CHL1   C10 8217   0.345   3.585   6.834 -0.2114  0.6369 -0.5533
   78CHL1   C19 8218   0.217   3.676   6.856  0.8720 -0.2142  0.2447
   78CHL1  H19A 8219   0.242   3.768   6.914 -2.0876  0.9208 -0.1085
   78CHL1  H19B 8220   0.186   3.724   6.761  0.2780 -1.2328 -0.0955
   78CHL1  H19C 8221   0.133   3.619   6.902 -0.6641  3.0051  1.7103
   78CHL1    C1 8222   0.465   3.672   6.780  0.1786 -0.1036 -0.0752
   78CHL1   H1A 8223   0.475   3.760   6.847  0.7742  0.1536 -0.4922
   78CHL1   H1B 8224   0.557   3.611   6.796 -0.0230 -0.4702 -0.3063
   78CHL1    C2 8225   0.462   3.711   6.626 -0.1889  0.0849 -0.5829
   78CHL1   H2A 8226   0.560   3.753   6.595 -0.0973  1.7226  1.6779
   78CHL1   H2B 8227   0.395   3.796   6.602  0.6776  1.0801  0.3906
   78CHL1   C20 8228   0.350   3.383   7.533 -0.1638 -0.2107 -0.1882
   78CHL1   H20 8229   0.243   3.408   7.546  0.1362  0.4455  1.1342
   78CHL1   C21 8230   0.419   3.517   7.558  0.3740  1.0349 -0.0033
   78CHL1  H21A 8231   0.530   3.509   7.556  0.3547  0.5676  0.3731
   78CHL1  H21B 8232   0.412   3.547   7.665  1.7621  1.6108 -0.0564
   78CHL1  H21C 8233   0.372   3.599   7.501 -1.0844  0.1401 -0.1610
   78CHL1   C22 8234   0.380   3.259   7.632  0.0497 -1.3112  0.0902
   78CHL1  H22A 8235   0.338   3.165   7.592  0.3926 -1.6427  0.5080
   78CHL1  H22B 8236   0.490   3.254   7.640  0.0236 -1.2879  0.5222
   78CHL1   C23 8237   0.328   3.283   7.769 -0.0470 -0.0319 -0.3364
   78CHL1  H23A 8238   0.363   3.379   7.811  0.5005 -0.3442 -0.0746
   78CHL1  H23B 8239   0.217   3.283   7.767 -0.1168 -2.1072  0.2311
   78CHL1   C24 8240   0.362   3.169   7.871 -0.7810 -0.0747  0.0897
   78CHL1  H24A 8241   0.329   3.078   7.817 -1.3421 -0.0140  0.3266
   78CHL1  H24B 8242   0.472   3.168   7.886 -0.8269  0.9733  0.6023
   78CHL1   C25 8243   0.295   3.192   8.003 -0.0965  0.4185 -0.5164
   78CHL1   H25 8244   0.188   3.217   7.993 -0.3219  0.1599  1.0746
   78CHL1   C26 8245   0.308   3.070   8.084  0.4900  0.2510 -0.0107
   78CHL1  H26A 8246   0.287   3.087   8.192  3.1897 -0.8649  0.7769
   78CHL1  H26B 8247   0.229   3.003   8.043  0.1298 -1.3017  2.9734
   78CHL1  H26C 8248   0.397   3.004   8.083 -0.8043 -1.5726 -0.7518
   78CHL1   C27 8249   0.356   3.301   8.084  0.7089  0.8595  0.3856
   78CHL1  H27A 8250   0.462   3.273   8.099  0.4456  0.1467  0.9815
   78CHL1  H27B 8251   0.354   3.395   8.024  0.3501  2.1502  2.3474
   78CHL1  H27C 8252   0.312   3.319   8.184 -0.0216 -0.4297  0.3259
   79CHL1    C3 8253   4.657   4.413   7.174  0.4864  0.1170 -0.0522
   79CHL1    H3 8254   4.764   4.440   7.178  0.1179  2.0592 -1.7575
   79CHL1    O3 8255   4.637   4.358   7.045 -0.1183 -0.7628 -0.4249
   79CHL1   H3' 8256   4.544   4.338   7.041 -0.7642  0.1424  4.5146
   79CHL1    C4 8257   4.621   4.303   7.277  0.5150 -0.3266 -1.0242
   79CHL1   H4A 8258   4.522   4.269   7.239  0.1297  0.2914 -0.6028
   79CHL1   H4B 8259   4.698   4.225   7.262 -0.1941 -0.8671 -1.9934
   79CHL1    C5 8260   4.613   4.355   7.424  0.1732  0.6696  0.3745
   79CHL1    C6 8261   4.690   4.301   7.522 -0.7415 -0.5846  0.6131
   79CHL1    H6 8262   4.766   4.223   7.507 -0.8069 -1.0656  2.4710
   79CHL1    C7 8263   4.697   4.358   7.665 -0.1923  0.0815 -0.7093
   79CHL1   H7A 8264   4.696   4.272   7.735  0.9155  1.7742  1.4802
   79CHL1   H7B 8265   4.793   4.412   7.670  1.0017 -2.0573  1.3396
   79CHL1    C8 8266   4.576   4.447   7.704  0.1032 -0.4222  0.2218
   79CHL1    H8 8267   4.487   4.381   7.715 -0.5564  0.3877 -0.1318
   79CHL1   C14 8268   4.589   4.521   7.831  0.0968  0.2437 -0.0622
   79CHL1   H14 8269   4.672   4.594   7.821 -0.0806  0.5087  0.3787
   79CHL1   C15 8270   4.630   4.434   7.954 -0.9231  0.3328  0.2560
   79CHL1  H15A 8271   4.573   4.339   7.948  0.0485 -0.4834  2.7796
   79CHL1  H15B 8272   4.739   4.411   7.954 -0.6696  1.4598  0.4851
   79CHL1   C16 8273   4.574   4.513   8.070 -0.0886  0.5006  0.2227
   79CHL1  H16A 8274   4.516   4.440   8.131 -1.8048  1.5538 -0.1049
   79CHL1  H16B 8275   4.668   4.546   8.120  1.4563 -2.8277 -0.2237
   79CHL1   C17 8276   4.494   4.637   8.015 -0.3309 -0.9656  0.4458
   79CHL1   H17 8277   4.566   4.720   8.004 -2.4651  1.1902  1.7772
   79CHL1   C13 8278   4.463   4.610   7.866 -0.1442 -0.0972  0.5266
   79CHL1   C18 8279   4.339   4.522   7.863  0.6003  0.2359  0.6059
   79CHL1  H18A 8280   4.335   4.437   7.933  1.1026  0.2952  0.7040
   79CHL1  H18B 8281   4.249   4.583   7.889 -0.6186 -0.6554 -1.2737
   79CHL1  H18C 8282   4.319   4.481   7.761 -1.3908 -0.3161  1.1802
   79CHL1   C12 8283   4.448   4.725   7.760  0.0758 -0.8240  0.1449
   79CHL1  H12A 8284   4.349   4.771   7.783 -0.0114 -1.3300  0.8127
   79CHL1  H12B 8285   4.541   4.786   7.757 -0.8162  0.5716 -0.1413
   79CHL1   C11 8286   4.446   4.669   7.616 -0.5326 -0.2415  0.1416
   79CHL1  H11A 8287   4.340   4.639   7.609 -0.3028 -1.2509  0.7164
   79CHL1  H11B 8288   4.462   4.739   7.532  0.9478 -2.9051 -1.9876
   79CHL1    C9 8289   4.546   4.550   7.591 -0.0645  0.2651 -0.4444
   79CHL1    H9 8290   4.644   4.601   7.581 -0.1091  0.4725  0.1666
   79CHL1   C10 8291   4.531   4.483   7.451  0.0872  0.2298 -0.2311
   79CHL1   C19 8292   4.382   4.438   7.432  0.0029 -0.0409  0.0003
   79CHL1  H19A 8293   4.313   4.523   7.413 -1.0014 -1.1960 -1.9587
   79CHL1  H19B 8294   4.372   4.374   7.342 -1.3640 -0.1685  0.2147
   79CHL1  H19C 8295   4.341   4.396   7.527 -0.2930  4.1826  1.9841
   79CHL1    C1 8296   4.571   4.578   7.334 -0.0183  0.3184 -0.1484
   79CHL1   H1A 8297   4.508   4.669   7.344 -1.1826 -0.4839  0.0154
   79CHL1   H1B 8298   4.679   4.599   7.348  0.5780 -0.9086 -2.4163
   79CHL1    C2 8299   4.564   4.533   7.189  0.0012  0.0740 -0.5382
   79CHL1   H2A 8300   4.602   4.617   7.127 -1.2523  3.0026  2.3295
   79CHL1   H2B 8301   4.456   4.512   7.174 -0.2929  2.2003 -1.8432
   79CHL1   C20 8302   4.390   4.688   8.112  0.4106 -0.0551 -0.2807
   79CHL1   H20 8303   4.308   4.614   8.114 -0.6309  1.0107 -1.7352
   79CHL1   C21 8304   4.324   4.811   8.057  0.2141 -0.6428  0.6940
   79CHL1  H21A 8305   4.257   4.805   7.968  1.2086  0.4779 -0.1606
   79CHL1  H21B 8306   4.406   4.880   8.027 -2.7184  2.5908 -0.5654
   79CHL1  H21C 8307   4.269   4.874   8.130 -1.1855 -0.3757 -0.5344
   79CHL1   C22 8308   4.440   4.711   8.256  0.0787  0.0256 -0.4308
   79CHL1  H22A 8309   4.368   4.766   8.321  0.5497 -0.7333  0.7749
   79CHL1  H22B 8310   4.447   4.615   8.311 -0.0987  0.1313 -0.2221
   79CHL1   C23 8311   4.571   4.800   8.273  0.5857 -0.2250 -0.2632
   79CHL1  H23A 8312   4.657   4.754   8.220 -0.9932 -3.3750 -0.2865
   79CHL1  H23B 8313   4.544   4.890   8.214  0.5954 -1.3620 -2.0702
   79CHL1   C24 8314   4.589   4.818   8.421 -0.3076 -0.0988  0.2599
   79CHL1  H24A 8315   4.500   4.880   8.450  1.0547  2.0536  0.0895
   79CHL1  H24B 8316   4.591   4.717   8.467 -1.1617  0.4605  1.5894
   79CHL1   C25 8317   4.710   4.907   8.475 -0.4018  0.2098 -0.1600
   79CHL1   H25 8318   4.725   5.001   8.419  2.0485 -1.0726 -1.8905
   79CHL1   C26 8319   4.698   4.951   8.621  0.8367  0.5131 -1.0125
   79CHL1  H26A 8320   4.664   4.865   8.683 -0.6921  1.2497 -0.7747
   79CHL1  H26B 8321   4.789   5.002   8.659 -0.3558  0.8083  1.6447
   79CHL1  H26C 8322   4.612   5.021   8.635 -1.1237 -1.9546 -0.0039
   79CHL1   C27 8323   4.845   4.828   8.467  0.3888 -0.1006  0.7031
   79CHL1  H27A 8324   4.846   4.774   8.370  1.1497  0.5685  0.3305
   79CHL1  H27B 8325   4.931   4.898   8.472  0.9063 -0.6486 -0.2479
   79CHL1  H27C 8326   4.858   4.754   8.549 -0.7909  0.0472  1.0465
   80CHL1    C3 8327   2.368   0.179   6.900 -0.4233 -0.7914  0.7474
   80CHL1    H3 8328   2.378   0.078   6.944  2.4644 -1.1809 -0.5748
   80CHL1    O3 8329   2.368   0.188   6.753  0.4598 -0.4010 -0.2295
   80CHL1   H3' 8330   2.460   0.163   6.742  1.0659  1.7083 -0.4614
   80CHL1    C4 8331   2.240   0.254   6.946 -1.1752  0.0236  0.4782
   80CHL1   H4A 8332   2.241   0.350   6.891  1.7594 -1.4612 -2.3809
   80CHL1   H4B 8333   2.157   0.191   6.908  0.2154 -0.8836 -1.1858
   80CHL1    C5 8334   2.230   0.283   7.098  0.8281  0.2963  0.5489
   80CHL1    C6 8335   2.132   0.232   7.174  0.3065 -0.0054 -0.2477
   80CHL1    H6 8336   2.046   0.186   7.123 -0.5198  2.1682 -0.9651
   80CHL1    C7 8337   2.127   0.244   7.327  1.0231  0.3874  0.4226
   80CHL1   H7A 8338   2.026   0.283   7.350  1.1414 -0.6148  2.8741
   80CHL1   H7B 8339   2.136   0.147   7.380  1.5484 -0.8440 -1.7945
   80CHL1    C8 8340   2.228   0.329   7.389 -0.1043  0.1722 -0.8587
   80CHL1    H8 8341   2.197   0.434   7.371  0.1741  0.1276 -1.6356
   80CHL1   C14 8342   2.236   0.306   7.540  0.1825 -0.4322 -0.3656
   80CHL1   H14 8343   2.286   0.209   7.562  1.3050  0.4355  1.0608
   80CHL1   C15 8344   2.112   0.290   7.623 -0.1539 -0.5938  0.2015
   80CHL1  H15A 8345   2.025   0.353   7.595 -0.3440 -0.4889  1.0042
   80CHL1  H15B 8346   2.080   0.184   7.621  0.4379 -0.7822 -1.9188
   80CHL1   C16 8347   2.161   0.330   7.767 -0.3649 -0.0351  0.5921
   80CHL1  H16A 8348   2.120   0.428   7.797  1.3017  0.7259  0.5064
   80CHL1  H16B 8349   2.131   0.249   7.838 -3.6073  0.6942  0.2103
   80CHL1   C17 8350   2.309   0.364   7.755 -0.6154  0.1635  0.7040
   80CHL1   H17 8351   2.357   0.264   7.764  0.8509  0.7272 -0.4211
   80CHL1   C13 8352   2.330   0.404   7.609  0.4361  0.4599  0.6508
   80CHL1   C18 8353   2.271   0.552   7.593 -0.7533 -0.1392  0.0366
   80CHL1  H18A 8354   2.165   0.552   7.626 -1.3009 -1.7166 -1.5866
   80CHL1  H18B 8355   2.338   0.629   7.638  1.0886 -1.7276  0.1781
   80CHL1  H18C 8356   2.264   0.578   7.485  2.4746 -0.9098 -0.4715
   80CHL1   C12 8357   2.470   0.376   7.548 -0.0570 -0.0890 -0.7827
   80CHL1  H12A 8358   2.546   0.454   7.571 -0.4083  1.0622 -3.1476
   80CHL1  H12B 8359   2.495   0.270   7.567  1.8729  0.2346 -1.3278
   80CHL1   C11 8360   2.475   0.394   7.397  0.0417  0.1943 -0.5996
   80CHL1  H11A 8361   2.441   0.499   7.385 -0.9381 -0.1654 -1.0375
   80CHL1  H11B 8362   2.580   0.373   7.367  0.4015  0.3743  0.4846
   80CHL1    C9 8363   2.366   0.316   7.321  0.9461  0.4482 -0.3067
   80CHL1    H9 8364   2.391   0.209   7.335 -0.1392  0.4942  2.5667
   80CHL1   C10 8365   2.360   0.336   7.165  0.0703 -0.3277  0.2524
   80CHL1   C19 8366   2.371   0.488   7.137  0.0144  0.0468 -0.7697
   80CHL1  H19A 8367   2.477   0.506   7.166  0.3278 -0.0832 -1.8070
   80CHL1  H19B 8368   2.363   0.519   7.031  0.4748 -0.5900 -0.9962
   80CHL1  H19C 8369   2.311   0.560   7.196  0.8130  0.4788 -0.4637
   80CHL1    C1 8370   2.490   0.265   7.102 -0.2730 -0.0594 -0.2351
   80CHL1   H1A 8371   2.585   0.313   7.135 -0.1377 -2.6276  3.6877
   80CHL1   H1B 8372   2.499   0.161   7.138 -0.5064 -0.3695 -1.0648
   80CHL1    C2 8373   2.486   0.267   6.950 -0.2694  0.7909  0.7206
   80CHL1   H2A 8374   2.577   0.232   6.898 -0.8555 -0.7478  0.6627
   80CHL1   H2B 8375   2.465   0.368   6.910  0.4202  0.6493 -0.0187
   80CHL1   C20 8376   2.354   0.450   7.868 -0.5717 -0.8902 -0.5119
   80CHL1   H20 8377   2.312   0.552   7.849 -0.1884 -0.4766  0.7470
   80CHL1   C21 8378   2.504   0.450   7.886 -0.2845  0.1220 -0.0633
   80CHL1  H21A 8379   2.543   0.347   7.871 -2.1447 -0.6767  0.1906
   80CHL1  H21B 8380   2.533   0.484   7.987 -1.6199 -0.1399  0.4363
   80CHL1  H21C 8381   2.558   0.505   7.806  2.9177 -2.5840  0.0214
   80CHL1   C22 8382   2.304   0.417   8.012 -0.6057  0.1117  0.5646
   80CHL1  H22A 8383   2.341   0.492   8.085 -1.3332  0.2863  0.7542
   80CHL1  H22B 8384   2.193   0.418   8.011 -0.6294 -1.0552  0.5959
   80CHL1   C23 8385   2.348   0.276   8.063 -0.2099  0.9253  0.0371
   80CHL1  H23A 8386   2.295   0.197   8.005  0.4875  0.0939  0.5194
   80CHL1  H23B 8387   2.454   0.245   8.051 -0.7477 -0.8036 -0.5405
   80CHL1   C24 8388   2.312   0.259   8.208 -0.8788  0.8487 -0.9040
   80CHL1  H24A 8389   2.365   0.332   8.272 -2.4106  2.3298 -1.2551
   80CHL1  H24B 8390   2.203   0.279   8.222 -1.5145 -2.9857  1.2278
   80CHL1   C25 8391   2.344   0.124   8.282  0.2967 -0.1624  0.0131
   80CHL1   H25 8392   2.344   0.029   8.225  0.5306 -1.7695  2.5350
   80CHL1   C26 8393   2.485   0.132   8.352  0.3961 -0.8295 -0.1994
   80CHL1  H26A 8394   2.485   0.041   8.416 -1.1700 -0.0104  1.0330
   80CHL1  H26B 8395   2.566   0.118   8.278 -1.1113 -1.4316 -1.8334
   80CHL1  H26C 8396   2.503   0.223   8.412  0.8465 -1.3746  0.5112
   80CHL1   C27 8397   2.229   0.109   8.382  0.0426 -0.1310 -0.3366
   80CHL1  H27A 8398   2.221   0.183   8.465 -0.4230  0.6766 -1.0808
   80CHL1  H27B 8399   2.138   0.115   8.319 -0.0516 -0.9580 -0.2874
   80CHL1  H27C 8400   2.239   0.008   8.426  0.2643  0.4230  0.9400
   81CHL1    C3 8401   6.810   0.993   6.723 -0.0254  0.0153 -0.8314
   81CHL1    H3 8402   6.730   0.915   6.721  0.6841 -0.7753  0.5625
   81CHL1    O3 8403   6.862   1.001   6.598 -0.4109  0.1133  0.1146
   81CHL1   H3' 8404   6.880   0.912   6.569  1.8642  0.8090 -0.8185
   81CHL1    C4 8405   6.750   1.118   6.799 -0.3035 -0.4046 -0.3143
   81CHL1   H4A 8406   6.824   1.200   6.795 -1.8598  1.1627  1.2343
   81CHL1   H4B 8407   6.672   1.148   6.725 -0.6819 -2.5443 -0.8576
   81CHL1    C5 8408   6.700   1.077   6.934  0.5378  0.0715  0.1404
   81CHL1    C6 8409   6.571   1.087   6.971  0.8416 -0.2197 -0.7551
   81CHL1    H6 8410   6.496   1.141   6.911  0.3634  0.0751  0.0849
   81CHL1    C7 8411   6.527   1.065   7.119 -0.0024 -0.4103  0.7908
   81CHL1   H7A 8412   6.469   1.152   7.155 -0.8899 -1.3793  1.7874
   81CHL1   H7B 8413   6.476   0.967   7.129  0.3340 -0.5838  0.8468
   81CHL1    C8 8414   6.645   1.063   7.222 -0.2545  0.1302 -0.4280
   81CHL1    H8 8415   6.679   1.169   7.228 -1.2650  0.5121 -1.2183
   81CHL1   C14 8416   6.594   1.023   7.358  0.0213 -0.1097 -0.7347
   81CHL1   H14 8417   6.546   0.927   7.329 -0.2120  0.2806 -1.7121
   81CHL1   C15 8418   6.473   1.096   7.422  0.3240 -0.8365  0.3878
   81CHL1  H15A 8419   6.488   1.204   7.406 -0.4904 -0.4719  1.8910
   81CHL1  H15B 8420   6.384   1.058   7.367  0.6225  0.6498 -1.1812
   81CHL1   C16 8421   6.477   1.060   7.568 -0.0444 -0.1665 -0.3494
   81CHL1  H16A 8422   6.465   1.154   7.626 -2.1937 -0.6123 -0.0000
   81CHL1  H16B 8423   6.393   0.991   7.587 -0.3693 -0.6271 -2.9908
   81CHL1   C17 8424   6.608   0.978   7.583  0.4879 -0.0482  0.0966
   81CHL1   H17 8425   6.577   0.873   7.563  1.7583 -0.4294  0.0387
   81CHL1   C13 8426   6.697   1.013   7.462  0.5905 -0.0162 -0.5194
   81CHL1   C18 8427   6.768   1.142   7.474  0.3143  0.0847 -0.1290
   81CHL1  H18A 8428   6.830   1.171   7.386 -0.1619  1.5641 -0.0129
   81CHL1  H18B 8429   6.694   1.223   7.492 -2.5034 -2.3038 -0.2955
   81CHL1  H18C 8430   6.829   1.162   7.565  0.3002 -0.1663 -0.0642
   81CHL1   C12 8431   6.806   0.905   7.416  0.0200  0.1478  0.1463
   81CHL1  H12A 8432   6.879   0.895   7.499  0.5418  0.1127 -0.3045
   81CHL1  H12B 8433   6.755   0.806   7.408 -1.9815  1.2253 -0.9783
   81CHL1   C11 8434   6.864   0.931   7.282  0.3144 -0.1239  0.5182
   81CHL1  H11A 8435   6.945   1.007   7.289 -0.1090  0.2894  1.0516
   81CHL1  H11B 8436   6.906   0.832   7.255 -1.0098 -1.3491  2.6966
   81CHL1    C9 8437   6.759   0.970   7.169  0.4023  0.1115  0.7079
   81CHL1    H9 8438   6.711   0.872   7.150 -0.5233  0.3119  1.9334
   81CHL1   C10 8439   6.814   1.024   7.032  0.1499  0.0898  0.3978
   81CHL1   C19 8440   6.914   1.137   7.070 -0.1339 -0.5561 -0.2825
   81CHL1  H19A 8441   6.864   1.231   7.099 -3.1400 -2.5644  1.5556
   81CHL1  H19B 8442   6.997   1.102   7.135  0.2726 -0.8417 -0.9380
   81CHL1  H19C 8443   6.977   1.171   6.984 -0.4670  1.8267  0.3433
   81CHL1    C1 8444   6.879   0.908   6.955 -0.6836  0.6949 -0.0956
   81CHL1   H1A 8445   6.963   0.863   7.012 -2.0902  0.3860  1.8756
   81CHL1   H1B 8446   6.802   0.830   6.937  2.1868 -2.0202 -1.6126
   81CHL1    C2 8447   6.927   0.936   6.809  0.8148 -0.1393  0.6310
   81CHL1   H2A 8448   6.969   0.854   6.748 -0.4955  0.1548 -0.7325
   81CHL1   H2B 8449   7.001   1.018   6.816  0.5374  0.6384 -3.3254
   81CHL1   C20 8450   6.666   0.978   7.724 -0.0573  0.2023 -0.2173
   81CHL1   H20 8451   6.771   0.943   7.713  0.0718  0.6166 -0.2990
   81CHL1   C21 8452   6.590   0.867   7.798  0.4375 -0.0865 -0.3846
   81CHL1  H21A 8453   6.620   0.866   7.905 -0.6470 -1.1713 -0.0767
   81CHL1  H21B 8454   6.617   0.770   7.750  4.2034  0.5268  0.1698
   81CHL1  H21C 8455   6.480   0.881   7.792  0.6052  0.7466 -1.7790
   81CHL1   C22 8456   6.667   1.109   7.802 -0.2156  0.0929  0.5399
   81CHL1  H22A 8457   6.713   1.192   7.745 -0.5003 -0.1606 -0.0718
   81CHL1  H22B 8458   6.568   1.151   7.832 -0.6003 -0.5085  0.1302
   81CHL1   C23 8459   6.743   1.098   7.940  0.1857 -0.2047 -0.0036
   81CHL1  H23A 8460   6.709   1.011   8.001  0.1616 -1.5724 -1.8893
   81CHL1  H23B 8461   6.851   1.089   7.915  0.8452  1.1823  2.0418
   81CHL1   C24 8462   6.709   1.216   8.037 -0.1046  0.6721  0.7130
   81CHL1  H24A 8463   6.603   1.241   8.015 -0.7961 -1.2606  1.5703
   81CHL1  H24B 8464   6.724   1.194   8.145  3.2642 -0.2914  0.1692
   81CHL1   C25 8465   6.795   1.342   8.021 -0.0296 -0.5507 -0.8886
   81CHL1   H25 8466   6.795   1.373   7.915 -0.6648  2.4547 -0.1020
   81CHL1   C26 8467   6.719   1.439   8.108  0.1474 -0.0654 -1.0692
   81CHL1  H26A 8468   6.613   1.453   8.081 -0.5931 -0.1547  1.5492
   81CHL1  H26B 8469   6.726   1.396   8.210 -0.4816 -1.3015 -1.5398
   81CHL1  H26C 8470   6.772   1.537   8.098 -0.3229  0.2309 -0.6701
   81CHL1   C27 8471   6.940   1.328   8.077 -0.3799  0.4129 -0.3376
   81CHL1  H27A 8472   7.005   1.414   8.050  1.1404 -0.4263  0.4795
   81CHL1  H27B 8473   6.951   1.312   8.186 -0.9653 -1.1967 -0.4848
   81CHL1  H27C 8474   6.994   1.239   8.036 -0.7070 -0.4069  0.9353
   82CHL1    C3 8475   1.013   6.314   7.073  0.4458  0.4908 -0.4410
   82CHL1    H3 8476   1.040   6.207   7.067  2.9041  0.9559  0.8450
   82CHL1    O3 8477   0.979   6.371   6.946  0.4774  0.3746 -0.1530
   82CHL1   H3' 8478   1.061   6.373   6.897 -0.4189 -1.2820 -1.8655
   82CHL1    C4 8479   0.895   6.338   7.170 -0.0012 -0.5467  0.1498
   82CHL1   H4A 8480   0.881   6.447   7.181 -2.1687 -0.8507  0.9830
   82CHL1   H4B 8481   0.809   6.286   7.122 -1.3490  0.8174  0.9921
   82CHL1    C5 8482   0.926   6.283   7.310 -0.5057 -0.6922  0.1503
   82CHL1    C6 8483   0.844   6.195   7.374  0.2722 -0.1076 -0.2994
   82CHL1    H6 8484   0.748   6.163   7.330 -0.0882 -0.9994  1.0747
   82CHL1    C7 8485   0.871   6.145   7.516  0.0426  0.0945 -0.2152
   82CHL1   H7A 8486   0.780   6.147   7.580 -0.7877  1.3868 -1.3671
   82CHL1   H7B 8487   0.907   6.041   7.507  1.7408  0.7734 -1.7761
   82CHL1    C8 8488   0.975   6.227   7.598 -0.0122  0.1020  0.4482
   82CHL1    H8 8489   0.938   6.327   7.630 -0.6194 -0.3462  1.1790
   82CHL1   C14 8490   1.014   6.143   7.714  0.1598  0.2580 -0.1962
   82CHL1   H14 8491   1.058   6.052   7.668  3.1675  1.4614  0.0893
   82CHL1   C15 8492   0.905   6.084   7.807  0.4760 -0.3889 -0.1946
   82CHL1  H15A 8493   0.817   6.153   7.808  1.6990  1.3004 -1.7958
   82CHL1  H15B 8494   0.872   5.984   7.773  2.0042 -1.6693  1.8980
   82CHL1   C16 8495   0.973   6.077   7.945 -0.0248 -0.1924  0.4770
   82CHL1  H16A 8496   0.937   6.153   8.017  1.6022  0.8111  0.2638
   82CHL1  H16B 8497   0.963   5.985   8.008 -1.1107  1.7619  3.3539
   82CHL1   C17 8498   1.126   6.092   7.915  0.4849 -0.3597 -0.2024
   82CHL1   H17 8499   1.157   5.991   7.880  0.9667 -0.0871 -0.5756
   82CHL1   C13 8500   1.127   6.190   7.801 -0.0720  0.0670  0.4254
   82CHL1   C18 8501   1.085   6.336   7.852  0.4390  0.0564  0.4676
   82CHL1  H18A 8502   0.991   6.334   7.911  0.3042 -0.0983  0.2535
   82CHL1  H18B 8503   1.174   6.382   7.898  0.2846  0.7584  0.0771
   82CHL1  H18C 8504   1.067   6.396   7.760 -1.4208 -1.6684 -0.3762
   82CHL1   C12 8505   1.252   6.211   7.706 -0.8962 -0.0610  0.2100
   82CHL1  H12A 8506   1.329   6.245   7.779 -0.1760 -1.4487  0.1372
   82CHL1  H12B 8507   1.283   6.108   7.676 -1.0314 -0.6338  1.8997
   82CHL1   C11 8508   1.225   6.306   7.586 -0.8387  0.2707 -0.0732
   82CHL1  H11A 8509   1.202   6.411   7.615 -1.8522  0.8238 -2.6408
   82CHL1  H11B 8510   1.320   6.303   7.529  1.8261  0.7602  3.9047
   82CHL1    C9 8511   1.097   6.250   7.507  0.0057  0.2684  0.6586
   82CHL1    H9 8512   1.134   6.156   7.461 -0.6579  0.4228 -0.2164
   82CHL1   C10 8513   1.056   6.333   7.380 -0.0753 -0.2130  0.7857
   82CHL1   C19 8514   1.028   6.475   7.417  0.8676 -0.3328  0.6070
   82CHL1  H19A 8515   0.985   6.533   7.333 -0.0091 -0.1494  1.1649
   82CHL1  H19B 8516   0.945   6.472   7.491  0.9264 -1.4245  0.6348
   82CHL1  H19C 8517   1.113   6.532   7.462 -0.6180 -1.3443  5.1903
   82CHL1    C1 8518   1.181   6.335   7.277 -0.7037 -0.0722  0.3830
   82CHL1   H1A 8519   1.259   6.402   7.320 -0.4170  1.6661 -2.5598
   82CHL1   H1B 8520   1.228   6.235   7.264  1.4516  0.9984 -0.6094
   82CHL1    C2 8521   1.144   6.381   7.127 -0.3670 -0.7155 -0.1329
   82CHL1   H2A 8522   1.230   6.354   7.063 -1.7424 -0.7971 -2.0169
   82CHL1   H2B 8523   1.134   6.492   7.134 -0.3300 -0.7494  0.5089
   82CHL1   C20 8524   1.207   6.126   8.039  0.0993  0.0724  0.8151
   82CHL1   H20 8525   1.182   6.228   8.074 -1.6900  0.7435 -2.0381
   82CHL1   C21 8526   1.358   6.119   8.003 -0.3512 -0.3758 -0.4306
   82CHL1  H21A 8527   1.396   6.216   7.963  1.7000 -1.0861 -0.3301
   82CHL1  H21B 8528   1.365   6.033   7.933  2.4762 -0.8158  0.2745
   82CHL1  H21C 8529   1.427   6.104   8.088 -0.9062 -0.1984  0.0595
   82CHL1   C22 8530   1.183   6.040   8.161 -0.0079 -0.1521 -0.1205
   82CHL1  H22A 8531   1.256   6.066   8.240  0.1692 -2.1847  0.4517
   82CHL1  H22B 8532   1.080   6.045   8.200  0.0074 -0.5247 -0.0270
   82CHL1   C23 8533   1.199   5.881   8.131 -0.2826 -0.2331  0.4602
   82CHL1  H23A 8534   1.152   5.842   8.038  2.5851 -1.4815 -0.5671
   82CHL1  H23B 8535   1.310   5.882   8.124 -0.1983  0.2366  1.5361
   82CHL1   C24 8536   1.149   5.795   8.250 -0.7562  0.3065  0.2004
   82CHL1  H24A 8537   1.186   5.834   8.347 -1.4377  0.2616  0.4812
   82CHL1  H24B 8538   1.038   5.799   8.247 -0.9294 -0.1046  3.1232
   82CHL1   C25 8539   1.204   5.650   8.245 -0.9703  0.8594 -0.0519
   82CHL1   H25 8540   1.176   5.602   8.149  1.6763 -0.8557 -0.0672
   82CHL1   C26 8541   1.358   5.640   8.245 -0.6022  0.0207 -0.5934
   82CHL1  H26A 8542   1.386   5.684   8.343 -0.2200 -1.2821 -0.0837
   82CHL1  H26B 8543   1.384   5.532   8.247 -1.8334 -0.2832  0.3211
   82CHL1  H26C 8544   1.408   5.684   8.156  2.1993 -1.0056  0.3541
   82CHL1   C27 8545   1.142   5.568   8.361  0.0530 -0.0208 -0.1594
   82CHL1  H27A 8546   1.033   5.589   8.361  0.6530  3.8695  0.6535
   82CHL1  H27B 8547   1.147   5.458   8.344 -1.5644 -0.4342  1.6480
   82CHL1  H27C 8548   1.182   5.601   8.459  0.0118 -0.8249  0.1390
   83CHL1    C3 8549   5.594   2.436   6.706  0.0271  0.6295  0.2790
   83CHL1    H3 8550   5.696   2.480   6.709  1.3561 -1.8559 -2.3270
   83CHL1    O3 8551   5.586   2.372   6.575 -0.4969  0.7600 -0.3341
   83CHL1   H3' 8552   5.504   2.322   6.570 -0.7533  1.1704 -0.2719
   83CHL1    C4 8553   5.569   2.328   6.811  0.1596  0.2938 -0.1602
   83CHL1   H4A 8554   5.475   2.277   6.779 -1.1764  1.5353  1.5626
   83CHL1   H4B 8555   5.656   2.260   6.808  0.6477  0.9453 -1.8523
   83CHL1    C5 8556   5.555   2.367   6.955  0.1427 -0.6620 -0.4934
   83CHL1    C6 8557   5.622   2.304   7.053 -0.4107  0.3352 -0.7253
   83CHL1    H6 8558   5.682   2.214   7.036  0.6859  1.0259 -0.6477
   83CHL1    C7 8559   5.616   2.334   7.206 -0.8756 -0.2531  0.7946
   83CHL1   H7A 8560   5.596   2.241   7.263  1.6136 -1.4648 -0.2004
   83CHL1   H7B 8561   5.715   2.377   7.232  0.2252 -1.2820 -1.4682
   83CHL1    C8 8562   5.509   2.444   7.235  0.1352 -0.5038 -0.5619
   83CHL1    H8 8563   5.413   2.388   7.242 -0.0085 -0.1066  1.4032
   83CHL1   C14 8564   5.545   2.505   7.372 -0.2547  0.0744 -0.6332
   83CHL1   H14 8565   5.637   2.562   7.346 -0.8015  0.3981 -1.8936
   83CHL1   C15 8566   5.567   2.425   7.495  0.2615 -0.5227 -0.4338
   83CHL1  H15A 8567   5.494   2.343   7.506  1.5711 -1.9893 -2.1052
   83CHL1  H15B 8568   5.663   2.368   7.488  0.4383 -0.2710 -0.0840
   83CHL1   C16 8569   5.567   2.527   7.612 -0.2329 -0.4879  0.6023
   83CHL1  H16A 8570   5.512   2.489   7.700  1.6506 -1.7286  1.3079
   83CHL1  H16B 8571   5.665   2.550   7.658 -1.4699  0.3579  2.9581
   83CHL1   C17 8572   5.501   2.656   7.556 -0.5354 -0.2344 -0.1030
   83CHL1   H17 8573   5.579   2.731   7.529 -0.7542 -0.0863 -0.3187
   83CHL1   C13 8574   5.447   2.611   7.417  0.1871 -0.0411  0.2382
   83CHL1   C18 8575   5.310   2.542   7.429  0.5247 -0.0025  0.3401
   83CHL1  H18A 8576   5.258   2.526   7.332 -1.2523 -0.5653  1.3395
   83CHL1  H18B 8577   5.325   2.447   7.485 -0.1076  0.2060  0.8692
   83CHL1  H18C 8578   5.243   2.601   7.496  3.5179  1.1462  2.5507
   83CHL1   C12 8579   5.449   2.724   7.308 -0.0152 -0.1960  0.3814
   83CHL1  H12A 8580   5.375   2.804   7.330 -0.2821 -0.0158 -1.0927
   83CHL1  H12B 8581   5.552   2.764   7.301 -0.6568  1.2450 -1.6085
   83CHL1   C11 8582   5.414   2.669   7.165 -0.3423 -0.0255 -0.6144
   83CHL1  H11A 8583   5.306   2.642   7.169 -0.1718 -0.6076  0.9973
   83CHL1  H11B 8584   5.440   2.744   7.088 -0.4933 -1.0172 -1.6717
   83CHL1    C9 8585   5.506   2.548   7.121  0.6818 -0.0709  0.5601
   83CHL1    H9 8586   5.608   2.591   7.106  0.9406 -1.0162 -0.4610
   83CHL1   C10 8587   5.467   2.489   6.982 -0.4550 -0.4026 -0.0842
   83CHL1   C19 8588   5.320   2.442   6.987 -0.4284  0.4598  0.2869
   83CHL1  H19A 8589   5.282   2.406   6.889 -3.4693  3.2305  0.2834
   83CHL1  H19B 8590   5.279   2.367   7.057 -0.8353 -0.0228 -0.4431
   83CHL1  H19C 8591   5.250   2.527   6.999 -0.8750  0.1673 -0.1863
   83CHL1    C1 8592   5.497   2.591   6.864 -0.4058  0.7413 -1.1870
   83CHL1   H1A 8593   5.427   2.676   6.881  1.2889  1.3881  4.6116
   83CHL1   H1B 8594   5.596   2.637   6.882  1.6436 -3.9528  1.1202
   83CHL1    C2 8595   5.489   2.544   6.725  0.6119 -0.4130 -0.3363
   83CHL1   H2A 8596   5.488   2.626   6.650  0.3629 -0.4291 -0.3536
   83CHL1   H2B 8597   5.388   2.499   6.709  0.1311  1.2057 -2.1965
   83CHL1   C20 8598   5.408   2.732   7.652  0.4823  0.0694  0.7610
   83CHL1   H20 8599   5.336   2.661   7.699  2.6965 -1.8178  1.4934
   83CHL1   C21 8600   5.336   2.855   7.582  0.4347  0.8246 -0.5212
   83CHL1  H21A 8601   5.270   2.827   7.497  0.7003  0.3013 -0.5581
   83CHL1  H21B 8602   5.408   2.935   7.554  1.7543  0.6648  2.1476
   83CHL1  H21C 8603   5.264   2.887   7.660 -0.3008  1.3863 -1.4043
   83CHL1   C22 8604   5.493   2.780   7.771  0.9822  0.2235  0.1018
   83CHL1  H22A 8605   5.570   2.706   7.801 -0.0350 -1.0356 -0.2833
   83CHL1  H22B 8606   5.543   2.874   7.740  3.6896 -1.4078 -0.8333
   83CHL1   C23 8607   5.415   2.805   7.903  0.0098 -1.0809 -0.4450
   83CHL1  H23A 8608   5.348   2.893   7.885  2.7883  0.7548 -2.7654
   83CHL1  H23B 8609   5.349   2.718   7.920 -2.6273  0.8607 -0.0977
   83CHL1   C24 8610   5.505   2.840   8.025 -0.4576  0.6464 -0.5041
   83CHL1  H24A 8611   5.588   2.767   8.033 -0.3908  0.8993  4.6871
   83CHL1  H24B 8612   5.540   2.945   8.014  1.3901  0.1792  0.5168
   83CHL1   C25 8613   5.439   2.809   8.162 -0.0996  0.0608 -0.3941
   83CHL1   H25 8614   5.504   2.847   8.243 -2.7319  2.1970  0.9121
   83CHL1   C26 8615   5.306   2.882   8.177 -0.0098  0.3743 -0.1881
   83CHL1  H26A 8616   5.274   2.875   8.283  1.4897 -0.1072  0.2603
   83CHL1  H26B 8617   5.302   2.987   8.140 -2.3937 -0.1052 -1.5149
   83CHL1  H26C 8618   5.226   2.828   8.122 -0.3361 -0.9849  1.5009
   83CHL1   C27 8619   5.426   2.658   8.185 -0.4647  0.4778 -0.2237
   83CHL1  H27A 8620   5.344   2.614   8.125  0.5963  1.2568 -2.3331
   83CHL1  H27B 8621   5.516   2.597   8.161  1.2368  2.6874  0.2493
   83CHL1  H27C 8622   5.400   2.655   8.293 -0.2714  1.7184 -0.1261
   84CHL1    C3 8623   5.956   6.604   6.892 -0.0747  0.0530 -0.4449
   84CHL1    H3 8624   5.906   6.702   6.909  0.5251  0.5787 -1.6311
   84CHL1    O3 8625   5.947   6.598   6.752  0.2570 -0.6734  0.2415
   84CHL1   H3' 8626   6.034   6.572   6.718  0.0560  1.2968 -2.1286
   84CHL1    C4 8627   6.103   6.615   6.936  0.1146  0.0152  0.2677
   84CHL1   H4A 8628   6.161   6.530   6.894  1.7826  1.5997 -0.7992
   84CHL1   H4B 8629   6.154   6.707   6.898 -1.5279  0.6017 -0.5916
   84CHL1    C5 8630   6.127   6.590   7.082  0.1285  0.2786  0.8980
   84CHL1    C6 8631   6.194   6.677   7.164  0.1853 -0.0554  0.0565
   84CHL1    H6 8632   6.241   6.768   7.124 -2.2108  0.5263 -1.5766
   84CHL1    C7 8633   6.222   6.644   7.311  0.5410 -0.0358  0.5235
   84CHL1   H7A 8634   6.331   6.655   7.333  0.6116 -2.5747  1.7208
   84CHL1   H7B 8635   6.156   6.715   7.366  0.5631 -0.0156  0.5238
   84CHL1    C8 8636   6.188   6.500   7.360  0.1514 -0.5191  0.1626
   84CHL1    H8 8637   6.273   6.432   7.340 -1.6524 -3.7143  2.4344
   84CHL1   C14 8638   6.179   6.501   7.515 -0.4509 -0.1706 -0.0136
   84CHL1   H14 8639   6.098   6.571   7.541 -1.6554 -1.5645  0.0940
   84CHL1   C15 8640   6.308   6.537   7.588  0.7362 -0.1148 -0.3068
   84CHL1  H15A 8641   6.389   6.481   7.537  0.0960 -0.4218 -1.0055
   84CHL1  H15B 8642   6.342   6.642   7.576  1.5438 -0.3582 -0.2341
   84CHL1   C16 8643   6.271   6.503   7.734 -0.3822  0.3469 -0.0344
   84CHL1  H16A 8644   6.351   6.443   7.783  0.3850 -1.1718 -2.9161
   84CHL1  H16B 8645   6.241   6.594   7.790  1.9240  1.1719 -0.0362
   84CHL1   C17 8646   6.154   6.393   7.725  0.2700 -0.6448 -0.0227
   84CHL1   H17 8647   6.067   6.461   7.735 -1.3215 -2.2841 -1.9068
   84CHL1   C13 8648   6.139   6.364   7.575  0.4094  0.3585  0.1893
   84CHL1   C18 8649   6.240   6.252   7.541 -0.4646 -0.7885 -0.3594
   84CHL1  H18A 8650   6.245   6.230   7.433  0.1544  0.3708 -0.5817
   84CHL1  H18B 8651   6.338   6.274   7.587 -1.3348  0.5083  0.9837
   84CHL1  H18C 8652   6.215   6.156   7.591  3.0507 -0.8709  1.5515
   84CHL1   C12 8653   5.995   6.337   7.517 -0.2599  0.3240  0.5093
   84CHL1  H12A 8654   5.971   6.234   7.551 -1.0632  0.1481 -0.5205
   84CHL1  H12B 8655   5.924   6.401   7.573 -0.6903  0.4294 -0.1382
   84CHL1   C11 8656   5.988   6.345   7.361  0.6855  0.4731 -0.2720
   84CHL1  H11A 8657   6.007   6.248   7.312 -3.5316 -0.3356 -0.6621
   84CHL1  H11B 8658   5.882   6.365   7.336  0.9436  2.9688  0.3293
   84CHL1    C9 8659   6.055   6.463   7.298 -0.0604 -0.2413 -0.5158
   84CHL1    H9 8660   5.992   6.551   7.324  2.7295  3.5710 -5.0853
   84CHL1   C10 8661   6.055   6.470   7.144 -0.3031 -0.0708  0.2563
   84CHL1   C19 8662   6.134   6.348   7.096  0.3501 -0.2193 -0.4433
   84CHL1  H19A 8663   6.111   6.327   6.990  0.7682 -2.8910 -0.0806
   84CHL1  H19B 8664   6.242   6.357   7.119 -0.0342 -0.8252  1.8500
   84CHL1  H19C 8665   6.104   6.256   7.151  1.8473  0.0524  0.9084
   84CHL1    C1 8666   5.902   6.461   7.092 -0.2574  0.1934 -0.3917
   84CHL1   H1A 8667   5.862   6.361   7.119  1.8474 -1.2252 -2.2495
   84CHL1   H1B 8668   5.860   6.545   7.152 -0.0389  1.4850 -1.9694
   84CHL1    C2 8669   5.879   6.485   6.943  0.5209  0.1427 -0.1003
   84CHL1   H2A 8670   5.770   6.497   6.928  0.8210 -0.3792 -3.3122
   84CHL1   H2B 8671   5.910   6.400   6.880  1.8409 -0.9239  1.8526
   84CHL1   C20 8672   6.161   6.277   7.823 -0.2594  0.3403 -0.2211
   84CHL1   H20 8673   6.257   6.225   7.802 -0.6158 -0.3118 -0.2707
   84CHL1   C21 8674   6.041   6.185   7.808  0.0870 -0.0809 -0.4902
   84CHL1  H21A 8675   5.942   6.231   7.830  0.2029 -0.4129  0.8199
   84CHL1  H21B 8676   6.046   6.099   7.879  0.6960  0.5158  0.2080
   84CHL1  H21C 8677   6.036   6.128   7.713  0.4157 -1.4890  0.3014
   84CHL1   C22 8678   6.167   6.332   7.968 -0.9368 -0.4199  0.4685
   84CHL1  H22A 8679   6.228   6.425   7.977  0.0973 -0.7873 -2.0007
   84CHL1  H22B 8680   6.066   6.370   7.994 -0.5614  1.7762 -1.0321
   84CHL1   C23 8681   6.219   6.233   8.078 -0.0702  0.4267  0.3584
   84CHL1  H23A 8682   6.154   6.144   8.087  0.4729 -0.1855 -1.3550
   84CHL1  H23B 8683   6.319   6.198   8.044  0.2079  1.0793  0.4886
   84CHL1   C24 8684   6.221   6.309   8.208 -0.1792 -0.0457  0.1732
   84CHL1  H24A 8685   6.300   6.386   8.194  0.7926 -1.1680 -0.9069
   84CHL1  H24B 8686   6.127   6.364   8.225  0.2358  1.3527 -1.6916
   84CHL1   C25 8687   6.258   6.208   8.321  0.0554 -0.2430 -0.9155
   84CHL1   H25 8688   6.341   6.140   8.290  1.8901  1.4543  0.0568
   84CHL1   C26 8689   6.311   6.285   8.443  0.2274 -0.1354 -0.0931
   84CHL1  H26A 8690   6.322   6.212   8.527 -0.1457 -0.3834 -0.2566
   84CHL1  H26B 8691   6.413   6.319   8.418 -0.5261  0.9712 -1.8295
   84CHL1  H26C 8692   6.236   6.361   8.473  1.5488  1.2212 -0.1258
   84CHL1   C27 8693   6.133   6.122   8.370 -0.0389  0.8619  0.2967
   84CHL1  H27A 8694   6.157   6.048   8.449  0.8539 -0.2953 -1.0285
   84CHL1  H27B 8695   6.054   6.183   8.418 -1.2030  1.0045 -1.6939
   84CHL1  H27C 8696   6.096   6.070   8.280  0.0887  2.9777 -1.0590
   85CHL1    C3 8697   1.212   3.465   6.788  0.5884  0.7919 -0.3779
   85CHL1    H3 8698   1.106   3.470   6.819  0.4551  2.9711 -1.0672
   85CHL1    O3 8699   1.205   3.460   6.650  0.1107  0.4802  0.0638
   85CHL1   H3' 8700   1.292   3.478   6.613  0.1047  2.3322  0.8309
   85CHL1    C4 8701   1.285   3.585   6.846  0.1724  0.3342 -0.3219
   85CHL1   H4A 8702   1.386   3.591   6.800 -0.3102  1.8038 -1.2420
   85CHL1   H4B 8703   1.229   3.675   6.813 -0.8545  0.0096  0.4649
   85CHL1    C5 8704   1.295   3.584   6.993  0.3223  0.0955  0.3512
   85CHL1    C6 8705   1.257   3.691   7.065  0.7623  0.3831 -0.2517
   85CHL1    H6 8706   1.229   3.787   7.021 -0.2136  0.2394  0.0321
   85CHL1    C7 8707   1.262   3.692   7.217 -0.4086  0.2792  0.6848
   85CHL1   H7A 8708   1.305   3.794   7.230  0.8350  0.0362 -1.1065
   85CHL1   H7B 8709   1.160   3.682   7.259 -0.8965 -1.2446 -0.7383
   85CHL1    C8 8710   1.356   3.583   7.267 -0.1022  0.6034 -0.1017
   85CHL1    H8 8711   1.459   3.615   7.243 -0.5218  0.1524 -2.8060
   85CHL1   C14 8712   1.331   3.576   7.417 -0.7458  0.2158 -0.1798
   85CHL1   H14 8713   1.223   3.561   7.440 -0.4748  0.6697  1.4897
   85CHL1   C15 8714   1.348   3.705   7.500  0.2545  0.3563  0.7854
   85CHL1  H15A 8715   1.452   3.740   7.484  0.4653 -0.5901 -0.0228
   85CHL1  H15B 8716   1.272   3.780   7.469 -0.2229 -0.7524 -0.8680
   85CHL1   C16 8717   1.335   3.658   7.646  0.5801 -1.0245  0.3190
   85CHL1  H16A 8718   1.414   3.704   7.709  1.0971  0.3292 -1.2530
   85CHL1  H16B 8719   1.235   3.680   7.688  0.8757  0.2689  0.3913
   85CHL1   C17 8720   1.344   3.502   7.641  0.2092 -0.0166 -0.2522
   85CHL1   H17 8721   1.239   3.467   7.643 -0.4490  1.8272 -0.7617
   85CHL1   C13 8722   1.393   3.459   7.499 -0.4056 -0.5404  0.3711
   85CHL1   C18 8723   1.545   3.465   7.501 -0.0487  0.4364  0.1158
   85CHL1  H18A 8724   1.583   3.385   7.568 -1.2871 -1.4939 -1.3445
   85CHL1  H18B 8725   1.594   3.459   7.402  3.5931  0.8532  1.7302
   85CHL1  H18C 8726   1.581   3.563   7.539 -0.7744 -0.0031  2.0524
   85CHL1   C12 8727   1.356   3.323   7.443  0.1253 -0.2603  0.2794
   85CHL1  H12A 8728   1.419   3.248   7.496 -0.3810  1.9284  4.3587
   85CHL1  H12B 8729   1.248   3.311   7.463 -0.3910  0.8883 -1.5282
   85CHL1   C11 8730   1.384   3.325   7.289  0.2677  1.1518  0.2173
   85CHL1  H11A 8731   1.493   3.306   7.276 -0.2353 -1.2222 -1.2437
   85CHL1  H11B 8732   1.331   3.234   7.254  0.2523  0.0676  2.8770
   85CHL1    C9 8733   1.318   3.444   7.216  0.4550  0.0595  0.8901
   85CHL1    H9 8734   1.208   3.442   7.229  0.0611 -0.2209 -1.9432
   85CHL1   C10 8735   1.330   3.446   7.063 -0.2120  0.2734 -0.0776
   85CHL1   C19 8736   1.483   3.435   7.033  0.6575 -0.0828 -0.2987
   85CHL1  H19A 8737   1.490   3.441   6.922 -1.1660  0.0807 -0.4446
   85CHL1  H19B 8738   1.553   3.509   7.076 -1.0801  1.1517  0.5019
   85CHL1  H19C 8739   1.519   3.334   7.064 -1.4049 -0.1710  2.0759
   85CHL1    C1 8740   1.265   3.323   6.997  0.8424 -0.4714 -0.2700
   85CHL1   H1A 8741   1.309   3.229   7.035 -1.1244 -1.5754 -0.5754
   85CHL1   H1B 8742   1.159   3.315   7.030  1.0499 -0.0553  0.5476
   85CHL1    C2 8743   1.270   3.328   6.843 -0.0825 -0.5956  0.3179
   85CHL1   H2A 8744   1.187   3.257   6.820 -1.3009  0.5854  0.9062
   85CHL1   H2B 8745   1.368   3.296   6.801 -0.6291 -0.6558 -0.9431
   85CHL1   C20 8746   1.407   3.439   7.764  0.9308  0.3060  0.4433
   85CHL1   H20 8747   1.451   3.341   7.739  2.6041  0.8926  0.9904
   85CHL1   C21 8748   1.293   3.411   7.864 -0.0471  0.1252 -0.7719
   85CHL1  H21A 8749   1.237   3.504   7.887 -0.6564 -0.2640 -0.6503
   85CHL1  H21B 8750   1.328   3.376   7.963 -1.4809  2.4061  0.6443
   85CHL1  H21C 8751   1.221   3.339   7.819 -2.5664  2.2736 -0.4240
   85CHL1   C22 8752   1.529   3.522   7.832 -0.3558 -0.1472 -0.1840
   85CHL1  H22A 8753   1.599   3.562   7.756  2.3015 -2.6531  0.7929
   85CHL1  H22B 8754   1.484   3.609   7.884 -1.8668 -0.1172 -1.4735
   85CHL1   C23 8755   1.614   3.441   7.933 -0.5294 -0.0703  0.6520
   85CHL1  H23A 8756   1.553   3.440   8.027 -0.2122 -1.9491  0.8732
   85CHL1  H23B 8757   1.616   3.335   7.899  1.3453  0.4511 -1.0120
   85CHL1   C24 8758   1.751   3.501   7.957  0.0300  0.2861 -0.2775
   85CHL1  H24A 8759   1.820   3.503   7.870  2.2072 -2.5925  1.2150
   85CHL1  H24B 8760   1.735   3.608   7.984  0.7870 -0.5398  4.2111
   85CHL1   C25 8761   1.827   3.443   8.077  0.1515  0.0239 -0.4678
   85CHL1   H25 8762   1.856   3.340   8.045 -2.0589 -0.3620 -1.3811
   85CHL1   C26 8763   1.955   3.531   8.103 -0.3694 -0.9784  0.7470
   85CHL1  H26A 8764   2.019   3.524   8.012  0.7192  0.5782  1.3629
   85CHL1  H26B 8765   1.925   3.636   8.123  1.1184 -0.3374 -0.2214
   85CHL1  H26C 8766   1.994   3.484   8.195  1.2783 -1.5282 -0.1910
   85CHL1   C27 8767   1.752   3.410   8.208  0.4847  0.0513 -0.0806
   85CHL1  H27A 8768   1.682   3.324   8.198 -0.1664  0.3459  1.5453
   85CHL1  H27B 8769   1.836   3.378   8.274  0.2597 -2.2972 -0.8702
   85CHL1  H27C 8770   1.699   3.494   8.259  1.1480  1.0529 -0.9882
   86CHL1    C3 8771   1.984   6.181   6.783 -0.0136 -0.2679 -0.7328
   86CHL1    H3 8772   1.957   6.287   6.802  2.5109  0.3580 -0.3262
   86CHL1    O3 8773   1.947   6.159   6.641 -0.3480 -0.0827  0.3468
   86CHL1   H3' 8774   1.886   6.225   6.610  3.9675  2.8281 -3.2242
   86CHL1    C4 8775   2.133   6.156   6.802 -0.9735 -0.4999  0.0689
   86CHL1   H4A 8776   2.173   6.058   6.769  1.3377  1.3237 -3.1383
   86CHL1   H4B 8777   2.192   6.225   6.738 -0.8391 -0.4595  0.2327
   86CHL1    C5 8778   2.174   6.175   6.948  0.8023 -0.1265  0.4912
   86CHL1    C6 8779   2.264   6.256   6.988 -0.0959  0.3641  0.5585
   86CHL1    H6 8780   2.322   6.307   6.910  1.5685 -1.2208  0.6832
   86CHL1    C7 8781   2.310   6.282   7.129 -0.1053  1.1957  0.1665
   86CHL1   H7A 8782   2.419   6.298   7.123  0.5035 -2.5885 -1.1619
   86CHL1   H7B 8783   2.267   6.378   7.166  0.8435  1.6295  0.1701
   86CHL1    C8 8784   2.261   6.178   7.234 -0.2732 -0.1864 -0.3734
   86CHL1    H8 8785   2.325   6.088   7.222 -0.4724 -0.5278  0.9740
   86CHL1   C14 8786   2.262   6.224   7.385 -0.4372 -0.2599 -0.1932
   86CHL1   H14 8787   2.180   6.299   7.377 -1.0869 -1.1526 -2.7119
   86CHL1   C15 8788   2.386   6.312   7.435  0.2805  0.3088 -0.2661
   86CHL1  H15A 8789   2.480   6.277   7.388  0.4023  0.4667 -0.1386
   86CHL1  H15B 8790   2.359   6.419   7.420  1.7909  1.1007  2.1727
   86CHL1   C16 8791   2.387   6.280   7.586 -0.9041 -0.5321 -0.1674
   86CHL1  H16A 8792   2.470   6.207   7.601  0.7436  1.1727 -0.6756
   86CHL1  H16B 8793   2.402   6.365   7.656  1.6474 -1.3054  0.3422
   86CHL1   C17 8794   2.260   6.200   7.620  0.3099 -0.0706  0.4187
   86CHL1   H17 8795   2.183   6.279   7.633  0.8007  0.3739  0.6650
   86CHL1   C13 8796   2.223   6.124   7.486 -0.2007 -0.1253 -0.0670
   86CHL1   C18 8797   2.312   5.999   7.477 -0.5948  0.6614  0.2235
   86CHL1  H18A 8798   2.417   6.032   7.490  0.1336 -1.7602  1.0414
   86CHL1  H18B 8799   2.282   5.930   7.559  0.1934 -0.3925 -0.3470
   86CHL1  H18C 8800   2.314   5.946   7.380 -1.3141 -1.6658  1.4132
   86CHL1   C12 8801   2.075   6.087   7.447  0.1569  0.2768 -0.2561
   86CHL1  H12A 8802   2.044   6.007   7.517  0.2159 -0.0759 -0.6309
   86CHL1  H12B 8803   2.000   6.167   7.465  1.3945  0.9799  2.3930
   86CHL1   C11 8804   2.060   6.038   7.300 -0.4146  0.1459 -0.7828
   86CHL1  H11A 8805   2.100   5.935   7.285 -0.0062  0.5778 -2.9809
   86CHL1  H11B 8806   1.949   6.038   7.296 -0.4032  0.3524 -1.0576
   86CHL1    C9 8807   2.115   6.133   7.198  0.2170  0.0219  0.2017
   86CHL1    H9 8808   2.057   6.228   7.207 -0.2598 -0.4443  3.1444
   86CHL1   C10 8809   2.085   6.092   7.050 -0.2227  0.1312  0.2001
   86CHL1   C19 8810   2.116   5.937   7.030 -0.4147  0.3115 -0.6714
   86CHL1  H19A 8811   2.023   5.883   7.058 -1.3803 -0.5798 -4.8751
   86CHL1  H19B 8812   2.132   5.916   6.922  0.7021  0.8159 -0.6138
   86CHL1  H19C 8813   2.206   5.906   7.087 -1.6033 -0.1466  1.0540
   86CHL1    C1 8814   1.931   6.108   7.022 -0.4013 -0.7596 -0.6268
   86CHL1   H1A 8815   1.866   6.035   7.074 -0.8435 -0.7370 -1.1382
   86CHL1   H1B 8816   1.913   6.216   7.041  1.5445  0.2958 -3.8937
   86CHL1    C2 8817   1.900   6.089   6.872  0.6460  1.3946  0.1364
   86CHL1   H2A 8818   1.793   6.116   6.857  0.2771 -0.3019 -0.5438
   86CHL1   H2B 8819   1.907   5.985   6.834  1.1982  1.3952  0.2327
   86CHL1   C20 8820   2.262   6.121   7.750 -0.2547 -0.0156 -0.2786
   86CHL1   H20 8821   2.349   6.052   7.744  1.3921  1.9730 -0.2299
   86CHL1   C21 8822   2.126   6.052   7.788  0.1499  1.0770 -0.0273
   86CHL1  H21A 8823   2.127   6.003   7.887 -1.9690  0.0661 -0.4451
   86CHL1  H21B 8824   2.091   5.977   7.714 -0.4296  1.4692 -0.1559
   86CHL1  H21C 8825   2.042   6.124   7.792 -1.0314 -0.3102  3.3332
   86CHL1   C22 8826   2.313   6.214   7.869 -0.7355 -0.0405  0.5277
   86CHL1  H22A 8827   2.410   6.265   7.849 -0.8234 -0.6552 -1.7110
   86CHL1  H22B 8828   2.232   6.288   7.877 -0.4249  0.2104  1.5126
   86CHL1   C23 8829   2.332   6.148   8.002 -0.2232  0.0965 -0.9787
   86CHL1  H23A 8830   2.363   6.237   8.061  1.5136  0.7792 -2.8141
   86CHL1  H23B 8831   2.239   6.105   8.045  0.4517 -1.3569 -0.9068
   86CHL1   C24 8832   2.440   6.040   8.004 -0.2692 -0.4191  0.0548
   86CHL1  H24A 8833   2.418   5.956   7.935  0.9427 -1.2674  0.6553
   86CHL1  H24B 8834   2.532   6.088   7.964  1.1368 -2.1448  1.0518
   86CHL1   C25 8835   2.476   5.991   8.145  0.6969  0.2213 -0.6605
   86CHL1   H25 8836   2.385   5.936   8.175  1.5623 -0.9884 -0.1739
   86CHL1   C26 8837   2.592   5.888   8.135 -0.8913  0.5005 -0.1325
   86CHL1  H26A 8838   2.603   5.846   8.238 -1.4358  0.4859 -0.0753
   86CHL1  H26B 8839   2.579   5.797   8.073  0.9870  0.3787 -0.4029
   86CHL1  H26C 8840   2.683   5.942   8.102 -0.2661 -1.5211 -1.9695
   86CHL1   C27 8841   2.512   6.106   8.238 -0.0408  0.5282  0.4060
   86CHL1  H27A 8842   2.589   6.174   8.195  0.4862 -0.0536  0.4180
   86CHL1  H27B 8843   2.415   6.149   8.272 -0.0495 -0.5541  1.8147
   86CHL1  H27C 8844   2.560   6.068   8.330 -1.5788 -0.6573  0.7549
   87CHL1    C3 8845   3.388   5.647   6.990  0.6447 -0.0137 -0.7498
   87CHL1    H3 8846   3.389   5.758   6.995 -1.0461  0.0114 -0.1615
   87CHL1    O3 8847   3.434   5.597   6.862 -0.0360 -0.2977  0.1762
   87CHL1   H3' 8848   3.530   5.601   6.867 -0.0751 -0.4144  1.2927
   87CHL1    C4 8849   3.481   5.612   7.099 -0.6200  0.0171 -0.4149
   87CHL1   H4A 8850   3.499   5.502   7.093 -1.1903 -0.1263  0.4362
   87CHL1   H4B 8851   3.579   5.663   7.087 -0.1246 -0.6668  0.5962
   87CHL1    C5 8852   3.429   5.634   7.238  0.0075  0.1261 -0.1577
   87CHL1    C6 8853   3.503   5.708   7.329 -0.0287  0.2121  0.2618
   87CHL1    H6 8854   3.605   5.737   7.301  0.3651 -1.2576  0.0396
   87CHL1    C7 8855   3.456   5.734   7.472  0.0962 -0.8080 -0.3414
   87CHL1   H7A 8856   3.538   5.706   7.541 -1.0916  1.4912  2.1639
   87CHL1   H7B 8857   3.439   5.843   7.481 -4.2909 -1.2920 -0.3393
   87CHL1    C8 8858   3.326   5.657   7.516  0.0735 -0.4986 -0.4428
   87CHL1    H8 8859   3.353   5.553   7.543  0.5163 -0.1738  0.4395
   87CHL1   C14 8860   3.268   5.725   7.638 -0.1536 -0.3177 -0.0753
   87CHL1   H14 8861   3.229   5.824   7.607  0.9643 -0.1187 -0.8926
   87CHL1   C15 8862   3.357   5.743   7.762 -0.1550 -0.2047  0.4427
   87CHL1  H15A 8863   3.414   5.648   7.765  1.5331  0.7178 -0.8644
   87CHL1  H15B 8864   3.433   5.824   7.760  0.3889 -0.7081 -1.5548
   87CHL1   C16 8865   3.257   5.752   7.880 -0.2431 -0.1749 -1.1975
   87CHL1  H16A 8866   3.272   5.674   7.957 -0.9152 -0.2690 -1.1568
   87CHL1  H16B 8867   3.253   5.850   7.933 -1.3959 -0.9658  0.2724
   87CHL1   C17 8868   3.112   5.725   7.821 -0.0090  0.3876 -0.1041
   87CHL1   H17 8869   3.069   5.822   7.790 -0.1185  0.3290 -0.1334
   87CHL1   C13 8870   3.145   5.654   7.686  0.1406 -0.1930 -0.0032
   87CHL1   C18 8871   3.158   5.503   7.716  0.3672  0.0487 -0.2723
   87CHL1  H18A 8872   3.061   5.459   7.748 -0.1747  1.7089  0.4907
   87CHL1  H18B 8873   3.195   5.459   7.620  0.0130  2.8625 -1.8009
   87CHL1  H18C 8874   3.232   5.491   7.799 -0.5613 -0.1546  0.5415
   87CHL1   C12 8875   3.033   5.676   7.580  0.0962 -0.3416 -0.3915
   87CHL1  H12A 8876   2.934   5.636   7.609  0.9142  0.3414  4.1076
   87CHL1  H12B 8877   3.019   5.785   7.564 -0.4512 -0.1676  1.1556
   87CHL1   C11 8878   3.081   5.626   7.442  0.3519 -0.6766 -0.2111
   87CHL1  H11A 8879   3.070   5.515   7.451 -1.8219 -0.5110 -0.2652
   87CHL1  H11B 8880   3.002   5.653   7.369 -0.8347  0.0326  1.2807
   87CHL1    C9 8881   3.226   5.663   7.399 -0.1034 -0.3471 -0.5771
   87CHL1    H9 8882   3.218   5.771   7.377  0.7874  0.3257  2.0407
   87CHL1   C10 8883   3.282   5.588   7.270 -0.0744 -0.6895 -0.2725
   87CHL1   C19 8884   3.288   5.430   7.281 -0.6458  0.3133 -0.3361
   87CHL1  H19A 8885   3.192   5.380   7.306  0.1639 -1.7897 -1.1476
   87CHL1  H19B 8886   3.347   5.387   7.198 -1.9384 -1.6346 -0.3161
   87CHL1  H19C 8887   3.349   5.407   7.371 -0.2674 -1.6177 -1.0289
   87CHL1    C1 8888   3.186   5.635   7.157  0.9090 -0.4236 -0.0377
   87CHL1   H1A 8889   3.085   5.591   7.170  0.0756  0.8244 -1.7802
   87CHL1   H1B 8890   3.180   5.746   7.146  2.3801 -0.4594 -1.7371
   87CHL1    C2 8891   3.246   5.597   7.022 -0.1559  0.2984  0.1752
   87CHL1   H2A 8892   3.186   5.636   6.937  1.3747 -0.2825 -1.2328
   87CHL1   H2B 8893   3.239   5.486   7.020 -0.4320  0.3121  0.3458
   87CHL1   C20 8894   3.008   5.671   7.913  0.9866 -0.1018  0.4400
   87CHL1   H20 8895   3.032   5.568   7.946 -2.0308 -1.9388 -2.4892
   87CHL1   C21 8896   2.866   5.676   7.852 -0.2671  0.2812  0.2919
   87CHL1  H21A 8897   2.796   5.664   7.938  0.8518 -0.5143  1.1181
   87CHL1  H21B 8898   2.835   5.579   7.807  1.5219 -0.2738  0.2137
   87CHL1  H21C 8899   2.845   5.759   7.781  1.5271 -0.4104 -1.1078
   87CHL1   C22 8900   2.994   5.749   8.046 -0.6494  0.0291  0.0174
   87CHL1  H22A 8901   3.092   5.782   8.087 -1.1621  0.6649  0.7828
   87CHL1  H22B 8902   2.940   5.844   8.023  0.6853  0.2435 -2.5986
   87CHL1   C23 8903   2.933   5.658   8.156 -0.0478 -0.8515  0.0445
   87CHL1  H23A 8904   2.836   5.622   8.116 -0.2757  0.2133 -0.3997
   87CHL1  H23B 8905   3.005   5.578   8.181  0.7192  0.5066  2.5163
   87CHL1   C24 8906   2.925   5.728   8.295  0.3113 -0.0645 -0.2187
   87CHL1  H24A 8907   3.029   5.759   8.320  0.4841 -0.9146  0.1368
   87CHL1  H24B 8908   2.862   5.820   8.298  1.4328  0.7208  0.1448
   87CHL1   C25 8909   2.876   5.631   8.406 -0.4744  0.8522  0.6261
   87CHL1   H25 8910   2.951   5.550   8.421  1.5679  1.5405 -4.0198
   87CHL1   C26 8911   2.858   5.700   8.546  0.4685 -0.0714  0.4023
   87CHL1  H26A 8912   2.796   5.792   8.543  2.1187  1.0650 -0.3874
   87CHL1  H26B 8913   2.791   5.628   8.597  0.2899  0.2647  0.6439
   87CHL1  H26C 8914   2.958   5.714   8.592  0.8836  0.2560 -0.5823
   87CHL1   C27 8915   2.746   5.567   8.367 -1.1674  0.2046  0.6363
   87CHL1  H27A 8916   2.743   5.506   8.274 -2.2073  1.6515 -0.3530
   87CHL1  H27B 8917   2.713   5.492   8.442  0.7379 -2.3321 -0.8947
   87CHL1  H27C 8918   2.664   5.641   8.354 -0.1387  1.1827 -0.5479
   88CHL1    C3 8919   6.775   4.147   6.875  0.3160 -0.0684 -0.8823
   88CHL1    H3 8920   6.739   4.045   6.901  2.0411 -0.2315  1.1185
   88CHL1    O3 8921   6.813   4.152   6.739 -0.2166 -0.0084 -1.1222
   88CHL1   H3' 8922   6.887   4.093   6.729  0.7892  0.7686  1.0926
   88CHL1    C4 8923   6.673   4.256   6.900  0.1382 -0.0441  0.4202
   88CHL1   H4A 8924   6.722   4.352   6.873 -0.4442  0.3861  0.8919
   88CHL1   H4B 8925   6.592   4.231   6.828  1.0159  1.0037 -1.0113
   88CHL1    C5 8926   6.626   4.251   7.044  0.4038  0.6526 -0.6937
   88CHL1    C6 8927   6.497   4.224   7.077 -0.2394 -0.2396  1.0608
   88CHL1    H6 8928   6.420   4.223   6.999  1.2952  1.3334 -0.5609
   88CHL1    C7 8929   6.440   4.225   7.211 -0.0500 -0.3206 -0.7047
   88CHL1   H7A 8930   6.345   4.283   7.212 -0.2288 -0.4588  2.4921
   88CHL1   H7B 8931   6.415   4.120   7.239  4.5163 -1.1564  1.0847
   88CHL1    C8 8932   6.535   4.277   7.318  0.6782 -0.5293  0.0416
   88CHL1    H8 8933   6.523   4.387   7.325  1.4872 -0.5030  1.3890
   88CHL1   C14 8934   6.494   4.217   7.455  0.6070 -1.0135 -0.1772
   88CHL1   H14 8935   6.516   4.108   7.452  0.7807 -1.0289  1.2253
   88CHL1   C15 8936   6.353   4.234   7.512  0.4616  0.0415  0.1260
   88CHL1  H15A 8937   6.314   4.338   7.506  0.6644  0.1060 -0.0806
   88CHL1  H15B 8938   6.269   4.176   7.467  0.0451  0.3282  0.5180
   88CHL1   C16 8939   6.366   4.197   7.657  0.2640 -0.0451  0.2995
   88CHL1  H16A 8940   6.308   4.268   7.719  1.2879  4.1708 -3.0781
   88CHL1  H16B 8941   6.329   4.093   7.673 -0.3609 -0.0239 -0.9114
   88CHL1   C17 8942   6.516   4.199   7.688  0.4432  0.2460  0.5165
   88CHL1   H17 8943   6.556   4.096   7.676  0.0523  0.0806  0.6320
   88CHL1   C13 8944   6.579   4.275   7.573  0.5563  0.5480  0.1213
   88CHL1   C18 8945   6.565   4.427   7.591 -0.2627  0.2917 -0.3600
   88CHL1  H18A 8946   6.646   4.451   7.663  0.6645 -1.6773 -0.6744
   88CHL1  H18B 8947   6.592   4.485   7.500  1.7650 -0.1861 -0.1103
   88CHL1  H18C 8948   6.463   4.452   7.626 -0.8810 -2.6378  0.1987
   88CHL1   C12 8949   6.724   4.229   7.543  0.5785  0.2737  0.0456
   88CHL1  H12A 8950   6.789   4.281   7.617  0.5406 -0.9863  0.9945
   88CHL1  H12B 8951   6.734   4.119   7.557 -0.9596  0.2088  0.9362
   88CHL1   C11 8952   6.774   4.274   7.408  0.9272 -0.1556 -0.5138
   88CHL1  H11A 8953   6.801   4.381   7.416  5.5886 -1.1037 -0.9543
   88CHL1  H11B 8954   6.873   4.228   7.386  2.2985  2.2171  0.3719
   88CHL1    C9 8955   6.681   4.231   7.289  0.4166 -0.0976 -0.3595
   88CHL1    H9 8956   6.685   4.121   7.302  2.9049  0.0336  0.3280
   88CHL1   C10 8957   6.736   4.264   7.155 -1.1805 -0.4130  0.3007
   88CHL1   C19 8958   6.782   4.417   7.161 -0.6578 -0.8158  0.6436
   88CHL1  H19A 8959   6.868   4.429   7.230 -0.1758  3.5773 -0.4722
   88CHL1  H19B 8960   6.816   4.445   7.059 -0.0379  3.4241  1.8235
   88CHL1  H19C 8961   6.699   4.486   7.188 -0.1249  0.3112 -0.5138
   88CHL1    C1 8962   6.858   4.173   7.113  0.1459  0.2384 -0.2007
   88CHL1   H1A 8963   6.939   4.201   7.183 -0.2498 -1.2259  0.8870
   88CHL1   H1B 8964   6.822   4.072   7.143  3.8693 -0.2691  3.3451
   88CHL1    C2 8965   6.898   4.166   6.967 -0.4285 -0.1797 -0.4292
   88CHL1   H2A 8966   6.969   4.082   6.952 -1.1704 -1.0485  0.7823
   88CHL1   H2B 8967   6.957   4.257   6.940  0.4732 -0.4435  0.5643
   88CHL1   C20 8968   6.538   4.249   7.834 -0.7103 -0.1723 -0.4983
   88CHL1   H20 8969   6.506   4.355   7.838  0.2939  0.1263  2.0771
   88CHL1   C21 8970   6.688   4.232   7.863 -0.8638 -0.0942 -0.9789
   88CHL1  H21A 8971   6.712   4.249   7.970  1.4776  0.1090 -1.4877
   88CHL1  H21B 8972   6.746   4.312   7.812  0.5741 -1.1539 -1.0889
   88CHL1  H21C 8973   6.726   4.131   7.835  2.8917  1.6360 -2.7877
   88CHL1   C22 8974   6.463   4.173   7.943 -0.1335 -0.5460  0.3055
   88CHL1  H22A 8975   6.491   4.216   8.041  1.5539 -0.8036 -0.0428
   88CHL1  H22B 8976   6.355   4.192   7.922  0.0787 -0.2568 -0.5630
   88CHL1   C23 8977   6.487   4.022   7.948  0.0486 -0.2491 -0.2953
   88CHL1  H23A 8978   6.462   3.975   7.850  0.1338  0.2035 -0.5358
   88CHL1  H23B 8979   6.595   4.005   7.965 -0.0272 -0.3251  0.1245
   88CHL1   C24 8980   6.403   3.938   8.050  0.1376 -0.9279  0.8476
   88CHL1  H24A 8981   6.414   3.967   8.156 -1.2439  2.9763  0.0514
   88CHL1  H24B 8982   6.299   3.951   8.015  0.0089 -1.0604  1.1787
   88CHL1   C25 8983   6.425   3.785   8.035 -0.3647 -1.0328  0.0275
   88CHL1   H25 8984   6.455   3.772   7.929 -2.7454  1.2440 -1.0368
   88CHL1   C26 8985   6.539   3.740   8.128  0.4506 -0.4085  1.0836
   88CHL1  H26A 8986   6.507   3.766   8.231  0.6434 -2.4664  1.7081
   88CHL1  H26B 8987   6.562   3.632   8.114 -0.3694 -0.7030  1.9341
   88CHL1  H26C 8988   6.625   3.800   8.091 -1.2624  1.1723 -0.5107
   88CHL1   C27 8989   6.295   3.698   8.066  0.8834 -0.5482 -0.6278
   88CHL1  H27A 8990   6.311   3.610   8.131  1.7352  1.2625  1.7400
   88CHL1  H27B 8991   6.220   3.756   8.123  2.3800 -0.4839  1.3752
   88CHL1  H27C 8992   6.240   3.662   7.976  0.5529 -2.3585  0.2575
   89CHL1    C3 8993   0.409   6.473   7.097 -0.8516 -0.4602  0.1276
   89CHL1    H3 8994   0.385   6.365   7.095  2.6808 -1.3868 -0.9904
   89CHL1    O3 8995   0.397   6.510   6.961  0.1512  0.4170  0.1613
   89CHL1   H3' 8996   0.406   6.605   6.953  1.2036  0.3594  0.4672
   89CHL1    C4 8997   0.305   6.554   7.182  0.4324  0.1651  0.5348
   89CHL1   H4A 8998   0.320   6.663   7.166  2.7236 -0.2935 -1.1188
   89CHL1   H4B 8999   0.205   6.526   7.142  1.2978  0.7755 -2.3301
   89CHL1    C5 9000   0.324   6.514   7.330 -0.0298  0.0456  0.3414
   89CHL1    C6 9001   0.213   6.473   7.402  0.2613 -0.0568  0.7171
   89CHL1    H6 9002   0.118   6.462   7.348 -1.1831 -0.2450  3.1592
   89CHL1    C7 9003   0.209   6.433   7.544 -0.7010 -0.8593 -0.0937
   89CHL1   H7A 9004   0.119   6.479   7.590  0.1887  1.8399 -0.8767
   89CHL1   H7B 9005   0.201   6.322   7.544 -0.5754 -0.9025  2.0089
   89CHL1    C8 9006   0.347   6.477   7.613 -0.8584  0.2437 -0.2711
   89CHL1    H8 9007   0.338   6.585   7.640  0.0570 -0.0379  1.2535
   89CHL1   C14 9008   0.367   6.401   7.738 -0.5207  0.1036 -0.9456
   89CHL1   H14 9009   0.393   6.296   7.716  0.5904 -0.3980  2.2521
   89CHL1   C15 9010   0.240   6.384   7.831 -0.0440 -0.0407 -0.7413
   89CHL1  H15A 9011   0.180   6.478   7.832 -2.1289 -1.1921  3.1683
   89CHL1  H15B 9012   0.177   6.297   7.805 -0.2499  0.1316 -0.8225
   89CHL1   C16 9013   0.317   6.350   7.966  0.3839 -0.1683  0.2622
   89CHL1  H16A 9014   0.287   6.437   8.027  2.5550  1.4673 -0.8824
   89CHL1  H16B 9015   0.282   6.252   8.006 -2.2166  1.0526  1.2214
   89CHL1   C17 9016   0.472   6.351   7.938 -1.2918  0.5688 -0.0260
   89CHL1   H17 9017   0.503   6.251   7.899 -1.8284  0.0104  0.9451
   89CHL1   C13 9018   0.495   6.442   7.822  0.1664 -0.1288 -0.0141
   89CHL1   C18 9019   0.481   6.588   7.869 -0.3257  0.3235  0.4330
   89CHL1  H18A 9020   0.473   6.659   7.783 -1.4924  1.6568  1.5936
   89CHL1  H18B 9021   0.392   6.593   7.935  0.6625 -0.0849  1.8157
   89CHL1  H18C 9022   0.570   6.619   7.927  0.0054  0.3834 -0.1038
   89CHL1   C12 9023   0.622   6.419   7.735  0.7520  0.2399  0.1750
   89CHL1  H12A 9024   0.722   6.445   7.776  0.0299  1.1633  1.4268
   89CHL1  H12B 9025   0.636   6.314   7.702  1.0603  0.1960  0.4382
   89CHL1   C11 9026   0.601   6.504   7.603  0.0442 -0.4874 -0.2882
   89CHL1  H11A 9027   0.622   6.609   7.635  0.8976 -0.9054  0.5739
   89CHL1  H11B 9028   0.684   6.468   7.539 -1.4523 -2.9121 -0.9885
   89CHL1    C9 9029   0.475   6.463   7.528  0.6217 -0.3109 -0.3933
   89CHL1    H9 9030   0.492   6.354   7.522 -1.4678 -1.0467  3.5506
   89CHL1   C10 9031   0.466   6.534   7.383  0.7944 -0.1510 -0.0903
   89CHL1   C19 9032   0.499   6.679   7.395  0.1724  0.4531 -0.0366
   89CHL1  H19A 9033   0.459   6.739   7.311 -0.6182 -1.0095 -0.7380
   89CHL1  H19B 9034   0.439   6.715   7.481  0.6327  0.5217  0.2573
   89CHL1  H19C 9035   0.607   6.694   7.420 -0.5859  0.8212  3.5094
   89CHL1    C1 9036   0.575   6.474   7.284  0.3582 -1.2458  0.2201
   89CHL1   H1A 9037   0.665   6.524   7.325 -0.0507 -1.6659  1.6953
   89CHL1   H1B 9038   0.588   6.363   7.291 -0.4128 -1.5395 -2.0428
   89CHL1    C2 9039   0.544   6.511   7.138 -0.1010  0.1864  0.0278
   89CHL1   H2A 9040   0.618   6.457   7.075 -0.1025 -3.2840  2.7378
   89CHL1   H2B 9041   0.553   6.621   7.124 -0.7445  0.0752 -1.5159
   89CHL1   C20 9042   0.548   6.377   8.068  0.1087 -0.2649 -0.1902
   89CHL1   H20 9043   0.531   6.482   8.102  0.2181 -0.3995  0.2865
   89CHL1   C21 9044   0.696   6.356   8.048 -0.1784  0.2418 -0.1207
   89CHL1  H21A 9045   0.741   6.436   7.985 -0.7514  0.7290  0.0791
   89CHL1  H21B 9046   0.715   6.260   7.994 -0.4416  0.3041 -0.3259
   89CHL1  H21C 9047   0.752   6.356   8.144 -0.1685 -0.4800 -0.1163
   89CHL1   C22 9048   0.497   6.278   8.181 -0.2839  0.0037 -0.3482
   89CHL1  H22A 9049   0.558   6.314   8.267 -1.1868  0.7787 -0.0085
   89CHL1  H22B 9050   0.390   6.300   8.205 -0.0699 -0.9150  1.6667
   89CHL1   C23 9051   0.519   6.127   8.151 -0.0958  0.1173  0.2813
   89CHL1  H23A 9052   0.438   6.081   8.090 -2.4834  2.0425  1.7895
   89CHL1  H23B 9053   0.616   6.116   8.100 -0.1943 -0.2680  0.1718
   89CHL1   C24 9054   0.528   6.044   8.280 -0.1266 -0.4077  0.7327
   89CHL1  H24A 9055   0.439   6.060   8.344  0.6157  1.0828  1.4444
   89CHL1  H24B 9056   0.529   5.939   8.243 -0.8896 -0.2269  0.1680
   89CHL1   C25 9057   0.657   6.066   8.359 -0.2727 -0.3216 -0.3969
   89CHL1   H25 9058   0.690   6.172   8.374 -1.6314 -0.2745  3.4349
   89CHL1   C26 9059   0.637   6.007   8.500  0.3306  0.4501  0.3316
   89CHL1  H26A 9060   0.732   5.995   8.556 -0.8142 -0.9702  2.0914
   89CHL1  H26B 9061   0.557   6.063   8.554 -0.7090 -0.2146 -0.4837
   89CHL1  H26C 9062   0.603   5.903   8.484  0.8841  0.4111 -0.6397
   89CHL1   C27 9063   0.777   5.994   8.300 -0.1749  0.3329 -0.3713
   89CHL1  H27A 9064   0.793   6.035   8.198  0.1907 -0.7588 -0.7662
   89CHL1  H27B 9065   0.858   6.014   8.374  1.0917 -0.9544 -1.3479
   89CHL1  H27C 9066   0.761   5.884   8.302 -1.5327  0.5069  1.6117
   90CHL1    C3 9067   2.474   2.478   6.765  0.2082 -0.0684 -0.2550
   90CHL1    H3 9068   2.501   2.376   6.732  1.0399  0.9373 -3.0284
   90CHL1    O3 9069   2.449   2.551   6.644 -1.0525  0.3117  0.5223
   90CHL1   H3' 9070   2.454   2.642   6.675  2.0626  0.0863  1.0090
   90CHL1    C4 9071   2.346   2.485   6.837 -0.3351  0.2125  0.1713
   90CHL1   H4A 9072   2.317   2.591   6.853  0.0121  0.2132  0.8224
   90CHL1   H4B 9073   2.262   2.435   6.784  0.3319  0.1946 -0.9179
   90CHL1    C5 9074   2.367   2.426   6.981 -0.0260 -1.1064  0.5715
   90CHL1    C6 9075   2.286   2.333   7.028  0.4572  0.1742 -0.5465
   90CHL1    H6 9076   2.220   2.277   6.960  0.9332 -1.5394  0.3277
   90CHL1    C7 9077   2.290   2.282   7.168 -0.0790 -0.1702  0.6260
   90CHL1   H7A 9078   2.187   2.264   7.206  0.2941 -1.5035  1.0681
   90CHL1   H7B 9079   2.336   2.181   7.157  0.1079  0.0981 -1.6525
   90CHL1    C8 9080   2.370   2.380   7.258  0.0317  0.3427  0.4066
   90CHL1    H8 9081   2.301   2.467   7.267 -1.2223 -0.6118  0.2736
   90CHL1   C14 9082   2.403   2.315   7.392 -0.3560  0.2615  0.0250
   90CHL1   H14 9083   2.471   2.233   7.361 -0.2960  0.4597 -0.3682
   90CHL1   C15 9084   2.292   2.246   7.471 -0.2752  0.2573  0.4160
   90CHL1  H15A 9085   2.214   2.322   7.490 -1.0251 -1.1533  3.4596
   90CHL1  H15B 9086   2.243   2.163   7.416 -0.0472  0.2638  0.1951
   90CHL1   C16 9087   2.352   2.206   7.605  0.1366 -0.2367  0.1273
   90CHL1  H16A 9088   2.295   2.254   7.687 -0.8090  1.6551 -1.5433
   90CHL1  H16B 9089   2.360   2.096   7.618  0.7251 -0.3313 -0.9207
   90CHL1   C17 9090   2.500   2.279   7.605  0.0407 -0.1610 -0.3907
   90CHL1   H17 9091   2.575   2.202   7.578 -2.4845 -2.2543 -1.8919
   90CHL1   C13 9092   2.490   2.384   7.492 -0.1392  0.1737  0.7083
   90CHL1   C18 9093   2.423   2.516   7.545  0.3088  0.1849  0.5027
   90CHL1  H18A 9094   2.487   2.558   7.626 -1.2386 -0.2904  2.0449
   90CHL1  H18B 9095   2.417   2.590   7.463  0.9531  1.7133  1.7710
   90CHL1  H18C 9096   2.330   2.483   7.597  0.6815  0.7372  1.5487
   90CHL1   C12 9097   2.622   2.415   7.428  0.8608  0.6097 -0.2181
   90CHL1  H12A 9098   2.674   2.482   7.500 -1.1671  1.9059  0.1396
   90CHL1  H12B 9099   2.680   2.322   7.416  1.4068  0.9177 -0.0088
   90CHL1   C11 9100   2.598   2.495   7.294  0.4568  0.2635 -0.8673
   90CHL1  H11A 9101   2.552   2.591   7.325 -0.6827 -1.3765  3.1300
   90CHL1  H11B 9102   2.696   2.518   7.246  0.7525 -1.4756 -1.1692
   90CHL1    C9 9103   2.504   2.419   7.192 -0.9068  0.1951  0.4473
   90CHL1    H9 9104   2.557   2.322   7.176  0.6928  1.0669  0.2857
   90CHL1   C10 9105   2.480   2.493   7.061 -0.2386  1.3803  0.0793
   90CHL1   C19 9106   2.450   2.640   7.095 -0.2943  0.6421  0.1968
   90CHL1  H19A 9107   2.397   2.692   7.012 -0.5843 -1.2683 -0.8980
   90CHL1  H19B 9108   2.384   2.651   7.184 -0.5254 -0.1159  0.1342
   90CHL1  H19C 9109   2.540   2.697   7.125 -1.3255  1.4481  1.8705
   90CHL1    C1 9110   2.614   2.489   6.979  0.6889 -1.2607 -0.0455
   90CHL1   H1A 9111   2.682   2.560   7.031 -0.0499  0.9544 -1.9331
   90CHL1   H1B 9112   2.655   2.385   6.977  1.5670 -0.9360  0.5140
   90CHL1    C2 9113   2.589   2.547   6.839  0.3121  0.0316  0.6337
   90CHL1   H2A 9114   2.679   2.553   6.775 -0.8930 -2.0617 -1.4376
   90CHL1   H2B 9115   2.572   2.656   6.854 -1.3356 -0.0069 -0.6624
   90CHL1   C20 9116   2.542   2.320   7.744 -0.6356  0.0048 -0.3415
   90CHL1   H20 9117   2.473   2.395   7.788 -1.8363 -1.3710  0.1922
   90CHL1   C21 9118   2.685   2.383   7.734  0.4557  0.0173  0.6856
   90CHL1  H21A 9119   2.744   2.319   7.665 -0.7325  0.6739 -1.0254
   90CHL1  H21B 9120   2.731   2.380   7.835  2.4851  2.4483 -0.0736
   90CHL1  H21C 9121   2.682   2.487   7.695 -1.5030  0.1746  1.1487
   90CHL1   C22 9122   2.541   2.207   7.848  0.1397 -0.3613 -0.3746
   90CHL1  H22A 9123   2.483   2.122   7.807  0.2201 -0.0107 -1.2378
   90CHL1  H22B 9124   2.646   2.173   7.860 -0.6341 -2.8608 -0.2907
   90CHL1   C23 9125   2.500   2.249   7.996  0.2976  0.0119  0.9045
   90CHL1  H23A 9126   2.551   2.344   8.021 -0.3002  0.3196  0.9710
   90CHL1  H23B 9127   2.392   2.267   7.978  0.0670 -1.0592  1.1270
   90CHL1   C24 9128   2.511   2.141   8.095  0.0764 -0.0939 -0.4784
   90CHL1  H24A 9129   2.471   2.047   8.053 -0.6973 -0.6675  1.4457
   90CHL1  H24B 9130   2.621   2.126   8.104 -0.1193 -2.0417 -0.9411
   90CHL1   C25 9131   2.440   2.169   8.232  0.1360  1.1192  0.5786
   90CHL1   H25 9132   2.474   2.269   8.266 -1.9319  1.9173  0.4442
   90CHL1   C26 9133   2.290   2.160   8.208  0.2131 -0.2883  0.5894
   90CHL1  H26A 9134   2.240   2.208   8.295 -0.4398  0.8400 -0.3850
   90CHL1  H26B 9135   2.250   2.229   8.131 -0.5038  1.5314  2.4828
   90CHL1  H26C 9136   2.241   2.060   8.208  0.4070 -0.4872  3.7172
   90CHL1   C27 9137   2.475   2.070   8.337 -0.7450  0.3146  0.2717
   90CHL1  H27A 9138   2.437   1.967   8.322  2.3015 -0.8076 -0.2684
   90CHL1  H27B 9139   2.585   2.065   8.347 -0.7213 -0.9481 -0.5488
   90CHL1  H27C 9140   2.439   2.110   8.435 -0.3387  0.5561  0.3219
   91CHL1    C3 9141   4.072   4.724   7.189 -0.1449  0.3439  0.2271
   91CHL1    H3 9142   4.064   4.646   7.268  0.8362  1.6429  1.6826
   91CHL1    O3 9143   4.070   4.671   7.058 -0.1474 -0.2535 -0.1131
   91CHL1   H3' 9144   4.072   4.752   7.006 -1.9100  0.0261  0.1886
   91CHL1    C4 9145   3.958   4.818   7.210 -0.1869 -0.8986  0.2623
   91CHL1   H4A 9146   3.960   4.903   7.138  0.1736 -1.4286 -0.3714
   91CHL1   H4B 9147   3.866   4.761   7.183  0.6074 -1.8916 -0.4285
   91CHL1    C5 9148   3.962   4.884   7.348 -0.0668 -0.2554 -0.4462
   91CHL1    C6 9149   3.850   4.874   7.421 -0.0298  0.5786 -0.0323
   91CHL1    H6 9150   3.764   4.819   7.380 -0.6848  0.8593  0.9230
   91CHL1    C7 9151   3.844   4.919   7.560  0.5915 -0.3564  0.7072
   91CHL1   H7A 9152   3.743   4.964   7.573 -0.2364 -1.7267 -0.6844
   91CHL1   H7B 9153   3.841   4.827   7.622  0.4400  0.3221  1.7318
   91CHL1    C8 9154   3.963   5.016   7.601 -0.1373 -0.3234 -0.1049
   91CHL1    H8 9155   3.946   5.120   7.565  1.6853 -0.2599 -0.9010
   91CHL1   C14 9156   3.975   5.038   7.749  0.4343 -0.0988 -0.2789
   91CHL1   H14 9157   3.995   4.937   7.791 -0.9323 -0.3771 -0.2443
   91CHL1   C15 9158   3.849   5.079   7.833  0.0430  0.0641 -0.6168
   91CHL1  H15A 9159   3.804   5.166   7.780  1.5212  0.4884 -1.2411
   91CHL1  H15B 9160   3.760   5.016   7.851 -0.4132  1.2489  1.6721
   91CHL1   C16 9161   3.907   5.117   7.971  0.0273  0.8629 -0.1132
   91CHL1  H16A 9162   3.856   5.203   8.020 -1.9024 -1.3878  2.1292
   91CHL1  H16B 9163   3.883   5.025   8.029 -0.6808  0.2162 -1.3931
   91CHL1   C17 9164   4.060   5.120   7.951  0.1837 -0.2870 -0.3792
   91CHL1   H17 9165   4.101   5.022   7.985  1.3066  0.8919  1.8301
   91CHL1   C13 9166   4.085   5.125   7.799 -0.0228 -0.0666 -0.4648
   91CHL1   C18 9167   4.062   5.268   7.752  0.4826  0.0402  0.3950
   91CHL1  H18A 9168   4.032   5.293   7.648  0.9329  0.5095  0.3700
   91CHL1  H18B 9169   3.978   5.314   7.808 -1.1246 -0.4753 -1.5119
   91CHL1  H18C 9170   4.145   5.340   7.768  0.8739 -0.7219  2.0383
   91CHL1   C12 9171   4.210   5.067   7.743 -0.8127 -0.7922 -0.9724
   91CHL1  H12A 9172   4.298   5.130   7.769 -0.5048 -1.2402 -0.9033
   91CHL1  H12B 9173   4.235   4.970   7.790  2.7384  1.0764  1.4566
   91CHL1   C11 9174   4.214   5.049   7.590  0.2812 -0.3031 -0.4725
   91CHL1  H11A 9175   4.208   5.153   7.550  0.6330 -0.0571  0.0984
   91CHL1  H11B 9176   4.314   5.016   7.556  1.2575  2.6620 -0.7895
   91CHL1    C9 9177   4.095   4.964   7.545  0.5458  0.6419 -0.4682
   91CHL1    H9 9178   4.110   4.864   7.592  0.9102  1.3416  0.9377
   91CHL1   C10 9179   4.089   4.945   7.389 -0.4841 -0.1071  0.5915
   91CHL1   C19 9180   4.115   5.081   7.314 -0.2794  0.5965 -0.2473
   91CHL1  H19A 9181   4.216   5.125   7.325  0.2030 -0.3761 -0.6277
   91CHL1  H19B 9182   4.103   5.060   7.205  0.3853 -2.8390  0.2242
   91CHL1  H19C 9183   4.044   5.160   7.346 -0.4621  0.1612  0.4486
   91CHL1    C1 9184   4.208   4.848   7.353  0.5713  0.6390 -0.2954
   91CHL1   H1A 9185   4.303   4.905   7.366 -0.3011  2.2853 -0.8030
   91CHL1   H1B 9186   4.199   4.759   7.419 -0.9144  0.1386 -1.1233
   91CHL1    C2 9187   4.204   4.794   7.208 -1.0307 -0.2065  0.2639
   91CHL1   H2A 9188   4.294   4.731   7.196  0.3867  1.7592  0.1807
   91CHL1   H2B 9189   4.218   4.871   7.130 -2.0430 -0.0557  0.2183
   91CHL1   C20 9190   4.115   5.234   8.046 -0.4469 -0.3116 -0.3173
   91CHL1   H20 9191   4.063   5.330   8.027  1.0821  0.4906 -0.5476
   91CHL1   C21 9192   4.264   5.267   8.025 -0.0754 -0.2992 -0.1778
   91CHL1  H21A 9193   4.316   5.343   8.086 -0.7031 -0.2975  0.3693
   91CHL1  H21B 9194   4.281   5.296   7.919  0.5483 -0.8795 -0.2430
   91CHL1  H21C 9195   4.314   5.169   8.041  0.2482  0.0928  1.3315
   91CHL1   C22 9196   4.099   5.220   8.203 -0.5870  0.2427 -0.6852
   91CHL1  H22A 9197   4.162   5.299   8.249  0.3332 -1.5301  1.2993
   91CHL1  H22B 9198   3.989   5.233   8.211 -0.5428  0.3261 -0.1984
   91CHL1   C23 9199   4.133   5.080   8.260 -0.2039 -0.3918  0.2639
   91CHL1  H23A 9200   4.072   5.006   8.203 -0.0676  1.5324 -2.5564
   91CHL1  H23B 9201   4.237   5.046   8.241 -0.4836 -0.7773 -0.6060
   91CHL1   C24 9202   4.107   5.079   8.416 -0.1912 -0.3616  0.2305
   91CHL1  H24A 9203   4.063   5.175   8.450  0.3645 -0.9256  2.7941
   91CHL1  H24B 9204   4.021   5.010   8.435 -0.8851  0.7272  1.1702
   91CHL1   C25 9205   4.221   5.035   8.508 -0.3032 -0.3389  1.4044
   91CHL1   H25 9206   4.258   4.937   8.472  3.3103  0.4711  2.5207
   91CHL1   C26 9207   4.344   5.128   8.485 -0.4810 -0.2261  0.3568
   91CHL1  H26A 9208   4.407   5.134   8.576  0.0764  1.7536 -0.1317
   91CHL1  H26B 9209   4.409   5.088   8.404  0.6835 -0.1614  1.2309
   91CHL1  H26C 9210   4.310   5.232   8.470 -0.3225 -0.2557 -0.2365
   91CHL1   C27 9211   4.181   5.043   8.661  0.4226 -0.0208 -0.4674
   91CHL1  H27A 9212   4.257   4.998   8.729  0.1860 -0.8415 -0.7415
   91CHL1  H27B 9213   4.164   5.151   8.684  0.9191 -0.3349  1.6069
   91CHL1  H27C 9214   4.087   4.986   8.672  1.8965 -2.4856  0.0299
   92CHL1    C3 9215   6.742   5.281   6.776 -0.2239  0.4623 -0.2770
   92CHL1    H3 9216   6.816   5.357   6.809  0.7372 -0.9124  0.8761
   92CHL1    O3 9217   6.772   5.235   6.648 -0.2254  0.2690 -0.2552
   92CHL1   H3' 9218   6.696   5.261   6.596  0.8972  2.2316 -1.0283
   92CHL1    C4 9219   6.759   5.153   6.871 -0.7027 -0.4548 -0.5530
   92CHL1   H4A 9220   6.688   5.073   6.841  0.1749 -1.1527 -0.8449
   92CHL1   H4B 9221   6.865   5.117   6.865  0.2522  1.7861  1.5841
   92CHL1    C5 9222   6.725   5.197   7.007  0.3690  0.4818 -0.4903
   92CHL1    C6 9223   6.802   5.180   7.111  0.3051 -0.5090  0.1947
   92CHL1    H6 9224   6.901   5.134   7.097 -0.6995 -2.8494  0.3631
   92CHL1    C7 9225   6.761   5.213   7.250  0.6522 -0.0527 -0.7490
   92CHL1   H7A 9226   6.793   5.135   7.323  0.0679  2.5161  2.4820
   92CHL1   H7B 9227   6.807   5.307   7.285 -1.5271  1.2884 -1.2586
   92CHL1    C8 9228   6.605   5.228   7.274 -0.7094  0.2598 -0.1650
   92CHL1    H8 9229   6.561   5.126   7.264  1.0699 -0.6300  0.7060
   92CHL1   C14 9230   6.577   5.287   7.417  0.0320  0.3359  0.2377
   92CHL1   H14 9231   6.628   5.385   7.411  1.1060 -0.0909  1.6697
   92CHL1   C15 9232   6.636   5.224   7.539  0.3372  0.0549  0.1308
   92CHL1  H15A 9233   6.661   5.117   7.523 -0.4582 -0.0563 -0.4325
   92CHL1  H15B 9234   6.732   5.276   7.560  0.5643 -0.4289  0.2989
   92CHL1   C16 9235   6.526   5.249   7.645 -0.1874  0.1418 -0.1878
   92CHL1  H16A 9236   6.473   5.152   7.657 -2.8115  1.6318  1.2194
   92CHL1  H16B 9237   6.565   5.263   7.748 -1.6335  0.8203  0.2967
   92CHL1   C17 9238   6.428   5.352   7.589 -0.2547 -0.2758 -0.5592
   92CHL1   H17 9239   6.472   5.453   7.605 -0.8474 -0.0992 -0.0382
   92CHL1   C13 9240   6.431   5.312   7.444  0.2899 -0.6563  0.3068
   92CHL1   C18 9241   6.340   5.172   7.434 -0.0938 -0.2701 -0.0409
   92CHL1  H18A 9242   6.378   5.103   7.357  0.9034 -0.5128  0.6504
   92CHL1  H18B 9243   6.320   5.117   7.529  2.0629 -2.0039 -0.5194
   92CHL1  H18C 9244   6.239   5.206   7.402  0.1410  1.2932  0.7649
   92CHL1   C12 9245   6.390   5.415   7.331 -0.6967 -0.0684 -0.3291
   92CHL1  H12A 9246   6.281   5.433   7.342 -1.0284 -0.9259 -1.9632
   92CHL1  H12B 9247   6.446   5.509   7.351 -2.5503  1.0868 -0.3652
   92CHL1   C11 9248   6.420   5.379   7.183  0.6000 -0.5084  0.5688
   92CHL1  H11A 9249   6.342   5.304   7.161  0.6641 -0.4169  0.0040
   92CHL1  H11B 9250   6.402   5.472   7.124 -1.5196 -0.3516  1.3892
   92CHL1    C9 9251   6.563   5.324   7.166 -0.4200 -0.5522  0.1921
   92CHL1    H9 9252   6.636   5.406   7.183 -0.2323 -0.9825  1.6421
   92CHL1   C10 9253   6.585   5.267   7.023  0.0586 -0.4168 -0.3011
   92CHL1   C19 9254   6.460   5.167   6.998 -0.4316  0.4227 -0.5516
   92CHL1  H19A 9255   6.462   5.086   7.074  0.0363  1.0824  0.1597
   92CHL1  H19B 9256   6.363   5.222   6.992 -1.0866 -0.1519  2.8347
   92CHL1  H19C 9257   6.485   5.108   6.908 -2.0983 -0.9940 -0.1258
   92CHL1    C1 9258   6.568   5.383   6.927  0.3916  0.2547  0.4974
   92CHL1   H1A 9259   6.466   5.427   6.920  0.6827  0.8077 -0.5289
   92CHL1   H1B 9260   6.636   5.468   6.948  0.1335  0.2616  1.3549
   92CHL1    C2 9261   6.605   5.343   6.783  0.1386  0.4003  0.1212
   92CHL1   H2A 9262   6.604   5.432   6.717 -0.1671  1.2860  1.2842
   92CHL1   H2B 9263   6.526   5.271   6.753  0.8006  0.4763 -1.9786
   92CHL1   C20 9264   6.291   5.351   7.664 -0.0656 -0.2458  0.7189
   92CHL1   H20 9265   6.265   5.244   7.673  1.7994 -0.7976  0.0041
   92CHL1   C21 9266   6.184   5.436   7.598 -0.1017  0.5856  0.0960
   92CHL1  H21A 9267   6.203   5.546   7.600 -2.0107  0.9372  0.9863
   92CHL1  H21B 9268   6.089   5.420   7.653 -0.6720 -1.5282 -1.3734
   92CHL1  H21C 9269   6.173   5.396   7.495  6.2045  1.4871 -1.3234
   92CHL1   C22 9270   6.311   5.407   7.803  0.5449  0.8114  0.1236
   92CHL1  H22A 9271   6.406   5.368   7.845  0.3299 -0.3044 -0.3885
   92CHL1  H22B 9272   6.328   5.516   7.800 -3.5278  1.5930 -0.1332
   92CHL1   C23 9273   6.198   5.368   7.900  0.2153 -0.2086 -0.1962
   92CHL1  H23A 9274   6.102   5.410   7.862 -0.2375 -0.6495  0.4423
   92CHL1  H23B 9275   6.196   5.257   7.907 -1.2280 -0.1374  1.0296
   92CHL1   C24 9276   6.210   5.420   8.044 -0.3917  0.0694 -0.1021
   92CHL1  H24A 9277   6.314   5.429   8.080  0.4550 -2.1243 -1.7573
   92CHL1  H24B 9278   6.175   5.524   8.027  1.4196  0.7300  0.0077
   92CHL1   C25 9279   6.120   5.356   8.154 -0.6774  0.0956  0.1639
   92CHL1   H25 9280   6.117   5.425   8.241  4.5806 -1.4970  2.0423
   92CHL1   C26 9281   5.974   5.350   8.103 -0.3104 -0.0096  0.2845
   92CHL1  H26A 9282   5.910   5.311   8.186 -1.3730 -1.2832 -1.0705
   92CHL1  H26B 9283   5.926   5.444   8.069 -0.2582 -0.0175  0.1891
   92CHL1  H26C 9284   5.966   5.285   8.013  2.2561  1.7237 -1.3232
   92CHL1   C27 9285   6.173   5.220   8.199 -0.2969  0.6813 -0.6774
   92CHL1  H27A 9286   6.198   5.167   8.105  0.6879  1.4475 -0.8557
   92CHL1  H27B 9287   6.263   5.233   8.263 -1.9036 -0.5808  2.0558
   92CHL1  H27C 9288   6.102   5.163   8.264  2.2717  0.9278  2.6451
   93CHL1    C3 9289   6.818   3.275   6.640  0.4032  0.5891  0.3980
   93CHL1    H3 9290   6.924   3.256   6.667  0.2684 -0.1461  0.4365
   93CHL1    O3 9291   6.816   3.316   6.508  0.7237  0.7757 -0.2245
   93CHL1   H3' 9292   6.868   3.248   6.465  0.0873  0.7957 -1.0433
   93CHL1    C4 9293   6.737   3.152   6.658  0.1439  0.2711 -0.0997
   93CHL1   H4A 9294   6.630   3.163   6.630 -0.3009  0.1353  1.4871
   93CHL1   H4B 9295   6.768   3.064   6.597  0.1115 -0.4744  0.9244
   93CHL1    C5 9296   6.745   3.108   6.801 -0.4495  0.1150  1.8562
   93CHL1    C6 9297   6.802   2.993   6.834 -0.3197  0.0005  0.5375
   93CHL1    H6 9298   6.838   2.926   6.754 -3.0113 -2.1478  0.9765
   93CHL1    C7 9299   6.836   2.945   6.973 -1.3408  0.3077  0.4707
   93CHL1   H7A 9300   6.828   2.835   6.977 -1.7279  0.3686  2.2615
   93CHL1   H7B 9301   6.939   2.965   7.009  0.3907 -0.2847 -3.6443
   93CHL1    C8 9302   6.732   3.007   7.075  0.4476 -0.1852  0.3052
   93CHL1    H8 9303   6.629   2.971   7.055  0.5387  0.3786 -1.3467
   93CHL1   C14 9304   6.784   2.980   7.215  0.2624 -0.1235 -0.1824
   93CHL1   H14 9305   6.888   3.017   7.219  1.6849 -3.4949 -2.0378
   93CHL1   C15 9306   6.789   2.836   7.262  0.0710  0.2737 -0.1804
   93CHL1  H15A 9307   6.697   2.789   7.223 -1.4899  1.3056  2.0465
   93CHL1  H15B 9308   6.878   2.780   7.225 -1.4633 -1.0516 -2.0298
   93CHL1   C16 9309   6.807   2.843   7.421  0.4222  0.4062  0.3429
   93CHL1  H16A 9310   6.726   2.783   7.468  0.4473 -1.0090 -1.3282
   93CHL1  H16B 9311   6.900   2.793   7.456 -0.6139 -0.6029  1.7440
   93CHL1   C17 9312   6.793   2.998   7.448  0.5086 -0.4664  0.7099
   93CHL1   H17 9313   6.896   3.039   7.438 -0.3906  1.4889 -1.0992
   93CHL1   C13 9314   6.714   3.057   7.322 -0.2922  0.5643 -0.7360
   93CHL1   C18 9315   6.568   3.015   7.327  0.0748  0.3599  0.2903
   93CHL1  H18A 9316   6.555   2.911   7.363 -1.6202  0.9112  1.4285
   93CHL1  H18B 9317   6.511   3.083   7.394  0.8808 -0.7862  2.2076
   93CHL1  H18C 9318   6.527   3.018   7.224  0.4295  0.4598  0.1503
   93CHL1   C12 9319   6.736   3.204   7.302 -0.3895 -0.0494  0.1659
   93CHL1  H12A 9320   6.689   3.254   7.389  1.3033 -0.8327  1.5854
   93CHL1  H12B 9321   6.844   3.230   7.292 -0.4759  0.5384  0.6802
   93CHL1   C11 9322   6.685   3.256   7.165 -0.6065  0.5493  0.5950
   93CHL1  H11A 9323   6.577   3.235   7.179 -0.9810  2.8644  1.6759
   93CHL1  H11B 9324   6.702   3.364   7.146 -0.8869  1.1675  3.4347
   93CHL1    C9 9325   6.746   3.161   7.053 -0.0749 -0.2022  0.3181
   93CHL1    H9 9326   6.853   3.190   7.046 -0.5856  1.6435 -0.6271
   93CHL1   C10 9327   6.699   3.201   6.908  0.2357 -0.6550 -0.0950
   93CHL1   C19 9328   6.541   3.202   6.890  0.2064  0.0013  0.0082
   93CHL1  H19A 9329   6.506   3.097   6.893 -1.9141  0.6271 -0.6367
   93CHL1  H19B 9330   6.492   3.252   6.977  3.1368  1.5511  0.8932
   93CHL1  H19C 9331   6.506   3.256   6.799  0.2728 -0.1366 -0.0993
   93CHL1    C1 9332   6.761   3.342   6.880 -0.0723 -0.0709  0.3461
   93CHL1   H1A 9333   6.711   3.412   6.950 -0.1122  1.1522 -0.8466
   93CHL1   H1B 9334   6.861   3.351   6.926  0.0128  3.5439 -0.2491
   93CHL1    C2 9335   6.762   3.384   6.736  0.1575  0.2558  0.0371
   93CHL1   H2A 9336   6.819   3.479   6.726  1.5009 -0.6204 -0.9746
   93CHL1   H2B 9337   6.664   3.418   6.695 -0.2452 -0.4323  0.4162
   93CHL1   C20 9338   6.746   3.032   7.590  0.3832  0.3147 -0.4697
   93CHL1   H20 9339   6.708   3.136   7.584  1.2014  0.7222  0.8703
   93CHL1   C21 9340   6.871   3.041   7.685  0.2411 -0.5315 -0.3290
   93CHL1  H21A 9341   6.953   3.103   7.641  2.1086 -3.2545 -0.9475
   93CHL1  H21B 9342   6.922   2.943   7.695 -0.2123 -1.0251 -2.3696
   93CHL1  H21C 9343   6.839   3.080   7.784 -2.0493 -1.3412 -0.7013
   93CHL1   C22 9344   6.631   2.951   7.653  0.3081  0.3409  0.1718
   93CHL1  H22A 9345   6.555   2.942   7.573 -0.1358 -0.2846  0.6550
   93CHL1  H22B 9346   6.678   2.851   7.670  1.6521  0.0493 -4.1033
   93CHL1   C23 9347   6.562   3.012   7.777 -0.7141  0.0349 -0.4403
   93CHL1  H23A 9348   6.487   2.936   7.806  0.3171 -1.4042 -1.4142
   93CHL1  H23B 9349   6.637   3.029   7.858 -0.1834  1.7497 -1.2267
   93CHL1   C24 9350   6.486   3.144   7.754  0.0435  0.0581  0.7091
   93CHL1  H24A 9351   6.558   3.228   7.743  0.2189 -0.3746 -2.4933
   93CHL1  H24B 9352   6.411   3.133   7.673 -0.2281  1.6653  0.7157
   93CHL1   C25 9353   6.393   3.183   7.877  0.0630  0.5523 -0.1388
   93CHL1   H25 9354   6.444   3.170   7.975  0.7000 -2.2787 -0.7678
   93CHL1   C26 9355   6.355   3.330   7.860 -0.3827  0.7881 -1.0581
   93CHL1  H26A 9356   6.439   3.401   7.846  1.2072 -0.6828  0.6035
   93CHL1  H26B 9357   6.289   3.328   7.769 -2.8899 -1.1145  0.6521
   93CHL1  H26C 9358   6.305   3.363   7.954  1.1205 -1.3888  0.5912
   93CHL1   C27 9359   6.272   3.091   7.880 -0.0937  0.0178  0.4267
   93CHL1  H27A 9360   6.207   3.076   7.791 -0.9700  1.5173  0.7816
   93CHL1  H27B 9361   6.299   2.989   7.913  1.7320  0.5609  0.7213
   93CHL1  H27C 9362   6.216   3.131   7.967  0.8764  1.8914  0.2484
   94CHL1    C3 9363   0.241   5.979   6.852  0.1645 -0.2214  0.6228
   94CHL1    H3 9364   0.157   5.908   6.867 -0.3168  0.3857  0.8424
   94CHL1    O3 9365   0.238   6.031   6.721 -0.4748  0.1719  0.8868
   94CHL1   H3' 9366   0.160   6.084   6.703 -1.6593 -2.1021 -1.6137
   94CHL1    C4 9367   0.242   6.098   6.948  0.3610  0.1012 -0.6394
   94CHL1   H4A 9368   0.332   6.156   6.921  1.5672 -0.8878  1.0654
   94CHL1   H4B 9369   0.158   6.168   6.927  1.8397  3.3662  3.1237
   94CHL1    C5 9370   0.246   6.066   7.090 -0.2939 -0.0495  0.2838
   94CHL1    C6 9371   0.149   6.092   7.180  0.1838 -0.6374  0.1440
   94CHL1    H6 9372   0.052   6.121   7.138 -0.0692 -1.8367 -0.1480
   94CHL1    C7 9373   0.157   6.060   7.325  0.3332  0.6858 -0.2201
   94CHL1   H7A 9374   0.112   6.144   7.383  0.9883  1.7262 -1.1848
   94CHL1   H7B 9375   0.094   5.970   7.341  2.1371 -0.5158  0.5360
   94CHL1    C8 9376   0.299   6.019   7.362  0.7510 -0.5354 -0.0021
   94CHL1    H8 9377   0.356   6.114   7.347  1.0916 -0.4950  1.4203
   94CHL1   C14 9378   0.302   5.958   7.501  0.3316 -0.6910 -0.0938
   94CHL1   H14 9379   0.234   5.870   7.504 -0.6942  0.0566 -0.6957
   94CHL1   C15 9380   0.241   6.037   7.620 -0.1130  0.4908 -0.3603
   94CHL1  H15A 9381   0.282   6.140   7.623  0.9811  0.0608  0.4494
   94CHL1  H15B 9382   0.131   6.028   7.617 -0.1167 -1.6974  2.1635
   94CHL1   C16 9383   0.303   5.969   7.744  0.2382 -0.1628 -0.8084
   94CHL1  H16A 9384   0.365   6.033   7.810 -0.7061  0.8102 -0.8481
   94CHL1  H16B 9385   0.229   5.920   7.810 -0.6068  0.0621 -1.5675
   94CHL1   C17 9386   0.389   5.853   7.682 -0.1379 -0.6701 -0.0990
   94CHL1   H17 9387   0.333   5.762   7.654 -1.2404 -0.2287  0.6187
   94CHL1   C13 9388   0.436   5.905   7.551 -0.8902  0.0672 -0.3654
   94CHL1   C18 9389   0.531   6.017   7.569 -0.5506  0.0877 -0.1313
   94CHL1  H18A 9390   0.634   5.985   7.592 -0.1194 -0.0356 -2.0499
   94CHL1  H18B 9391   0.541   6.082   7.479  0.0951  0.3877  0.1534
   94CHL1  H18C 9392   0.496   6.082   7.652  1.0433 -1.6739  2.0270
   94CHL1   C12 9393   0.481   5.792   7.448 -0.4661  0.0032  0.2491
   94CHL1  H12A 9394   0.583   5.753   7.471 -1.1700 -0.8671  2.0561
   94CHL1  H12B 9395   0.401   5.715   7.455  0.8914 -1.6481 -1.4259
   94CHL1   C11 9396   0.488   5.845   7.307 -0.5659  0.0259  0.6506
   94CHL1  H11A 9397   0.567   5.924   7.309 -0.0731 -0.3501 -1.8879
   94CHL1  H11B 9398   0.514   5.760   7.241  1.2154  1.5537 -0.7209
   94CHL1    C9 9399   0.361   5.918   7.261  0.0554  0.2509 -0.0255
   94CHL1    H9 9400   0.283   5.840   7.254 -0.0753  0.5125 -2.5049
   94CHL1   C10 9401   0.371   5.985   7.119 -0.8977  0.7889 -0.0614
   94CHL1   C19 9402   0.496   6.080   7.109 -0.1064  0.3505 -0.3478
   94CHL1  H19A 9403   0.485   6.158   7.186 -2.3967  1.0765 -1.3191
   94CHL1  H19B 9404   0.580   6.007   7.106 -0.6722 -0.5594  2.8422
   94CHL1  H19C 9405   0.496   6.122   7.006  0.6338  0.7821 -0.1776
   94CHL1    C1 9406   0.394   5.864   7.016 -0.2517 -0.2033  0.6464
   94CHL1   H1A 9407   0.500   5.833   7.022  0.3263  1.0526 -1.6885
   94CHL1   H1B 9408   0.319   5.786   7.041 -2.1156  1.6126  1.0273
   94CHL1    C2 9409   0.373   5.899   6.871  0.0551  0.0774  0.7214
   94CHL1   H2A 9410   0.369   5.810   6.805 -3.6730  0.1274  0.6231
   94CHL1   H2B 9411   0.455   5.964   6.833 -0.3161 -0.1322 -0.4913
   94CHL1   C20 9412   0.500   5.808   7.784  0.3980 -0.0289 -0.3050
   94CHL1   H20 9413   0.547   5.904   7.816  0.2453  0.1477 -0.5980
   94CHL1   C21 9414   0.609   5.719   7.720  0.2023 -0.0899 -0.5214
   94CHL1  H21A 9415   0.569   5.627   7.673 -2.0216 -0.9283  2.6677
   94CHL1  H21B 9416   0.687   5.694   7.795  0.7299  3.1530  0.1456
   94CHL1  H21C 9417   0.662   5.776   7.641  1.8947 -1.8903 -0.7459
   94CHL1   C22 9418   0.448   5.735   7.909  0.0147 -0.1395  0.4640
   94CHL1  H22A 9419   0.366   5.799   7.951  2.4630  2.8863  0.9826
   94CHL1  H22B 9420   0.400   5.647   7.860 -1.8298  1.7120 -1.2753
   94CHL1   C23 9421   0.550   5.697   8.016  0.6445  0.7870  0.4846
   94CHL1  H23A 9422   0.615   5.613   7.985  0.4723  0.5791  0.6867
   94CHL1  H23B 9423   0.616   5.787   8.018 -0.1412  1.5236 -2.1338
   94CHL1   C24 9424   0.494   5.644   8.151  0.0285 -0.2693  0.0976
   94CHL1  H24A 9425   0.400   5.699   8.175 -0.2291  0.6013 -2.6031
   94CHL1  H24B 9426   0.466   5.537   8.141 -0.7708 -0.0194 -0.4590
   94CHL1   C25 9427   0.589   5.663   8.269  0.1024  0.1027  0.7436
   94CHL1   H25 9428   0.612   5.770   8.283  0.2801  0.2629 -0.6219
   94CHL1   C26 9429   0.508   5.641   8.398 -0.3666  0.2985  0.1400
   94CHL1  H26A 9430   0.489   5.532   8.411 -0.7788  0.4450  0.8035
   94CHL1  H26B 9431   0.562   5.679   8.488 -0.7072  1.2030 -0.0293
   94CHL1  H26C 9432   0.411   5.693   8.392 -2.0173 -2.7289 -3.1364
   94CHL1   C27 9433   0.724   5.595   8.267 -1.1377  0.1601 -0.3586
   94CHL1  H27A 9434   0.706   5.485   8.268  4.4939 -1.0439  0.0583
   94CHL1  H27B 9435   0.778   5.642   8.183  0.5831 -2.3024 -0.7308
   94CHL1  H27C 9436   0.791   5.617   8.353 -0.7314 -1.6075 -0.1807
   95CHL1    C3 9437   1.506   4.533   6.619 -0.8450 -0.4245 -0.5956
   95CHL1    H3 9438   1.617   4.537   6.613 -0.8623  1.3396 -0.3693
   95CHL1    O3 9439   1.458   4.500   6.490 -0.0685  0.1976 -0.3789
   95CHL1   H3' 9440   1.369   4.534   6.487 -0.2463 -0.3378 -1.3430
   95CHL1    C4 9441   1.464   4.424   6.712 -0.3435  0.1561  0.4068
   95CHL1   H4A 9442   1.358   4.398   6.691 -0.2649 -0.9521  1.2935
   95CHL1   H4B 9443   1.525   4.341   6.670  0.6223  1.7563 -1.5723
   95CHL1    C5 9444   1.484   4.462   6.856 -0.0917 -0.1188 -1.3394
   95CHL1    C6 9445   1.570   4.385   6.923 -0.3941 -0.2611 -0.1782
   95CHL1    H6 9446   1.602   4.292   6.874  0.3103 -0.3929  0.5130
   95CHL1    C7 9447   1.616   4.409   7.067 -0.4485  0.0943  0.5726
   95CHL1   H7A 9448   1.624   4.312   7.121  0.9158 -0.1013  0.0755
   95CHL1   H7B 9449   1.717   4.455   7.080  0.6068 -2.5763  2.8152
   95CHL1    C8 9450   1.521   4.509   7.141  0.4451  0.6835  0.3127
   95CHL1    H8 9451   1.426   4.452   7.154  1.3483 -0.8739  0.3242
   95CHL1   C14 9452   1.587   4.550   7.273  0.5140 -0.1803 -0.1093
   95CHL1   H14 9453   1.680   4.604   7.247 -0.0058 -0.3958 -2.7221
   95CHL1   C15 9454   1.652   4.446   7.372 -0.3685  0.0700  0.1604
   95CHL1  H15A 9455   1.586   4.358   7.387 -1.6078  0.6972 -1.2723
   95CHL1  H15B 9456   1.753   4.420   7.334 -0.8016  0.8033 -1.5998
   95CHL1   C16 9457   1.665   4.518   7.506 -0.1657 -0.2198 -0.2957
   95CHL1  H16A 9458   1.619   4.449   7.581 -0.4320 -0.3012 -0.5311
   95CHL1  H16B 9459   1.775   4.522   7.520 -0.1691  0.7538 -0.5064
   95CHL1   C17 9460   1.593   4.658   7.496  0.5835  0.0652 -0.0042
   95CHL1   H17 9461   1.673   4.733   7.476  1.1987 -0.4244  0.5650
   95CHL1   C13 9462   1.506   4.642   7.364  0.4250 -0.9183  0.2027
   95CHL1   C18 9463   1.368   4.577   7.401 -0.8482  0.5580  0.6945
   95CHL1  H18A 9464   1.393   4.486   7.458  2.1620  0.8634 -0.0074
   95CHL1  H18B 9465   1.307   4.648   7.462 -0.7348  1.0820  0.2103
   95CHL1  H18C 9466   1.315   4.535   7.313  2.5915 -2.4926 -0.1578
   95CHL1   C12 9467   1.475   4.773   7.281 -0.3338  0.0225 -0.5749
   95CHL1  H12A 9468   1.403   4.838   7.335  1.3428  0.2141  1.6102
   95CHL1  H12B 9469   1.568   4.833   7.270 -0.4338  0.3890  0.4704
   95CHL1   C11 9470   1.424   4.743   7.139  0.0633 -0.5064 -0.5721
   95CHL1  H11A 9471   1.318   4.710   7.151  0.0596 -0.7454 -1.2429
   95CHL1  H11B 9472   1.419   4.834   7.076  1.6263  0.4823  0.6552
   95CHL1    C9 9473   1.498   4.630   7.054  0.4547  0.4710 -0.2855
   95CHL1    H9 9474   1.598   4.676   7.037  0.8086  0.2031  0.9630
   95CHL1   C10 9475   1.432   4.597   6.909 -0.7224  1.4348 -0.5804
   95CHL1   C19 9476   1.281   4.606   6.918  0.1605 -0.6892  0.1758
   95CHL1  H19A 9477   1.242   4.528   6.987 -0.8478  1.2699  1.9298
   95CHL1  H19B 9478   1.239   4.704   6.950 -0.2173 -0.7923 -0.0012
   95CHL1  H19C 9479   1.234   4.597   6.818  1.6206  0.5553 -0.6592
   95CHL1    C1 9480   1.482   4.705   6.813  0.2136 -0.1514  0.0531
   95CHL1   H1A 9481   1.441   4.800   6.853  0.2701  0.0443 -0.3484
   95CHL1   H1B 9482   1.591   4.710   6.833  0.3082 -1.9206  0.1122
   95CHL1    C2 9483   1.457   4.676   6.664  0.2575 -0.1857  0.2279
   95CHL1   H2A 9484   1.517   4.748   6.604  1.3325 -1.9573 -0.9277
   95CHL1   H2B 9485   1.350   4.692   6.639 -0.2093  0.0031  2.2008
   95CHL1   C20 9486   1.528   4.710   7.622  0.2389 -0.2077  0.2337
   95CHL1   H20 9487   1.434   4.651   7.629  0.4927 -1.2283 -3.1287
   95CHL1   C21 9488   1.490   4.865   7.623  0.0399 -0.0535  0.5438
   95CHL1  H21A 9489   1.420   4.881   7.708 -1.4720  1.2636 -0.8806
   95CHL1  H21B 9490   1.421   4.886   7.539  0.0567  0.9093  0.7621
   95CHL1  H21C 9491   1.576   4.935   7.621 -0.3320  0.4009  0.2835
   95CHL1   C22 9492   1.601   4.683   7.744  0.0528 -0.0546 -0.4707
   95CHL1  H22A 9493   1.602   4.572   7.752 -0.4879 -0.1508 -1.6042
   95CHL1  H22B 9494   1.702   4.729   7.742 -0.1620  0.6315  1.6840
   95CHL1   C23 9495   1.518   4.719   7.873 -0.5313  0.5265  0.1063
   95CHL1  H23A 9496   1.527   4.829   7.884 -3.3956  0.9420 -0.8971
   95CHL1  H23B 9497   1.413   4.684   7.858  0.3599 -1.2518 -2.6897
   95CHL1   C24 9498   1.576   4.646   7.994 -0.2363  0.4271  0.3649
   95CHL1  H24A 9499   1.582   4.537   7.973  2.6617  0.2729  1.5275
   95CHL1  H24B 9500   1.679   4.687   8.006  0.3653 -0.3142 -1.7925
   95CHL1   C25 9501   1.500   4.667   8.128 -0.1744  0.3262 -0.2757
   95CHL1   H25 9502   1.542   4.594   8.201 -2.7785  0.1356  1.1954
   95CHL1   C26 9503   1.522   4.804   8.185 -0.1305  0.1428 -0.6398
   95CHL1  H26A 9504   1.630   4.817   8.207  0.2326 -3.1704  0.1274
   95CHL1  H26B 9505   1.498   4.882   8.110  0.9633  0.7221 -0.4162
   95CHL1  H26C 9506   1.459   4.825   8.274 -0.5751 -2.5385 -0.2365
   95CHL1   C27 9507   1.351   4.626   8.133  0.1768 -0.4877  0.4040
   95CHL1  H27A 9508   1.307   4.670   8.225  1.4188  0.7594  0.4400
   95CHL1  H27B 9509   1.293   4.663   8.045  1.2917 -2.9685 -1.5116
   95CHL1  H27C 9510   1.343   4.515   8.141  2.4655 -0.6350  1.4409
   96CHL1    C3 9511   0.563   4.231   6.704 -0.4036 -0.4926 -0.3797
   96CHL1    H3 9512   0.458   4.233   6.665 -0.2802  0.4624 -0.7136
   96CHL1    O3 9513   0.659   4.260   6.601  1.3778  0.6318 -0.6570
   96CHL1   H3' 9514   0.686   4.172   6.575 -1.3017 -0.6331  0.3869
   96CHL1    C4 9515   0.590   4.332   6.815 -0.4600 -0.2680  0.7506
   96CHL1   H4A 9516   0.698   4.328   6.838 -0.4354 -1.6810  0.5000
   96CHL1   H4B 9517   0.567   4.436   6.785 -1.1961 -0.3603  0.9848
   96CHL1    C5 9518   0.511   4.302   6.944 -0.4570  0.4737  0.7538
   96CHL1    C6 9519   0.437   4.403   7.001 -0.2840 -0.0210  0.4237
   96CHL1    H6 9520   0.437   4.499   6.947  2.5841  0.3642  0.9524
   96CHL1    C7 9521   0.358   4.385   7.129 -0.3460 -0.0535  0.1473
   96CHL1   H7A 9522   0.370   4.481   7.184  1.2404  1.7138 -3.0404
   96CHL1   H7B 9523   0.249   4.371   7.115 -0.7474 -1.1926  3.4201
   96CHL1    C8 9524   0.422   4.267   7.214  0.2492  0.4971  0.1222
   96CHL1    H8 9525   0.525   4.300   7.243  0.4564  1.0717 -1.1874
   96CHL1   C14 9526   0.347   4.239   7.344  0.1414 -0.0066 -0.7746
   96CHL1   H14 9527   0.241   4.213   7.321 -1.1219  3.7621  0.0438
   96CHL1   C15 9528   0.333   4.360   7.433  0.2334  0.5661  0.2834
   96CHL1  H15A 9529   0.435   4.400   7.448  1.6720 -2.5307 -0.4359
   96CHL1  H15B 9530   0.260   4.436   7.397 -1.6328 -0.2970  2.0201
   96CHL1   C16 9531   0.279   4.290   7.561 -0.5170 -0.4601 -0.0133
   96CHL1  H16A 9532   0.322   4.340   7.650 -2.2073 -0.4483  0.8369
   96CHL1  H16B 9533   0.169   4.300   7.566 -0.3472  1.1784  1.0077
   96CHL1   C17 9534   0.303   4.132   7.543  0.8517  0.2005  0.0853
   96CHL1   H17 9535   0.210   4.096   7.495 -0.2973  0.8819  1.6936
   96CHL1   C13 9536   0.401   4.120   7.423 -0.1436  0.6860 -0.2663
   96CHL1   C18 9537   0.542   4.122   7.476  0.1548 -0.7248  0.1442
   96CHL1  H18A 9538   0.593   4.027   7.504  1.5762  0.1745  0.7219
   96CHL1  H18B 9539   0.613   4.162   7.400  1.6946 -0.6468  1.5649
   96CHL1  H18C 9540   0.550   4.195   7.559 -0.1928 -0.8152  0.2564
   96CHL1   C12 9541   0.387   3.993   7.337 -0.7437 -0.4918  0.2385
   96CHL1  H12A 9542   0.414   3.906   7.399  1.0518  0.3846  0.7330
   96CHL1  H12B 9543   0.285   3.985   7.293  0.1201 -0.4440 -1.9320
   96CHL1   C11 9544   0.464   4.004   7.206 -1.0786  0.0705  0.5580
   96CHL1  H11A 9545   0.571   3.994   7.233 -0.4830  2.6906 -0.5062
   96CHL1  H11B 9546   0.440   3.914   7.146  1.4607 -0.3803  0.0905
   96CHL1    C9 9547   0.435   4.136   7.123 -0.0921  0.2383 -0.6140
   96CHL1    H9 9548   0.333   4.117   7.083  0.1497  0.1361 -1.1875
   96CHL1   C10 9549   0.529   4.157   7.004 -0.9304  0.7838  0.4239
   96CHL1   C19 9550   0.682   4.162   7.040 -0.2655  0.1682 -0.2055
   96CHL1  H19A 9551   0.698   4.244   7.112 -2.1238 -1.0022  1.6453
   96CHL1  H19B 9552   0.710   4.076   7.105 -3.0643 -0.2026  0.6235
   96CHL1  H19C 9553   0.746   4.166   6.949  1.6279 -1.1991  0.9797
   96CHL1    C1 9554   0.492   4.060   6.886 -0.3121 -0.7404  1.3916
   96CHL1   H1A 9555   0.499   3.952   6.910 -1.8751 -1.0713  0.5329
   96CHL1   H1B 9556   0.383   4.067   6.868 -0.4485  1.0180  2.7085
   96CHL1    C2 9557   0.572   4.081   6.755  0.1499 -0.7737  0.3566
   96CHL1   H2A 9558   0.537   4.019   6.670  0.1651  0.6129 -0.6947
   96CHL1   H2B 9559   0.680   4.066   6.775 -0.0498 -1.2044  1.1456
   96CHL1   C20 9560   0.318   4.055   7.680 -0.2129  0.2221 -0.2229
   96CHL1   H20 9561   0.417   4.078   7.723  0.0874 -4.7354  2.3180
   96CHL1   C21 9562   0.306   3.906   7.657 -0.6046 -0.0659  0.0191
   96CHL1  H21A 9563   0.291   3.849   7.751 -1.5788 -0.4712 -0.3634
   96CHL1  H21B 9564   0.399   3.872   7.606  0.6966  0.3435  2.0124
   96CHL1  H21C 9565   0.223   3.865   7.595 -1.0501 -2.0275  1.8101
   96CHL1   C22 9566   0.218   4.099   7.789 -0.2946  0.6276 -0.0206
   96CHL1  H22A 9567   0.176   4.198   7.760 -0.8618  0.4965  0.3384
   96CHL1  H22B 9568   0.134   4.030   7.813  0.1557  0.8642  2.6009
   96CHL1   C23 9569   0.301   4.111   7.922 -0.1991 -0.4746  0.3735
   96CHL1  H23A 9570   0.346   4.010   7.934  0.5765 -0.4965 -2.1291
   96CHL1  H23B 9571   0.385   4.183   7.907  0.1744 -1.2358 -1.5078
   96CHL1   C24 9572   0.231   4.148   8.046  0.3760 -0.5247 -0.1078
   96CHL1  H24A 9573   0.166   4.238   8.036  0.9287 -0.1732 -0.6003
   96CHL1  H24B 9574   0.164   4.069   8.086  0.4302 -0.2603  0.5086
   96CHL1   C25 9575   0.324   4.168   8.162  0.5688  0.4061 -0.5605
   96CHL1   H25 9576   0.400   4.088   8.147  1.0914  1.1458 -2.1209
   96CHL1   C26 9577   0.392   4.305   8.161 -0.2425  0.0086 -1.1500
   96CHL1  H26A 9578   0.480   4.284   8.225 -1.0041 -2.1966 -0.7273
   96CHL1  H26B 9579   0.430   4.344   8.064  2.9972  0.9677  0.3797
   96CHL1  H26C 9580   0.325   4.374   8.216 -0.7167 -1.8365  0.7224
   96CHL1   C27 9581   0.247   4.141   8.294  0.7452  0.1525 -0.1482
   96CHL1  H27A 9582   0.324   4.113   8.369 -0.2247 -2.2870  0.0397
   96CHL1  H27B 9583   0.195   4.230   8.334 -0.5479  0.6579 -2.7280
   96CHL1  H27C 9584   0.163   4.068   8.292 -0.6621  1.6968  0.7112
   97OSM      N 9585   0.162   6.167  11.294  0.3605 -0.4037  0.1030
   97OSM    C15 9586   0.174   6.314  11.286  0.9027 -0.6692  0.1939
   97OSM   H15A 9587   0.135   6.358  11.195  2.2087  0.0772 -0.0247
   97OSM   H15B 9588   0.278   6.343  11.284  1.9318 -3.9009 -0.5779
   97OSM   H15C 9589   0.132   6.369  11.369 -0.8911 -1.2899 -0.2420
   97OSM    C14 9590   0.184   6.119  11.431 -0.1024 -0.5062  0.1342
   97OSM   H14A 9591   0.159   6.015  11.437  0.2130 -0.8578 -2.8725
   97OSM   H14B 9592   0.126   6.180  11.499  1.1417  1.6084 -0.5989
   97OSM   H14C 9593   0.286   6.126  11.466 -0.7729  1.3653  1.9064
   97OSM    C13 9594   0.026   6.134  11.253 -0.4389  0.5496 -0.4794
   97OSM   H13A 9595  -0.038   6.170  11.333  1.3679  3.4095 -0.1970
   97OSM   H13B 9596   0.001   6.031  11.235 -0.7501  0.6168 -0.4461
   97OSM   H13C 9597  -0.000   6.183  11.160  1.1042 -0.2723 -1.3770
   97OSM    C12 9598   0.266   6.101  11.199 -0.3025  0.3415 -0.2799
   97OSM   H12A 9599   0.316   6.024  11.256 -0.2833  1.1453  0.8390
   97OSM   H12B 9600   0.342   6.176  11.184  0.3059 -0.1057  0.4973
   97OSM    C11 9601   0.218   6.070  11.056 -0.2476  0.1360  0.1661
   97OSM   H11A 9602   0.314   6.063  11.000 -0.7882 -2.2689 -0.5878
   97OSM   H11B 9603   0.169   6.149  10.995 -1.6807 -0.8495 -0.0090
   97OSM      P 9604   0.052   5.919  10.919  0.3818  0.1307 -0.0501
   97OSM    O13 9605   0.052   5.776  10.881 -0.1724  0.2327  0.0799
   97OSM    O14 9606  -0.081   5.981  10.942  0.0982 -0.1351  0.7731
   97OSM    O11 9607   0.135   6.004  10.820 -0.3061  0.6599 -0.4275
   97OSM    O12 9608   0.144   5.942  11.047 -0.6532 -0.0123  0.1850
   97OSM    C1S 9609   0.249   5.950  10.757 -1.0416  1.0817 -1.0913
   97OSM    H1S 9610   0.245   5.842  10.729  0.0446  1.3754 -2.5041
   97OSM    H1T 9611   0.341   5.973  10.814 -0.8917 -0.0221 -0.8725
   97OSM     NF 9612   0.329   5.926  10.515  0.4882  0.1112  0.5796
   97OSM    HNF 9613   0.427   5.939  10.504  0.6904  0.6053  2.6161
   97OSM    C2S 9614   0.268   6.015  10.614 -0.0257 -0.6734 -0.0224
   97OSM    H2S 9615   0.164   6.023  10.576 -0.9767 -1.6379  2.1718
   97OSM    C3S 9616   0.334   6.151  10.627 -0.1290 -0.7164  0.9582
   97OSM    H3S 9617   0.443   6.136  10.644  0.3211  0.2500 -0.8067
   97OSM     O3 9618   0.299   6.233  10.737  0.0802 -0.3735  0.0794
   97OSM    HO3 9619   0.232   6.177  10.778  0.3189 -0.9999 -0.3691
   97OSM    C4S 9620   0.307   6.223  10.498  0.2426  0.0900  0.0250
   97OSM    H4S 9621   0.205   6.263  10.492  0.3976  0.3515 -1.0442
   97OSM    C5S 9622   0.394   6.242  10.396 -0.5331  0.5043 -0.0535
   97OSM    H5S 9623   0.494   6.199  10.407  0.3356  2.7897  1.9290
   97OSM    C6S 9624   0.360   6.314  10.272 -0.4297 -0.0382  0.1845
   97OSM    H6S 9625   0.422   6.403  10.247 -1.3387  0.4944 -0.1960
   97OSM    H6T 9626   0.259   6.359  10.276  0.2856  1.7942 -1.0940
   97OSM    C7S 9627   0.348   6.211  10.159  0.1224  0.1990 -0.3073
   97OSM    H7S 9628   0.273   6.136  10.192  0.4686  0.3040  0.7531
   97OSM    H7T 9629   0.445   6.167  10.126 -0.6948  0.2123 -2.9813
   97OSM    C8S 9630   0.313   6.282  10.034  0.9588 -0.1921  1.0961
   97OSM    H8S 9631   0.389   6.357  10.004 -0.4808  1.0339  0.3484
   97OSM    H8T 9632   0.219   6.340  10.036 -0.6922 -2.6268 -0.1597
   97OSM    C9S 9633   0.278   6.179   9.916 -0.0749 -0.8596 -0.4518
   97OSM    H9S 9634   0.202   6.105   9.947 -0.4200  1.3217  4.9041
   97OSM    H9T 9635   0.369   6.118   9.892  1.3294  1.4332 -1.2755
   97OSM   C10S 9636   0.229   6.258   9.795  0.4024  0.0704 -0.4599
   97OSM   H10S 9637   0.306   6.331   9.763 -1.4798  1.6181 -1.7045
   97OSM   H10T 9638   0.141   6.318   9.824 -0.4941 -0.0556 -2.7336
   97OSM   C11S 9639   0.198   6.179   9.667  0.4149 -0.5043  0.1421
   97OSM   H11S 9640   0.129   6.094   9.685  1.5854 -1.7851 -1.1933
   97OSM   H11T 9641   0.282   6.123   9.622 -1.6059 -1.7906 -2.2868
   97OSM   C12S 9642   0.149   6.280   9.555  0.6186 -0.1679  0.8732
   97OSM   H12S 9643   0.220   6.365   9.542  2.0448 -1.1224  1.9814
   97OSM   H12T 9644   0.050   6.318   9.587  1.0248  2.5909 -0.8704
   97OSM   C13S 9645   0.136   6.204   9.426  0.9008 -0.0592 -0.0564
   97OSM   H13S 9646   0.061   6.125   9.445  0.4246  0.9247  2.7379
   97OSM   H13T 9647   0.235   6.156   9.415  1.3774  0.6547  0.9237
   97OSM   C14S 9648   0.086   6.293   9.310  0.4014  0.1337 -0.2116
   97OSM   H14S 9649   0.152   6.382   9.298 -1.7226  1.5646 -1.9979
   97OSM   H14T 9650  -0.015   6.330   9.339  0.0662 -1.3409  0.5761
   97OSM   C15S 9651   0.068   6.205   9.184  0.3645 -0.2977 -0.0781
   97OSM   H15S 9652   0.010   6.272   9.117 -1.5161  1.6704  3.2154
   97OSM   H15T 9653   0.017   6.112   9.218 -0.3086  0.8385  2.2439
   97OSM   C16S 9654   0.197   6.168   9.105 -0.8340 -0.0257 -0.0660
   97OSM   H16S 9655   0.239   6.077   9.154 -0.5285 -1.2301 -2.4110
   97OSM   H16T 9656   0.265   6.255   9.109 -0.8880 -0.0073  0.4126
   97OSM   C17S 9657   0.167   6.135   8.959 -0.0453 -0.3304  0.3299
   97OSM   H17S 9658   0.258   6.126   8.896 -0.6449  0.4030 -0.6677
   97OSM   H17T 9659   0.108   6.218   8.915  0.3060 -0.4450 -0.3704
   97OSM   C18S 9660   0.088   6.007   8.953  0.8283  0.1973  0.2826
   97OSM   H18S 9661  -0.010   6.022   9.003  0.1453  0.6980 -1.1422
   97OSM   H18T 9662   0.137   5.920   9.001 -0.6376 -0.3346  0.8787
   97OSM   H18U 9663   0.064   5.975   8.849  1.4139 -0.9166  0.4756
   97OSM    C1F 9664   0.262   5.830  10.451  0.3987 -0.4727  0.4208
   97OSM     OF 9665   0.138   5.817  10.451 -0.0447 -0.2247  0.5916
   97OSM    C2F 9666   0.348   5.725  10.379 -0.1572  0.3676  0.0460
   97OSM    H2F 9667   0.379   5.654  10.458 -0.4728 -1.1339 -1.1356
   97OSM    H2G 9668   0.441   5.774  10.344  0.2478 -0.0021  0.5770
   97OSM    C3F 9669   0.290   5.653  10.254  0.1587 -0.1010  0.2708
   97OSM    H3F 9670   0.188   5.621  10.284  0.3315 -0.5948  0.3455
   97OSM    H3G 9671   0.343   5.557  10.235  4.6533  2.1675  0.1332
   97OSM    C4F 9672   0.280   5.744  10.131 -0.2199 -1.2021 -0.2167
   97OSM    H4F 9673   0.382   5.779  10.105 -1.0385  1.3946 -0.1564
   97OSM    H4G 9674   0.211   5.826  10.161 -0.5710 -1.4951 -0.2171
   97OSM    C5F 9675   0.219   5.684  10.001  0.3493  0.4232  0.2186
   97OSM    H5F 9676   0.108   5.685   9.998  0.2933  0.0107 -4.5366
   97OSM    H5G 9677   0.257   5.579   9.994  0.9758  0.6789 -0.3434
   97OSM    C6F 9678   0.261   5.750   9.867  0.1385 -0.6549  0.1607
   97OSM    H6F 9679   0.364   5.790   9.880 -0.8958  1.8119  1.5306
   97OSM    H6G 9680   0.206   5.846   9.854  0.2708 -0.7336 -1.1604
   97OSM    C7F 9681   0.276   5.654   9.750  0.8608  0.4215  0.2010
   97OSM    H7F 9682   0.176   5.611   9.731  1.4269 -0.5402 -0.7056
   97OSM    H7G 9683   0.347   5.570   9.768  0.6131  0.2197  0.2341
   97OSM    C8F 9684   0.337   5.722   9.627  1.1345 -0.3693  0.1971
   97OSM    H8F 9685   0.379   5.634   9.574  1.2558 -0.5942  0.6601
   97OSM    H8G 9686   0.428   5.785   9.641  1.7313 -1.4147  1.2318
   97OSM    C9F 9687   0.239   5.800   9.539 -0.0850 -0.5846 -0.4380
   97OSM    H9F 9688   0.213   5.904   9.561  1.6840  0.7018 -3.7473
   97OSM   C10F 9689   0.188   5.750   9.428 -0.2426  0.0308 -0.1515
   97OSM   H10F 9690   0.134   5.811   9.354  0.7244  0.2098 -0.7236
   97OSM   C11F 9691   0.220   5.610   9.376 -0.0084  0.4184 -0.1382
   97OSM   H11F 9692   0.207   5.539   9.461 -0.1849  0.2059 -0.3411
   97OSM   H11G 9693   0.323   5.601   9.337  0.7811 -0.5356  2.0253
   97OSM   C12F 9694   0.118   5.556   9.271  0.3275 -0.1258  0.5158
   97OSM   H12F 9695   0.013   5.549   9.306  0.2013 -0.3278  0.1025
   97OSM   H12G 9696   0.155   5.454   9.248  1.1919  0.2726  0.0785
   97OSM   C13F 9697   0.116   5.634   9.141 -0.4504 -0.3857  0.1423
   97OSM   H13F 9698   0.214   5.626   9.090 -0.7236 -0.3623 -0.3966
   97OSM   H13G 9699   0.108   5.744   9.154  1.9280 -0.0451 -0.9050
   97OSM   C14F 9700   0.012   5.578   9.044  0.0858  0.0190  0.2985
   97OSM   H14F 9701  -0.079   5.558   9.105  0.2726 -1.2692  0.1912
   97OSM   H14G 9702   0.046   5.478   9.011 -1.4567  0.2639 -2.2962
   97OSM   C15F 9703  -0.013   5.649   8.913  0.3672 -0.3814  0.6042
   97OSM   H15F 9704   0.086   5.658   8.863  0.9393 -0.2629  1.7425
   97OSM   H15G 9705  -0.045   5.753   8.933  0.2621 -0.0746 -0.9916
   97OSM   C16F 9706  -0.116   5.601   8.813  0.6641 -0.1104  0.8706
   97OSM   H16F 9707  -0.221   5.602   8.848  0.4315 -0.1301  0.1939
   97OSM   H16G 9708  -0.097   5.494   8.788 -1.1989  0.1498 -2.0966
   97OSM   C17F 9709  -0.119   5.672   8.671  0.1284  0.4954  0.2858
   97OSM   H17F 9710  -0.169   5.770   8.689 -1.6138 -0.0799 -1.0865
   97OSM   H17G 9711  -0.187   5.610   8.609  1.1578 -1.3266  0.9033
   97OSM   C18F 9712   0.016   5.688   8.600 -0.6529  0.4672 -0.1535
   97OSM   H18F 9713   0.068   5.591   8.614 -1.1681  0.3801  1.3341
   97OSM   H18G 9714   0.067   5.773   8.649 -0.1191  0.3568 -0.5147
   97OSM   H18H 9715   0.027   5.717   8.493  1.4698  2.6132  0.5610
   98OSM      N 9716   6.492   5.700  10.797  0.0049 -0.3516  0.0277
   98OSM    C15 9717   6.413   5.717  10.926 -0.1766 -0.5270 -0.1740
   98OSM   H15A 9718   6.464   5.708  11.021 -0.0309 -0.7141 -0.2690
   98OSM   H15B 9719   6.331   5.646  10.920 -0.4263 -0.1729 -1.0359
   98OSM   H15C 9720   6.374   5.817  10.932  0.1519 -0.4418  0.6050
   98OSM    C14 9721   6.591   5.811  10.774  0.1449 -0.3429  0.9962
   98OSM   H14A 9722   6.551   5.910  10.761  2.1051  0.6378  1.9518
   98OSM   H14B 9723   6.652   5.783  10.689 -0.8174 -1.5416  0.6835
   98OSM   H14C 9724   6.659   5.815  10.858  2.5145  0.6763 -0.8343
   98OSM    C13 9725   6.570   5.577  10.804  0.4594 -0.1819  0.6189
   98OSM   H13A 9726   6.638   5.591  10.887  1.0734  3.6164 -0.3206
   98OSM   H13B 9727   6.625   5.547  10.716  0.6580 -1.7812  1.2510
   98OSM   H13C 9728   6.503   5.495  10.827 -2.4963  1.3300 -1.7234
   98OSM    C12 9729   6.395   5.710  10.682 -0.2020 -0.4828 -0.3297
   98OSM   H12A 9730   6.449   5.707  10.589  0.4962 -0.2320  0.0537
   98OSM   H12B 9731   6.336   5.800  10.677  1.3727  0.5405 -4.0318
   98OSM    C11 9732   6.289   5.603  10.671  0.0829 -0.6547 -0.3330
   98OSM   H11A 9733   6.327   5.498  10.672  1.9796 -0.0572 -1.7006
   98OSM   H11B 9734   6.247   5.615  10.569 -1.0922 -1.5011  0.0333
   98OSM      P 9735   6.077   5.740  10.767  0.0816  0.3359  0.0254
   98OSM    O13 9736   5.955   5.707  10.846 -0.0229 -0.1308  0.0867
   98OSM    O14 9737   6.144   5.870  10.792  0.4405  0.5521  0.0466
   98OSM    O11 9738   6.035   5.742  10.614 -0.4383  0.2666  0.0394
   98OSM    O12 9739   6.187   5.618  10.771  0.2059  0.4206  0.2900
   98OSM    C1S 9740   6.063   5.858  10.534 -1.3904 -0.2496 -0.0755
   98OSM    H1S 9741   6.170   5.886  10.550 -1.2360 -0.1265 -1.2662
   98OSM    H1T 9742   5.992   5.941  10.554  2.0625  2.5208  1.9319
   98OSM     NF 9743   6.099   5.930  10.305 -0.1714 -0.8324 -0.0839
   98OSM    HNF 9744   6.029   5.990  10.268 -1.0097 -1.3574  0.5927
   98OSM    C2S 9745   6.041   5.823  10.381 -0.3107  0.3167  0.1443
   98OSM    H2S 9746   6.097   5.727  10.367 -2.3575 -0.7323 -1.4863
   98OSM    C3S 9747   5.888   5.798  10.365  0.4606 -0.1986  0.5666
   98OSM    H3S 9748   5.824   5.883  10.396  0.1267 -0.7459  1.4109
   98OSM     O3 9749   5.837   5.693  10.441  0.1370  0.0877 -0.1754
   98OSM    HO3 9750   5.906   5.679  10.507  0.0069 -0.0845 -0.0749
   98OSM    C4S 9751   5.868   5.765  10.223  0.5848 -0.4426  0.2106
   98OSM    H4S 9752   5.927   5.679  10.188 -0.3388 -1.6979  1.6136
   98OSM    C5S 9753   5.784   5.836  10.145 -0.0504  0.1370  0.0614
   98OSM    H5S 9754   5.725   5.915  10.196  0.0572  0.8524 -0.8936
   98OSM    C6S 9755   5.758   5.814   9.996 -0.0392  0.0731  0.3304
   98OSM    H6S 9756   5.825   5.875   9.932 -1.7566  0.3715 -1.2881
   98OSM    H6T 9757   5.657   5.851   9.968 -0.6380 -1.9510 -0.4415
   98OSM    C7S 9758   5.787   5.679   9.946  0.1535 -0.5388  0.4440
   98OSM    H7S 9759   5.747   5.600  10.014 -1.3394 -0.4280 -0.2477
   98OSM    H7T 9760   5.894   5.669   9.919 -0.3888 -1.2264 -1.6166
   98OSM    C8S 9761   5.724   5.662   9.802 -0.5630 -0.6641 -0.0563
   98OSM    H8S 9762   5.628   5.717   9.814  0.3934  0.6671  1.9779
   98OSM    H8T 9763   5.708   5.553   9.788  2.2003 -1.1523  0.0302
   98OSM    C9S 9764   5.805   5.713   9.682 -0.6208 -0.3795 -0.4229
   98OSM    H9S 9765   5.897   5.652   9.667 -0.4493 -0.4438  0.7482
   98OSM    H9T 9766   5.831   5.820   9.697 -0.1991 -0.6342  0.7444
   98OSM   C10S 9767   5.716   5.703   9.557  0.3160  0.0565 -0.5281
   98OSM   H10S 9768   5.639   5.783   9.555 -1.0223 -1.1723 -3.0009
   98OSM   H10T 9769   5.664   5.605   9.560  0.7454 -0.1961 -1.1880
   98OSM   C11S 9770   5.789   5.730   9.424  0.1814 -0.6131  0.6701
   98OSM   H11S 9771   5.879   5.666   9.422 -0.6043 -1.7714  1.3332
   98OSM   H11T 9772   5.809   5.838   9.411 -1.7400 -0.3368 -0.4895
   98OSM   C12S 9773   5.697   5.709   9.298  0.2605 -0.4836 -0.1750
   98OSM   H12S 9774   5.591   5.733   9.318 -0.0577 -0.0194 -2.2492
   98OSM   H12T 9775   5.698   5.600   9.275  1.6661 -0.5391  0.0550
   98OSM   C13S 9776   5.752   5.777   9.179  0.3706  0.6304  0.0769
   98OSM   H13S 9777   5.861   5.762   9.163  0.2904 -0.0733  0.1718
   98OSM   H13T 9778   5.738   5.886   9.196  1.7866  0.5333  2.3369
   98OSM   C14S 9779   5.683   5.730   9.054 -0.0214  0.0113  0.5146
   98OSM   H14S 9780   5.716   5.627   9.028 -1.4836 -0.0805 -1.1382
   98OSM   H14T 9781   5.705   5.788   8.962 -0.4619 -2.2391 -1.0951
   98OSM   C15S 9782   5.531   5.735   9.066 -0.0111  0.1761  0.4945
   98OSM   H15S 9783   5.514   5.840   9.099  2.6683  1.5423 -1.9798
   98OSM   H15T 9784   5.485   5.675   9.147  1.0185 -0.5864  0.5288
   98OSM   C16S 9785   5.454   5.712   8.931 -0.4359  0.6410  0.0142
   98OSM   H16S 9786   5.502   5.786   8.862 -2.7255  1.1798 -1.0860
   98OSM   H16T 9787   5.350   5.745   8.950 -0.6133  0.7457 -1.0673
   98OSM   C17S 9788   5.440   5.569   8.880 -0.0944  0.1634 -0.2169
   98OSM   H17S 9789   5.377   5.521   8.958  0.6301 -1.7451 -0.7426
   98OSM   H17T 9790   5.540   5.520   8.883 -0.6706 -1.0114  0.6776
   98OSM   C18S 9791   5.371   5.553   8.743 -0.4473 -0.0347 -0.4345
   98OSM   H18S 9792   5.275   5.608   8.753 -0.5137  0.1407 -1.7572
   98OSM   H18T 9793   5.357   5.446   8.717 -0.9142  0.2800 -1.5497
   98OSM   H18U 9794   5.437   5.602   8.668  0.8195 -0.9152  0.0712
   98OSM    C1F 9795   6.230   5.963  10.288  0.3015  0.7463  0.5565
   98OSM     OF 9796   6.316   5.892  10.340  0.6793  0.2576 -0.0126
   98OSM    C2F 9797   6.264   6.072  10.187  0.1478 -0.0319 -0.3440
   98OSM    H2F 9798   6.342   6.127  10.243 -0.5402 -1.6103  2.3127
   98OSM    H2G 9799   6.168   6.127  10.173  0.6082  0.2484 -2.8694
   98OSM    C3F 9800   6.311   6.022  10.048  0.0153  0.5002 -0.2673
   98OSM    H3F 9801   6.409   5.972  10.059  0.7551  0.5365 -4.7690
   98OSM    H3G 9802   6.323   6.098   9.968  0.0386 -1.4183 -2.1474
   98OSM    C4F 9803   6.213   5.929   9.967 -0.0158 -0.0926  0.4207
   98OSM    H4F 9804   6.110   5.969   9.962  0.1169  0.1160 -1.5360
   98OSM    H4G 9805   6.205   5.826  10.009  1.4498 -0.5852 -0.4170
   98OSM    C5F 9806   6.252   5.919   9.817 -0.2501 -0.6200 -0.2500
   98OSM    H5F 9807   6.352   5.872   9.806  0.2952  0.2224  0.9331
   98OSM    H5G 9808   6.269   6.020   9.775  2.9821 -0.3504  1.3629
   98OSM    C6F 9809   6.155   5.833   9.746 -0.2356 -0.1541 -0.0123
   98OSM    H6F 9810   6.053   5.875   9.760  0.1235  0.8073 -0.2407
   98OSM    H6G 9811   6.146   5.735   9.797 -1.5084 -0.9770 -1.6972
   98OSM    C7F 9812   6.181   5.816   9.598  0.2538  0.1042  0.7020
   98OSM    H7F 9813   6.250   5.895   9.558  0.3682 -0.1460  0.4027
   98OSM    H7G 9814   6.089   5.831   9.538  1.6861  0.4951 -1.5083
   98OSM    C8F 9815   6.259   5.677   9.574 -0.3454  0.5317  0.3377
   98OSM    H8F 9816   6.331   5.660   9.657 -0.2911 -1.5859 -0.0655
   98OSM    H8G 9817   6.324   5.712   9.491  0.9125 -0.5890  0.8057
   98OSM    C9F 9818   6.201   5.545   9.536 -0.3962 -0.1282 -0.2116
   98OSM    H9F 9819   6.192   5.470   9.616 -1.7447 -1.0056 -1.1270
   98OSM   C10F 9820   6.155   5.519   9.415 -0.2407  0.1494  0.2892
   98OSM   H10F 9821   6.115   5.418   9.396  0.3608 -0.4887  2.1400
   98OSM   C11F 9822   6.154   5.608   9.294  0.4752 -0.4650  0.2516
   98OSM   H11F 9823   6.259   5.622   9.259 -0.2551  3.6001 -0.7924
   98OSM   H11G 9824   6.118   5.706   9.330  1.2139 -0.0830 -0.0300
   98OSM   C12F 9825   6.073   5.551   9.178  0.0945  0.1096 -0.0310
   98OSM   H12F 9826   5.963   5.560   9.196  0.1569 -0.8733  0.9358
   98OSM   H12G 9827   6.090   5.442   9.168 -0.9644 -0.0109 -0.6238
   98OSM   C13F 9828   6.104   5.616   9.042 -0.3369 -1.1835  1.0802
   98OSM   H13F 9829   6.209   5.585   9.028 -0.6535 -1.2899 -1.4141
   98OSM   H13G 9830   6.078   5.723   9.056 -0.0828 -0.6252 -2.1393
   98OSM   C14F 9831   6.036   5.545   8.924 -0.5162  0.4642 -0.8462
   98OSM   H14F 9832   5.929   5.545   8.955 -0.0388  3.3375  1.2640
   98OSM   H14G 9833   6.067   5.439   8.927 -2.3408 -0.1079  1.6114
   98OSM   C15F 9834   6.050   5.625   8.797 -0.5703  0.7367 -0.3229
   98OSM   H15F 9835   6.077   5.731   8.816  1.2132  0.2076  0.2594
   98OSM   H15G 9836   5.949   5.629   8.751 -0.7028  3.5164  0.0614
   98OSM   C16F 9837   6.158   5.569   8.702  0.8122 -0.0260  0.2700
   98OSM   H16F 9838   6.137   5.460   8.698  1.3704 -0.1345  0.1662
   98OSM   H16G 9839   6.253   5.572   8.758  1.4342  0.0476 -0.7542
   98OSM   C17F 9840   6.160   5.635   8.563 -0.0031  0.4874 -0.1733
   98OSM   H17F 9841   6.195   5.740   8.573  0.0306  0.3936  0.7845
   98OSM   H17G 9842   6.060   5.630   8.515 -0.1546 -1.5429  0.2574
   98OSM   C18F 9843   6.253   5.570   8.462 -0.6826  0.1384 -0.7548
   98OSM   H18F 9844   6.227   5.598   8.358 -0.8992 -0.1281 -0.7735
   98OSM   H18G 9845   6.259   5.462   8.485  0.0698  0.1356 -0.9401
   98OSM   H18H 9846   6.358   5.602   8.483 -0.7711 -0.2876  0.4399
   99OSM      N 9847   1.139   0.948  10.710  0.6526 -0.2651  0.5058
   99OSM    C15 9848   1.241   1.054  10.690  0.2135  0.0423 -0.4737
   99OSM   H15A 9849   1.240   1.133  10.764  1.0689  1.4271 -1.8768
   99OSM   H15B 9850   1.214   1.103  10.597 -0.8198 -1.1532 -0.8354
   99OSM   H15C 9851   1.338   1.008  10.693  0.3896  0.4570  1.0028
   99OSM    C14 9852   1.157   0.862  10.832  0.2218  0.9248 -0.4767
   99OSM   H14A 9853   1.170   0.910  10.928  2.7622 -0.2735 -0.1578
   99OSM   H14B 9854   1.249   0.806  10.827  0.2758  1.0837 -1.4250
   99OSM   H14C 9855   1.068   0.801  10.834 -0.2950  1.6636  1.1575
   99OSM    C13 9856   1.004   1.010  10.716  0.3836 -1.0560  0.4683
   99OSM   H13A 9857   0.922   0.940  10.720 -1.5350  1.0911  0.6140
   99OSM   H13B 9858   0.986   1.079  10.635  2.4642 -2.3024 -1.1854
   99OSM   H13C 9859   0.996   1.054  10.814  2.6133 -1.9817  1.1345
   99OSM    C12 9860   1.133   0.855  10.584  0.4358 -0.0496  0.5853
   99OSM   H12A 9861   1.091   0.913  10.503 -0.3229 -3.9387 -2.1247
   99OSM   H12B 9862   1.058   0.781  10.609  0.4598 -0.0373  0.6901
   99OSM    C11 9863   1.257   0.784  10.532  0.3616  0.0141  0.3369
   99OSM   H11A 9864   1.330   0.868  10.520 -1.7104  1.7327 -0.9320
   99OSM   H11B 9865   1.237   0.735  10.434 -0.2685  1.9438 -0.5510
   99OSM      P 9866   1.242   0.538  10.638 -0.0679 -0.2549  0.7270
   99OSM    O13 9867   1.274   0.502  10.780 -0.0345 -0.5420  0.1205
   99OSM    O14 9868   1.103   0.534  10.596 -0.2931  0.2770 -0.0989
   99OSM    O11 9869   1.324   0.448  10.540 -0.3042 -0.2307  0.8386
   99OSM    O12 9870   1.308   0.681  10.615 -0.2753  0.0934  0.4997
   99OSM    C1S 9871   1.460   0.456  10.502 -0.0863  0.8312  0.2136
   99OSM    H1S 9872   1.521   0.428  10.590  0.9059  1.0856 -0.3820
   99OSM    H1T 9873   1.497   0.556  10.470  2.0536  0.3204  0.9633
   99OSM     NF 9874   1.638   0.362  10.365  0.4719  0.2892  0.2138
   99OSM    HNF 9875   1.662   0.430  10.297 -0.9988  0.0776 -0.5515
   99OSM    C2S 9876   1.491   0.361  10.378 -0.3044 -0.0418 -1.2106
   99OSM    H2S 9877   1.477   0.255  10.405  0.1512  0.3844  0.8427
   99OSM    C3S 9878   1.405   0.406  10.259  0.5551 -0.3514  0.2885
   99OSM    H3S 9879   1.422   0.514  10.242  1.3892 -0.7677 -1.8852
   99OSM     O3 9880   1.268   0.384  10.291  0.4975  0.3738 -0.4916
   99OSM    HO3 9881   1.260   0.422  10.379 -0.5214  0.1037 -0.4614
   99OSM    C4S 9882   1.437   0.321  10.144 -0.3677 -0.0409  0.0991
   99OSM    H4S 9883   1.413   0.216  10.164 -1.2886  0.5138  2.1510
   99OSM    C5S 9884   1.499   0.355  10.033 -0.1713 -0.4090  0.2646
   99OSM    H5S 9885   1.549   0.452  10.024  4.0182 -2.1847  2.0645
   99OSM    C6S 9886   1.525   0.255   9.922 -0.3729 -0.3329 -0.3298
   99OSM    H6S 9887   1.438   0.249   9.853  1.2085 -1.7326 -2.3078
   99OSM    H6T 9888   1.566   0.163   9.968  1.7668  0.4207 -0.6363
   99OSM    C7S 9889   1.647   0.311   9.840  0.4612 -0.1533  1.1114
   99OSM    H7S 9890   1.743   0.317   9.894 -0.2194  0.9235  2.2375
   99OSM    H7T 9891   1.635   0.412   9.795  1.4612 -0.7865 -0.7047
   99OSM    C8S 9892   1.663   0.213   9.723  0.2352 -0.2983  0.7123
   99OSM    H8S 9893   1.636   0.108   9.745  3.0603 -1.5585 -1.1863
   99OSM    H8T 9894   1.770   0.204   9.693 -0.4984 -2.1901 -1.6887
   99OSM    C9S 9895   1.583   0.246   9.603  0.6318 -0.7532 -0.3624
   99OSM    H9S 9896   1.616   0.346   9.567 -1.6208 -0.3323 -1.4878
   99OSM    H9T 9897   1.475   0.255   9.627  0.8364 -0.4818  0.4748
   99OSM   C10S 9898   1.590   0.137   9.488  0.4177 -0.8321 -0.3150
   99OSM   H10S 9899   1.566   0.042   9.540  0.5921 -1.3894 -1.2552
   99OSM   H10T 9900   1.697   0.140   9.458  0.2276 -0.1557 -0.9455
   99OSM   C11S 9901   1.484   0.148   9.377  0.3863  0.3564  0.0616
   99OSM   H11S 9902   1.478   0.247   9.328  1.5159  0.5125  0.2187
   99OSM   H11T 9903   1.381   0.123   9.413  0.8348  0.1490  1.2679
   99OSM   C12S 9904   1.506   0.046   9.259 -0.1240  0.0165 -1.2275
   99OSM   H12S 9905   1.607   0.058   9.216 -0.2146  0.5699 -1.2879
   99OSM   H12T 9906   1.506  -0.060   9.293  1.7874  0.3703 -0.0122
   99OSM   C13S 9907   1.411   0.066   9.145  0.2994  0.6520  0.3440
   99OSM   H13S 9908   1.428   0.165   9.099 -1.6115  0.8476 -0.0504
   99OSM   H13T 9909   1.303   0.060   9.173  0.6136  1.2918  1.7628
   99OSM   C14S 9910   1.447  -0.044   9.037  0.2036  0.2161 -0.0930
   99OSM   H14S 9911   1.412  -0.144   9.069 -1.1923  0.2514 -1.3563
   99OSM   H14T 9912   1.556  -0.056   9.020  0.2459  1.4034 -0.7786
   99OSM   C15S 9913   1.390   0.000   8.900 -0.0417  0.1820  0.3916
   99OSM   H15S 9914   1.453   0.085   8.865  1.0226 -2.2610 -4.4571
   99OSM   H15T 9915   1.283   0.022   8.921 -0.3395 -0.6308 -0.2404
   99OSM   C16S 9916   1.418  -0.104   8.798 -0.1668  0.4570  0.8485
   99OSM   H16S 9917   1.374  -0.198   8.835  2.3111 -0.7396  0.9750
   99OSM   H16T 9918   1.523  -0.134   8.779 -0.9191 -1.3533 -0.7146
   99OSM   C17S 9919   1.335  -0.089   8.666  0.1905 -0.1848  0.2356
   99OSM   H17S 9920   1.354   0.018   8.646 -0.7921  0.3183  1.8265
   99OSM   H17T 9921   1.230  -0.109   8.696  1.0970 -2.1536  2.4698
   99OSM   C18S 9922   1.394  -0.170   8.551  0.0308  0.7788 -0.0366
   99OSM   H18S 9923   1.439  -0.259   8.598  1.7588  0.7048 -1.7079
   99OSM   H18T 9924   1.480  -0.113   8.510 -0.2827  1.8213  0.7269
   99OSM   H18U 9925   1.321  -0.187   8.469  0.3724 -1.4317  0.0714
   99OSM    C1F 9926   1.731   0.318  10.455  0.5898 -0.1152 -0.0624
   99OSM     OF 9927   1.684   0.254  10.549 -0.5075  0.1835 -0.3370
   99OSM    C2F 9928   1.873   0.348  10.437 -0.4145  0.1842 -0.3161
   99OSM    H2F 9929   1.929   0.301  10.520  0.8267  1.8296 -0.1649
   99OSM    H2G 9930   1.900   0.456  10.447  0.9888 -0.0785 -1.0202
   99OSM    C3F 9931   1.920   0.293  10.298  0.4864 -0.0250  0.1199
   99OSM    H3F 9932   1.864   0.339  10.214  0.7291 -0.3654 -0.2333
   99OSM    H3G 9933   2.027   0.319  10.279  0.7147 -1.4786 -0.7103
   99OSM    C4F 9934   1.902   0.141  10.286  0.5143 -0.3707 -0.6722
   99OSM    H4F 9935   1.791   0.132  10.295  0.4770  0.2894 -0.3356
   99OSM    H4G 9936   1.944   0.090  10.376  0.4683 -0.6668 -0.8187
   99OSM    C5F 9937   1.961   0.081  10.160  0.5548 -0.6002 -0.0033
   99OSM    H5F 9938   2.070   0.101  10.149  0.3260  1.4582  0.8928
   99OSM    H5G 9939   1.910   0.136  10.078 -2.7586 -0.9222  1.6845
   99OSM    C6F 9940   1.945  -0.071  10.149  0.3872 -0.0888 -0.3353
   99OSM    H6F 9941   1.837  -0.094  10.164 -0.2544  2.9585  0.5062
   99OSM    H6G 9942   2.011  -0.114  10.227  0.3829 -1.4343 -1.0611
   99OSM    C7F 9943   1.991  -0.107  10.013  0.0456  0.6325  0.1946
   99OSM    H7F 9944   2.092  -0.062   9.999 -0.4672  2.3094  1.5782
   99OSM    H7G 9945   1.938  -0.045   9.937  0.9446  0.4423 -0.6177
   99OSM    C8F 9946   1.990  -0.259   9.966  0.0536 -0.2348  0.6291
   99OSM    H8F 9947   2.061  -0.313  10.032  2.1671  1.7640  0.0997
   99OSM    H8G 9948   2.037  -0.268   9.866 -0.4925  1.7110  0.1469
   99OSM    C9F 9949   1.859  -0.331   9.971  0.4639 -0.2037  0.8473
   99OSM    H9F 9950   1.833  -0.360  10.074 -2.7882 -0.2505  0.1177
   99OSM   C10F 9951   1.775  -0.349   9.869  0.3838  0.0805  0.4291
   99OSM   H10F 9952   1.677  -0.396   9.886 -0.3182  0.9180 -1.0742
   99OSM   C11F 9953   1.785  -0.294   9.728 -0.3776  0.3491  0.3172
   99OSM   H11F 9954   1.816  -0.381   9.666 -0.3151  1.2632 -0.9667
   99OSM   H11G 9955   1.863  -0.218   9.704  0.4532 -0.9044 -1.1808
   99OSM   C12F 9956   1.650  -0.229   9.687 -0.4468  0.7090 -0.1556
   99OSM   H12F 9957   1.663  -0.148   9.612  0.9849  0.3170 -0.3537
   99OSM   H12G 9958   1.603  -0.166   9.766 -1.4432  1.6526 -1.4405
   99OSM   C13F 9959   1.537  -0.320   9.628  0.2241  0.1621  0.1359
   99OSM   H13F 9960   1.444  -0.260   9.621 -0.9911 -1.6813 -0.5858
   99OSM   H13G 9961   1.515  -0.411   9.688 -1.9883 -1.2817 -2.6280
   99OSM   C14F 9962   1.567  -0.351   9.481 -0.0056 -0.3976 -0.0726
   99OSM   H14F 9963   1.654  -0.420   9.485  0.1226 -0.2725 -0.7417
   99OSM   H14G 9964   1.591  -0.256   9.430  2.1743  0.1602  1.8339
   99OSM   C15F 9965   1.453  -0.412   9.405  0.5026 -0.0833  0.6894
   99OSM   H15F 9966   1.356  -0.358   9.403 -0.9516 -2.4392 -2.6833
   99OSM   H15G 9967   1.436  -0.511   9.453  0.5850 -0.5062 -0.1409
   99OSM   C16F 9968   1.485  -0.430   9.253  0.1958 -0.0948  0.2882
   99OSM   H16F 9969   1.581  -0.481   9.232  0.5328  0.8729 -0.5980
   99OSM   H16G 9970   1.493  -0.325   9.218  1.1695  1.0433  3.5782
   99OSM   C17F 9971   1.381  -0.522   9.190  0.1667  0.8297  0.0593
   99OSM   H17F 9972   1.283  -0.470   9.198 -0.3913  0.0757 -1.4361
   99OSM   H17G 9973   1.368  -0.617   9.247  0.9466  1.0415  0.6006
   99OSM   C18F 9974   1.409  -0.556   9.040  0.2452  0.4397 -0.7450
   99OSM   H18F 9975   1.320  -0.597   8.988  1.8391 -1.1855 -2.3259
   99OSM   H18G 9976   1.490  -0.631   9.028  1.5715  1.9164 -1.4344
   99OSM   H18H 9977   1.444  -0.464   8.989  2.9116 -1.0126 -1.7217
  100OSM      N 9978   2.945   0.250  10.663  0.1686 -0.3038  0.6148
  100OSM    C15 9979   3.045   0.248  10.554 -0.7061  0.1800  0.3370
  100OSM   H15A 9980   3.097   0.155  10.539  0.7896  1.1366 -0.6418
  100OSM   H15B 9981   3.108   0.335  10.546 -0.1664 -0.3152 -1.0266
  100OSM   H15C 9982   2.986   0.252  10.464  0.0553  1.4912 -0.1331
  100OSM    C14 9983   2.864   0.123  10.636 -0.0859  0.4065 -0.7605
  100OSM   H14A 9984   2.817   0.128  10.539  0.7899  1.1013 -1.1530
  100OSM   H14B 9985   2.789   0.114  10.714 -0.5384  0.3086 -1.2044
  100OSM   H14C 9986   2.928   0.036  10.630 -0.4870 -0.2270  2.1792
  100OSM    C13 9987   3.017   0.245  10.785 -0.1077  0.7114  0.0149
  100OSM   H13A 9988   3.085   0.329  10.785  0.2261  0.5062 -2.4974
  100OSM   H13B 9989   3.059   0.146  10.797  0.8502  1.2516  1.3938
  100OSM   H13C 9990   2.951   0.266  10.868 -0.3788  0.2872 -0.0873
  100OSM    C12 9991   2.857   0.377  10.664  0.3129  0.0878 -0.2677
  100OSM   H12A 9992   2.924   0.459  10.686  2.1550 -1.7554  1.2842
  100OSM   H12B 9993   2.774   0.373  10.733  0.4590 -0.9579 -0.1499
  100OSM    C11 9994   2.779   0.400  10.531 -0.1267  0.2418  0.3423
  100OSM   H11A 9995   2.831   0.380  10.435 -0.2780  2.9831 -0.3924
  100OSM   H11B 9996   2.756   0.509  10.533 -0.6593  0.1388 -0.0321
  100OSM      P 9997   2.530   0.367  10.607  0.4865 -0.2050 -0.0546
  100OSM    O13 9998   2.455   0.243  10.636 -0.6465  0.1195  0.5610
  100OSM    O14 9999   2.585   0.443  10.726 -0.7670 -0.1966  0.4882
  100OSM    O1110000   2.435   0.458  10.513 -0.0609  0.1034  0.0921
  100OSM    O1210001   2.654   0.320  10.523  0.9833 -0.7696  0.2867
  100OSM    C1S10002   2.464   0.457  10.370 -0.0062 -0.1606 -0.2762
  100OSM    H1S10003   2.456   0.355  10.327  1.9564  0.4356 -2.1887
  100OSM    H1T10004   2.566   0.488  10.341 -0.0517 -0.6547 -0.9635
  100OSM     NF10005   2.379   0.517  10.145 -0.0146  0.0770 -0.3476
  100OSM    HNF10006   2.439   0.581  10.097 -0.0637  0.1688 -0.2870
  100OSM    C2S10007   2.365   0.547  10.291  0.6068 -0.3037  0.2278
  100OSM    H2S10008   2.265   0.525  10.332  1.4750 -2.4011  1.3923
  100OSM    C3S10009   2.392   0.696  10.328 -0.3627 -0.5542 -0.5275
  100OSM    H3S10010   2.491   0.726  10.288 -0.8480  0.3072 -1.1112
  100OSM     O310011   2.397   0.727  10.466 -0.1015  0.5803  0.1178
  100OSM    HO310012   2.412   0.640  10.506 -1.8603  0.4273  0.5262
  100OSM    C4S10013   2.291   0.788  10.256  0.0519 -0.2099  1.1496
  100OSM    H4S10014   2.187   0.754  10.266 -0.9290  2.0251 -0.6925
  100OSM    C5S10015   2.318   0.903  10.188  0.1255  0.8503  0.3657
  100OSM    H5S10016   2.421   0.940  10.174  1.0625 -1.0212  1.7929
  100OSM    C6S10017   2.210   0.986  10.127  0.0697 -0.0289 -0.0787
  100OSM    H6S10018   2.202   1.091  10.162 -1.0681 -0.6421  1.6343
  100OSM    H6T10019   2.111   0.939  10.142  0.9550 -2.2433 -0.8224
  100OSM    C7S10020   2.242   0.996   9.980 -0.4018  0.0391  0.6691
  100OSM    H7S10021   2.243   0.895   9.935  3.1786  0.5190 -0.6421
  100OSM    H7T10022   2.349   1.026   9.976 -0.1361 -0.4119  3.1935
  100OSM    C8S10023   2.148   1.087   9.907  1.3068 -0.3834 -0.0676
  100OSM    H8S10024   2.126   1.182   9.962 -0.2932 -0.5836 -0.3194
  100OSM    H8T10025   2.054   1.029   9.911  0.2685  1.1848 -0.7239
  100OSM    C9S10026   2.189   1.126   9.768  0.3779 -0.2618 -0.0287
  100OSM    H9S10027   2.225   1.031   9.722  1.2380 -1.3263  2.6670
  100OSM    H9T10028   2.264   1.209   9.773 -1.5959  1.5794  0.6078
  100OSM   C10S10029   2.073   1.175   9.684 -0.7258 -0.3176  0.3824
  100OSM   H10S10030   2.032   1.267   9.730  2.1398 -0.7282  4.3093
  100OSM   H10T10031   1.989   1.102   9.681 -1.2153  0.2752 -0.7844
  100OSM   C11S10032   2.104   1.205   9.535  0.3296  0.8342 -0.1165
  100OSM   H11S10033   2.140   1.110   9.489  1.4114  0.9373  0.4983
  100OSM   H11T10034   2.182   1.284   9.530  1.6194 -0.3946 -0.2648
  100OSM   C12S10035   1.983   1.254   9.459 -0.1311 -0.1976  0.0267
  100OSM   H12S10036   1.958   1.357   9.491  0.5048 -0.0473  0.0489
  100OSM   H12T10037   1.895   1.200   9.502 -0.3626  0.7219  0.7586
  100OSM   C13S10038   1.983   1.244   9.307  0.0716  0.0979 -0.1796
  100OSM   H13S10039   2.075   1.296   9.274  0.0025 -1.0854 -2.3897
  100OSM   H13T10040   1.900   1.300   9.259 -0.9781 -2.6113 -1.7347
  100OSM   C14S10041   1.956   1.097   9.265  0.2090  0.2300 -0.6110
  100OSM   H14S10042   1.854   1.058   9.286  1.2231 -2.4651 -0.3332
  100OSM   H14T10043   2.030   1.030   9.314 -0.2526  1.5993  2.2024
  100OSM   C15S10044   1.964   1.084   9.118 -0.7647  0.4450  0.7392
  100OSM   H15S10045   2.070   1.084   9.082 -1.1561  1.7972 -0.4970
  100OSM   H15T10046   1.899   1.154   9.060  1.3392  0.7588 -1.4172
  100OSM   C16S10047   1.914   0.943   9.085  0.4203 -0.1579 -0.5937
  100OSM   H16S10048   1.807   0.956   9.114  0.7214  0.4797  0.2704
  100OSM   H16T10049   1.965   0.875   9.157  0.6986  0.4648 -0.1906
  100OSM   C17S10050   1.923   0.906   8.941 -0.9909  0.4699 -0.9807
  100OSM   H17S10051   2.026   0.926   8.905 -0.6557 -1.0946 -0.9929
  100OSM   H17T10052   1.859   0.967   8.874 -0.3847  1.8649 -0.3301
  100OSM   C18S10053   1.900   0.757   8.907  0.0228  0.1539 -0.3149
  100OSM   H18S10054   1.941   0.693   8.988 -0.4770  0.5457  0.2622
  100OSM   H18T10055   1.957   0.741   8.813  0.0632  2.5488 -0.7783
  100OSM   H18U10056   1.792   0.731   8.899  0.0561  0.0286 -0.3535
  100OSM    C1F10057   2.324   0.417  10.087 -0.0802 -0.1520  0.1011
  100OSM     OF10058   2.242   0.355  10.155  0.6635  0.2550  0.3826
  100OSM    C2F10059   2.345   0.394   9.935 -0.3111 -0.9925 -0.1954
  100OSM    H2F10060   2.366   0.286   9.919 -0.4758 -0.5750 -4.1338
  100OSM    H2G10061   2.436   0.452   9.910 -0.5256  0.8818  2.8345
  100OSM    C3F10062   2.218   0.423   9.847 -0.1776 -0.4157 -0.2462
  100OSM    H3F10063   2.186   0.527   9.864  0.3346 -0.6072  2.2223
  100OSM    H3G10064   2.135   0.366   9.894  0.3975  0.4947  2.0310
  100OSM    C4F10065   2.236   0.392   9.701  0.2585  0.2564  0.0214
  100OSM    H4F10066   2.336   0.429   9.668  0.0192  0.0869 -0.8950
  100OSM    H4G10067   2.165   0.461   9.652 -0.9483 -0.3550  0.8564
  100OSM    C5F10068   2.209   0.251   9.659 -0.4629  0.5026 -0.3175
  100OSM    H5F10069   2.283   0.190   9.715 -2.3327  0.5640  2.4617
  100OSM    H5G10070   2.246   0.245   9.555  1.2405 -0.4627  0.3058
  100OSM    C6F10071   2.066   0.193   9.679  0.1743  0.1468  0.0161
  100OSM    H6F10072   2.012   0.269   9.618  3.2982  2.6275  0.0833
  100OSM    H6G10073   2.028   0.209   9.782  0.5503 -3.0363  0.7478
  100OSM    C7F10074   2.059   0.044   9.650 -1.0534 -0.9829 -0.0311
  100OSM    H7F10075   1.958  -0.000   9.642 -0.1415 -2.9157 -1.6286
  100OSM    H7G10076   2.113  -0.005   9.734  0.3104  0.4030 -0.0359
  100OSM    C8F10077   2.126  -0.012   9.523  0.5613 -0.0680  0.3062
  100OSM    H8F10078   2.233   0.016   9.526  1.2604 -2.1887 -1.8445
  100OSM    H8G10079   2.087   0.047   9.436 -1.9604  1.7427  2.4968
  100OSM    C9F10080   2.115  -0.160   9.502  0.7917  0.6273  0.1623
  100OSM    H9F10081   2.212  -0.206   9.526  1.6171  2.2876  0.1999
  100OSM   C10F10082   2.020  -0.229   9.449 -0.8765  0.0392 -0.0482
  100OSM   H10F10083   2.033  -0.338   9.449 -1.7629 -0.0711 -0.2918
  100OSM   C11F10084   1.886  -0.183   9.401  0.2273 -0.7052 -0.3074
  100OSM   H11F10085   1.852  -0.102   9.469 -0.5908  0.2818 -1.8469
  100OSM   H11G10086   1.813  -0.266   9.405 -1.2941  0.6389  1.0740
  100OSM   C12F10087   1.866  -0.141   9.254 -0.5049 -0.0705  0.5341
  100OSM   H12F10088   1.948  -0.072   9.226 -0.7102 -0.7603 -2.0078
  100OSM   H12G10089   1.771  -0.088   9.231 -0.8425 -0.7036  0.4483
  100OSM   C13F10090   1.865  -0.264   9.162 -0.3100 -0.2914  0.6306
  100OSM   H13F10091   1.775  -0.324   9.190 -1.0231 -0.2412 -1.4295
  100OSM   H13G10092   1.959  -0.319   9.186 -0.1993 -0.6966 -0.6672
  100OSM   C14F10093   1.866  -0.231   9.015 -0.2075  0.4413 -0.5841
  100OSM   H14F10094   1.950  -0.162   8.992  0.7471 -0.3628  0.4082
  100OSM   H14G10095   1.774  -0.172   8.995  0.8123  2.3422 -0.0127
  100OSM   C15F10096   1.869  -0.351   8.916  0.1301 -0.3099  0.1707
  100OSM   H15F10097   1.953  -0.417   8.946 -0.2445 -0.2147  1.4603
  100OSM   H15G10098   1.883  -0.306   8.815  0.4963 -1.4778 -0.3174
  100OSM   C16F10099   1.742  -0.429   8.898  0.0218 -0.1142 -0.1991
  100OSM   H16F10100   1.653  -0.364   8.883  0.4643  0.6500  0.4567
  100OSM   H16G10101   1.736  -0.484   8.995  0.5862 -1.4844 -0.9029
  100OSM   C17F10102   1.756  -0.539   8.794 -0.1447  0.0698 -0.9666
  100OSM   H17F10103   1.675  -0.614   8.809  0.4062 -0.4722 -0.7080
  100OSM   H17G10104   1.851  -0.592   8.816 -0.1096  0.4530 -0.1228
  100OSM   C18F10105   1.749  -0.499   8.647 -0.2678  0.0182 -0.0555
  100OSM   H18F10106   1.739  -0.587   8.580  1.3286 -0.8214  0.7431
  100OSM   H18G10107   1.843  -0.448   8.618 -0.1145  0.1775  0.6919
  100OSM   H18H10108   1.662  -0.429   8.648  0.3997  0.8852 -0.7267
  101OSM      N10109   0.452   0.459  11.050 -0.0192 -0.5216  0.2740
  101OSM    C1510110   0.359   0.519  10.954 -0.7254  0.0495 -0.0739
  101OSM   H15A10111   0.410   0.602  10.909  2.4691 -1.1608  1.0119
  101OSM   H15B10112   0.261   0.534  10.999 -0.0753 -0.3051  1.5204
  101OSM   H15C10113   0.333   0.446  10.878  1.7050 -0.8683 -0.1208
  101OSM    C1410114   0.483   0.549  11.167 -0.5313  0.4857 -0.2120
  101OSM   H14A10115   0.547   0.504  11.241  1.7493  2.2541 -0.9934
  101OSM   H14B10116   0.395   0.565  11.227  0.6545  0.0901  1.6810
  101OSM   H14C10117   0.521   0.647  11.143 -1.4142  0.8602 -0.1145
  101OSM    C1310118   0.399   0.329  11.095 -0.4815  0.6206 -0.4967
  101OSM   H13A10119   0.392   0.275  11.002  0.0898 -0.6176  0.1522
  101OSM   H13B10120   0.306   0.353  11.145 -0.6042  1.9446 -1.3116
  101OSM   H13C10121   0.464   0.278  11.165 -1.1692 -0.8323 -0.8894
  101OSM    C1210122   0.580   0.444  10.974 -0.1555 -0.5012  0.0950
  101OSM   H12A10123   0.648   0.383  11.032  0.3142 -0.4258 -0.3668
  101OSM   H12B10124   0.626   0.542  10.973  2.0722 -1.4458  1.7786
  101OSM    C1110125   0.577   0.382  10.834 -0.1484 -0.0338 -0.4007
  101OSM   H11A10126   0.683   0.378  10.800  0.7231  0.2532  2.0296
  101OSM   H11B10127   0.523   0.447  10.762 -3.1882 -0.3639  1.4152
  101OSM      P10128   0.588   0.119  10.815 -0.1034  0.2916 -0.3283
  101OSM    O1310129   0.731   0.133  10.844 -0.3453 -0.8773 -0.1018
  101OSM    O1410130   0.523   0.029  10.914 -0.2689  0.5477 -1.1573
  101OSM    O1110131   0.549   0.068  10.670 -0.2182  0.2147  0.0760
  101OSM    O1210132   0.516   0.255  10.831  0.4164  0.2437  0.1679
  101OSM    C1S10133   0.579   0.138  10.556 -0.4695 -0.3307 -0.5158
  101OSM    H1S10134   0.689   0.146  10.543 -0.5101  4.4956  0.3214
  101OSM    H1T10135   0.547   0.244  10.564  0.1646 -0.1223 -0.6961
  101OSM     NF10136   0.553   0.148  10.311 -0.5575  0.9541  0.4207
  101OSM    HNF10137   0.493   0.219  10.275 -1.4951  0.1064  0.2930
  101OSM    C2S10138   0.511   0.078  10.429 -0.1573 -0.2015  0.2238
  101OSM    H2S10139   0.555  -0.023  10.417  1.3724  0.5232 -0.5437
  101OSM    C3S10140   0.356   0.075  10.441  0.3023 -0.0811 -0.4023
  101OSM    H3S10141   0.322   0.180  10.449  1.2833  0.2329 -0.2088
  101OSM     O310142   0.305   0.005  10.554  0.0733  0.3322  0.1579
  101OSM    HO310143   0.376   0.020  10.617  1.5298 -1.0115 -1.0929
  101OSM    C4S10144   0.298   0.020  10.318  0.5328 -0.4643 -0.0955
  101OSM    H4S10145   0.273   0.097  10.243 -0.3894 -2.2814 -1.7730
  101OSM    C5S10146   0.289  -0.111  10.277  0.3089  0.0588 -0.3841
  101OSM    H5S10147   0.328  -0.191  10.340 -0.3924 -0.4125 -0.5306
  101OSM    C6S10148   0.234  -0.136  10.133  0.2150 -0.2273  0.1813
  101OSM    H6S10149   0.192  -0.043  10.090  3.8836  1.0719 -0.8832
  101OSM    H6T10150   0.160  -0.219  10.134 -0.9382  0.7703  1.3578
  101OSM    C7S10151   0.344  -0.176  10.033 -0.5927 -0.0298  0.3209
  101OSM    H7S10152   0.398  -0.261  10.081  2.4963  0.1991 -2.4480
  101OSM    H7T10153   0.422  -0.101  10.012  1.3004 -1.7735  0.7855
  101OSM    C8S10154   0.287  -0.217   9.897  0.6305 -0.1743  0.1930
  101OSM    H8S10155   0.205  -0.291   9.900  0.2489  0.2298 -0.0736
  101OSM    H8T10156   0.375  -0.272   9.858  1.3193  1.0818 -0.1051
  101OSM    C9S10157   0.271  -0.100   9.792 -0.5532  0.4916 -0.3741
  101OSM    H9S10158   0.368  -0.047   9.790  1.1659 -2.4736 -2.7903
  101OSM    H9T10159   0.188  -0.041   9.837  0.1306 -0.2682  2.0760
  101OSM   C10S10160   0.235  -0.155   9.657  0.3889  0.1992 -0.1443
  101OSM   H10S10161   0.286  -0.251   9.636 -1.2337 -0.5442 -0.9170
  101OSM   H10T10162   0.272  -0.083   9.580  1.3643  0.6776  0.7567
  101OSM   C11S10163   0.080  -0.183   9.637 -0.4085 -0.1172  0.2638
  101OSM   H11S10164   0.015  -0.108   9.687 -0.0566 -0.4740  1.2780
  101OSM   H11T10165   0.063  -0.285   9.678 -2.2375 -1.3164 -3.0994
  101OSM   C12S10166   0.034  -0.191   9.492  0.6238 -0.3413  0.2668
  101OSM   H12S10167  -0.046  -0.116   9.480  0.5720 -0.4363 -0.0102
  101OSM   H12T10168  -0.028  -0.283   9.486  0.1342 -0.1148  1.6982
  101OSM   C13S10169   0.135  -0.185   9.383 -0.6082  0.5235  0.0110
  101OSM   H13S10170   0.188  -0.282   9.392 -1.3702 -0.0038 -1.0412
  101OSM   H13T10171   0.205  -0.099   9.395 -2.0727  1.7918 -0.2260
  101OSM   C14S10172   0.058  -0.179   9.249  0.6399  0.4065  0.6140
  101OSM   H14S10173   0.003  -0.085   9.229  2.3179  1.3092  0.1186
  101OSM   H14T10174  -0.025  -0.254   9.248  0.0189  1.0751 -0.1531
  101OSM   C15S10175   0.148  -0.216   9.127 -0.6719  0.2522 -0.1949
  101OSM   H15S10176   0.223  -0.296   9.144  2.1356  2.6455 -0.6292
  101OSM   H15T10177   0.208  -0.131   9.087  0.2176 -0.1006  0.3606
  101OSM   C16S10178   0.065  -0.271   9.012  0.9570 -0.1746 -0.0703
  101OSM   H16S10179  -0.010  -0.195   8.985 -0.1946 -0.5175  1.9762
  101OSM   H16T10180   0.010  -0.360   9.050 -1.1543  0.5883 -1.2370
  101OSM   C17S10181   0.152  -0.315   8.897  0.2682  0.3531 -0.6322
  101OSM   H17S10182   0.238  -0.376   8.931  0.5470  1.9665  1.8452
  101OSM   H17T10183   0.203  -0.224   8.857  0.4455  0.1113 -0.9634
  101OSM   C18S10184   0.075  -0.374   8.778  1.1368  0.2217 -0.1467
  101OSM   H18S10185   0.150  -0.385   8.696  0.1835  1.7307 -1.2650
  101OSM   H18T10186  -0.008  -0.308   8.746 -1.3578 -2.5566  0.1587
  101OSM   H18U10187   0.029  -0.474   8.793  1.1503 -0.1295 -2.1285
  101OSM    C1F10188   0.668   0.127  10.250 -0.1270 -0.3231 -0.2276
  101OSM     OF10189   0.748   0.050  10.298 -0.3082 -0.5242 -0.2213
  101OSM    C2F10190   0.687   0.215  10.131  0.0317  0.7173 -0.0603
  101OSM    H2F10191   0.711   0.317  10.169  1.3810 -0.0507  1.2551
  101OSM    H2G10192   0.593   0.214  10.071 -0.9146  1.0053  1.3642
  101OSM    C3F10193   0.806   0.152  10.045  0.5287  0.3024  0.5818
  101OSM    H3F10194   0.779   0.045  10.031 -0.5391  0.3529  1.9316
  101OSM    H3G10195   0.905   0.171  10.091 -0.6386  5.3438  1.6808
  101OSM    C4F10196   0.820   0.206   9.902  0.0602 -0.0892 -0.4382
  101OSM    H4F10197   0.923   0.185   9.865 -0.1933 -0.6370 -0.8387
  101OSM    H4G10198   0.822   0.317   9.913  1.3290  0.0160 -1.3943
  101OSM    C5F10199   0.729   0.161   9.795  0.2122  0.5613 -0.5333
  101OSM    H5F10200   0.631   0.214   9.790 -0.6012 -0.9132 -1.2749
  101OSM    H5G10201   0.696   0.059   9.826  1.1804  0.2984 -0.3517
  101OSM    C6F10202   0.790   0.131   9.657  0.4685  0.2095 -0.2449
  101OSM    H6F10203   0.841   0.223   9.621 -0.6993  1.4885  1.2395
  101OSM    H6G10204   0.867   0.053   9.670  2.2164  1.9565  0.3714
  101OSM    C7F10205   0.680   0.089   9.553 -0.0193  0.2040 -0.7296
  101OSM    H7F10206   0.590   0.145   9.585  0.9396  1.6228 -0.4074
  101OSM    H7G10207   0.657  -0.020   9.557  0.0904  0.1928 -0.3805
  101OSM    C8F10208   0.724   0.137   9.410 -0.2821 -0.1288  0.4416
  101OSM    H8F10209   0.812   0.072   9.387 -2.1094 -1.7647 -2.5198
  101OSM    H8G10210   0.748   0.245   9.416 -1.3517  0.1796 -0.5676
  101OSM    C9F10211   0.616   0.103   9.311 -0.2247 -0.8284  0.1627
  101OSM    H9F10212   0.614  -0.005   9.290 -2.9747 -0.6382 -0.8526
  101OSM   C10F10213   0.523   0.186   9.254 -0.6337  0.7475 -0.8238
  101OSM   H10F10214   0.460   0.136   9.179  1.5962 -0.9517 -1.6519
  101OSM   C11F10215   0.506   0.329   9.282 -0.1434  0.3400 -0.5489
  101OSM   H11F10216   0.597   0.384   9.314 -1.4093  0.2683  3.9006
  101OSM   H11G10217   0.439   0.349   9.369  0.9916 -0.4039  0.5327
  101OSM   C12F10218   0.454   0.396   9.152  0.7157 -0.2961  0.4010
  101OSM   H12F10219   0.527   0.380   9.070  0.6130 -0.4121  0.3311
  101OSM   H12G10220   0.455   0.504   9.175 -1.2716  0.2871 -1.8266
  101OSM   C13F10221   0.315   0.352   9.108  0.5729 -0.7447  0.5150
  101OSM   H13F10222   0.240   0.370   9.187  1.3036  1.2550  0.7995
  101OSM   H13G10223   0.303   0.243   9.090  0.0319 -0.3841 -1.7151
  101OSM   C14F10224   0.268   0.408   8.971  0.4691 -0.1978  0.0298
  101OSM   H14F10225   0.339   0.393   8.886  0.2978  1.2389 -0.3979
  101OSM   H14G10226   0.263   0.518   8.984  1.9019 -0.0843 -0.1676
  101OSM   C15F10227   0.122   0.354   8.941  0.2616  0.5436 -0.5530
  101OSM   H15F10228   0.117   0.244   8.930 -0.0831  0.5008 -0.0087
  101OSM   H15G10229   0.096   0.388   8.838  1.0244 -0.6020 -1.1531
  101OSM   C16F10230   0.006   0.420   9.024  0.0426 -0.7688  0.9046
  101OSM   H16F10231   0.050   0.430   9.125  1.9637 -3.1943  0.3915
  101OSM   H16G10232  -0.073   0.341   9.021  0.5581 -1.3161 -2.8231
  101OSM   C17F10233  -0.050   0.561   8.991  0.1493  0.6814  0.2778
  101OSM   H17F10234   0.039   0.628   8.983  0.0930  1.1539  2.8595
  101OSM   H17G10235  -0.114   0.605   9.070 -1.6588  0.3033 -0.9103
  101OSM   C18F10236  -0.133   0.577   8.853 -0.2416 -0.5690  0.3536
  101OSM   H18F10237  -0.069   0.531   8.775 -1.8708  0.3730 -1.6259
  101OSM   H18G10238  -0.166   0.681   8.834 -0.5573 -0.6652  0.3671
  101OSM   H18H10239  -0.221   0.511   8.868 -0.9935  0.6570  1.5303
  102OSM      N10240   0.246   2.786  10.680  0.1765  1.0215  0.4577
  102OSM    C1510241   0.170   2.797  10.549 -0.5343  0.3113  0.5705
  102OSM   H15A10242   0.217   2.739  10.471 -1.2492  1.8116 -1.0444
  102OSM   H15B10243   0.168   2.901  10.522 -0.9860  0.0169 -0.5952
  102OSM   H15C10244   0.068   2.765  10.561  0.6180 -3.3708  2.0181
  102OSM    C1410245   0.223   2.655  10.747 -0.3572 -0.4098 -0.0067
  102OSM   H14A10246   0.284   2.643  10.835 -2.3124 -1.0502  1.3251
  102OSM   H14B10247   0.228   2.559  10.698 -0.8919 -0.2080 -0.4740
  102OSM   H14C10248   0.122   2.645  10.784 -0.1896  0.5316  0.7518
  102OSM    C1310249   0.389   2.808  10.648 -0.5792  0.0062 -0.3154
  102OSM   H13A10250   0.444   2.719  10.621  0.1207  0.3921 -0.1700
  102OSM   H13B10251   0.439   2.848  10.734  1.3431  1.7823 -2.1589
  102OSM   H13C10252   0.398   2.889  10.577  0.8786  0.8547  0.7708
  102OSM    C1210253   0.190   2.894  10.767  0.2581  0.5870 -0.0051
  102OSM   H12A10254   0.230   2.879  10.866  1.9286  1.8008 -0.4521
  102OSM   H12B10255   0.086   2.869  10.778  0.8664 -1.1888  2.4047
  102OSM    C1110256   0.199   3.045  10.726 -0.2381  0.2999 -0.7017
  102OSM   H11A10257   0.137   3.098  10.801  0.6632 -1.3296  1.2820
  102OSM   H11B10258   0.159   3.062  10.624  0.4354  1.6836 -0.7557
  102OSM      P10259   0.395   3.193  10.647 -0.0382 -0.1812  0.0365
  102OSM    O1310260   0.303   3.304  10.638 -0.0128 -0.1323 -0.2674
  102OSM    O1410261   0.533   3.228  10.689  0.2994 -0.6697 -0.1093
  102OSM    O1110262   0.405   3.110  10.515 -0.0913  0.1768  0.5071
  102OSM    O1210263   0.333   3.087  10.745 -0.1656  0.3482  0.5132
  102OSM    C1S10264   0.510   3.142  10.423  0.3778 -0.5965 -0.0453
  102OSM    H1S10265   0.607   3.090  10.438  1.0974  0.4319 -0.9421
  102OSM    H1T10266   0.554   3.244  10.429  0.8396 -0.6954 -1.4790
  102OSM     NF10267   0.551   3.173  10.184 -0.2561  0.9976 -0.5718
  102OSM    HNF10268   0.521   3.259  10.145 -3.1437  0.9453  1.2254
  102OSM    C2S10269   0.458   3.116  10.280 -0.4830 -0.5353 -0.0296
  102OSM    H2S10270   0.458   3.006  10.269 -0.6099 -0.5410  0.0375
  102OSM    C3S10271   0.307   3.151  10.266 -0.3791 -0.7883 -0.3643
  102OSM    H3S10272   0.277   3.247  10.312 -1.7640 -0.6364 -1.4787
  102OSM     O310273   0.217   3.049  10.313  0.3300  0.1820  0.1398
  102OSM    HO310274   0.277   2.999  10.368  0.2647 -2.3183 -1.8820
  102OSM    C4S10275   0.280   3.171  10.119 -0.0739 -0.1541  0.1739
  102OSM    H4S10276   0.292   3.074  10.068 -0.3071 -0.2256  0.2549
  102OSM    C5S10277   0.229   3.277  10.057  0.2141 -0.8132 -0.5225
  102OSM    H5S10278   0.192   3.361  10.117  2.8728 -0.5240  0.8631
  102OSM    C6S10279   0.192   3.294   9.915  0.9366  0.3015  0.3557
  102OSM    H6S10280   0.232   3.390   9.876  0.4980  1.4968  2.6419
  102OSM    H6T10281   0.082   3.314   9.919  1.1216  1.7053 -0.8654
  102OSM    C7S10282   0.225   3.185   9.809 -0.0974 -0.4261  0.1375
  102OSM    H7S10283   0.169   3.094   9.840 -2.5880  0.3287 -1.7492
  102OSM    H7T10284   0.335   3.171   9.812 -0.1536 -0.8277  0.3187
  102OSM    C8S10285   0.192   3.239   9.665 -0.4807 -0.0549  0.6528
  102OSM    H8S10286   0.252   3.328   9.636  0.7287 -1.6611 -2.1154
  102OSM    H8T10287   0.086   3.270   9.647 -0.1920  0.0858 -0.8827
  102OSM    C9S10288   0.225   3.140   9.548 -0.1518 -0.0717 -0.5492
  102OSM    H9S10289   0.170   3.044   9.556 -0.4808  0.0477 -1.2595
  102OSM    H9T10290   0.331   3.114   9.568  0.0151 -0.6748 -2.0672
  102OSM   C10S10291   0.203   3.195   9.404 -0.4856  0.1022  0.0506
  102OSM   H10S10292   0.250   3.296   9.404  0.7342 -0.4398 -0.9228
  102OSM   H10T10293   0.097   3.212   9.378 -0.6342 -2.7319 -1.5362
  102OSM   C11S10294   0.260   3.102   9.293  0.0869 -0.6293  0.2265
  102OSM   H11S10295   0.191   3.015   9.285 -3.1175  1.5854  1.4317
  102OSM   H11T10296   0.355   3.060   9.331  0.7546  2.1243  1.8974
  102OSM   C12S10297   0.279   3.169   9.152  0.1028 -0.3785  0.4973
  102OSM   H12S10298   0.346   3.256   9.169 -0.7972  0.5989 -0.7502
  102OSM   H12T10299   0.177   3.204   9.125 -0.4443 -1.2190  1.4288
  102OSM   C13S10300   0.334   3.082   9.039 -0.3903 -0.0441  0.1678
  102OSM   H13S10301   0.441   3.071   9.065 -1.0081  0.7209  3.4301
  102OSM   H13T10302   0.330   3.145   8.947 -0.9580 -0.6860 -0.2537
  102OSM   C14S10303   0.260   2.949   9.015  0.1621  0.0664 -0.3328
  102OSM   H14S10304   0.154   2.971   8.990  0.0693 -0.9799 -0.9209
  102OSM   H14T10305   0.258   2.883   9.105  0.6964 -0.5763 -0.7852
  102OSM   C15S10306   0.306   2.867   8.893 -0.9988 -0.1983  0.5796
  102OSM   H15S10307   0.312   2.935   8.805 -0.9654 -1.0449 -0.0802
  102OSM   H15T10308   0.244   2.780   8.864  1.5854 -2.1572  0.5836
  102OSM   C16S10309   0.441   2.811   8.912  0.1877  0.0963 -1.3174
  102OSM   H16S10310   0.431   2.723   8.980 -0.4041  0.9046 -0.3465
  102OSM   H16T10311   0.508   2.886   8.959 -2.7471  1.2791  1.3421
  102OSM   C17S10312   0.510   2.763   8.785 -0.4810  0.2190  0.1973
  102OSM   H17S10313   0.615   2.743   8.813 -0.0936 -0.7606 -1.7556
  102OSM   H17T10314   0.528   2.838   8.705  3.7660  0.4807  1.1880
  102OSM   C18S10315   0.460   2.627   8.737 -0.2982  0.4884  0.0307
  102OSM   H18S10316   0.356   2.647   8.706 -0.8217 -0.7010  0.9574
  102OSM   H18T10317   0.441   2.547   8.811  2.4352 -1.5961 -1.3137
  102OSM   H18U10318   0.511   2.584   8.648 -0.3389 -1.0188  0.6992
  102OSM    C1F10319   0.665   3.105  10.152 -0.0200  0.1048  0.4400
  102OSM     OF10320   0.716   3.020  10.220  0.1484  0.1783  0.0282
  102OSM    C2F10321   0.730   3.137  10.019 -0.2821 -0.2349 -0.5185
  102OSM    H2F10322   0.832   3.176  10.043 -1.6734  1.6937  2.8531
  102OSM    H2G10323   0.677   3.222   9.971  0.1970  0.9077  0.9018
  102OSM    C3F10324   0.717   3.010   9.937  0.4724  0.6098  0.3669
  102OSM    H3F10325   0.615   2.971   9.919  1.3808 -0.9092 -2.0493
  102OSM    H3G10326   0.769   2.930   9.994  0.7245  0.3795 -0.1777
  102OSM    C4F10327   0.777   3.022   9.798 -0.2250 -0.1704  0.2736
  102OSM    H4F10328   0.883   3.039   9.826 -0.2952  0.1334  0.3580
  102OSM    H4G10329   0.736   3.120   9.765 -1.9805 -0.8948  0.2265
  102OSM    C5F10330   0.745   2.900   9.714  0.0663 -0.7151 -0.2449
  102OSM    H5F10331   0.636   2.888   9.697 -0.1049 -0.2040  0.4311
  102OSM    H5G10332   0.792   2.811   9.759  0.7692  0.0984  0.6837
  102OSM    C6F10333   0.809   2.911   9.571  0.7649  0.0736 -0.0533
  102OSM    H6F10334   0.919   2.926   9.572  0.9561 -1.1361 -0.8491
  102OSM    H6G10335   0.773   3.008   9.530 -0.0762  0.2466  1.0583
  102OSM    C7F10336   0.775   2.790   9.479  0.2809 -0.5777  0.0643
  102OSM    H7F10337   0.674   2.746   9.492  0.5428 -1.1441  0.2110
  102OSM    H7G10338   0.833   2.704   9.517 -1.4469 -1.5338  0.6558
  102OSM    C8F10339   0.817   2.812   9.340 -0.1192  0.2726  0.4535
  102OSM    H8F10340   0.925   2.818   9.319 -0.2927 -0.2906 -0.6559
  102OSM    H8G10341   0.786   2.916   9.319 -0.4626 -0.1638 -1.3375
  102OSM    C9F10342   0.748   2.718   9.243  0.6876  0.5066  0.6275
  102OSM    H9F10343   0.638   2.714   9.256  0.6100 -0.8300 -0.2331
  102OSM   C10F10344   0.791   2.650   9.136 -0.0688  1.2011 -0.1594
  102OSM   H10F10345   0.721   2.578   9.091 -0.3861  2.5287 -1.8989
  102OSM   C11F10346   0.926   2.650   9.079 -0.1746  0.2905  0.3227
  102OSM   H11F10347   0.975   2.554   9.108  1.5104  1.2833  0.9602
  102OSM   H11G10348   0.989   2.731   9.122  0.5707  0.2699 -0.6716
  102OSM   C12F10349   0.920   2.663   8.922  0.1847 -0.8814 -0.9071
  102OSM   H12F10350   0.982   2.747   8.885 -0.9629 -0.4008 -1.7756
  102OSM   H12G10351   0.815   2.691   8.899 -0.0077 -0.9031 -0.0931
  102OSM   C13F10352   0.966   2.527   8.860 -0.1367 -0.3314  0.5833
  102OSM   H13F10353   0.919   2.437   8.905 -3.0789  1.4262  1.2399
  102OSM   H13G10354   1.077   2.533   8.864 -0.2019  0.7552  1.1084
  102OSM   C14F10355   0.941   2.514   8.707 -0.0747  0.0344  0.7305
  102OSM   H14F10356   0.830   2.512   8.694 -0.0394 -0.0365  0.4269
  102OSM   H14G10357   0.988   2.417   8.681 -0.5616 -0.3211  1.1512
  102OSM   C15F10358   0.989   2.631   8.620 -0.0060 -0.5329  0.2864
  102OSM   H15F10359   1.075   2.682   8.669  2.0505 -1.8705 -1.7223
  102OSM   H15G10360   0.908   2.707   8.611 -0.0072 -0.6354 -0.7516
  102OSM   C16F10361   1.032   2.589   8.471  0.8988 -0.6076  0.0087
  102OSM   H16F10362   0.951   2.540   8.413  1.7312  0.2039 -1.9012
  102OSM   H16G10363   1.127   2.534   8.489  2.4207  2.3561  2.0303
  102OSM   C17F10364   1.050   2.714   8.384  0.4790  0.5654  0.6239
  102OSM   H17F10365   1.099   2.787   8.452  1.6757  1.3279 -0.9921
  102OSM   H17G10366   0.951   2.760   8.361  0.2224 -0.5950 -0.6997
  102OSM   C18F10367   1.131   2.691   8.252  0.6791  0.2406  0.0182
  102OSM   H18F10368   1.145   2.787   8.199 -0.8296  1.3514  1.5306
  102OSM   H18G10369   1.078   2.614   8.192  0.5745 -0.7156  1.2837
  102OSM   H18H10370   1.235   2.654   8.269  0.7636  0.6770  0.4596
  103OSM      N10371   0.582   5.313  10.999  0.4459 -0.1500 -0.2589
  103OSM    C1510372   0.585   5.191  11.082  0.6340  0.4527  0.2414
  103OSM   H15A10373   0.671   5.181  11.147 -0.2153 -0.2087  1.2980
  103OSM   H15B10374   0.582   5.101  11.023  0.2773 -2.1787  3.9090
  103OSM   H15C10375   0.502   5.200  11.151 -0.2714  0.1329 -0.7901
  103OSM    C1410376   0.467   5.303  10.902 -0.0963 -0.3822  0.0758
  103OSM   H14A10377   0.475   5.213  10.843  1.8724 -0.2185  0.0291
  103OSM   H14B10378   0.467   5.394  10.844  0.6370 -0.8555 -0.6818
  103OSM   H14C10379   0.372   5.304  10.954  0.0795  0.0930  0.3978
  103OSM    C1310380   0.564   5.437  11.080 -0.0413 -0.2261 -0.2967
  103OSM   H13A10381   0.577   5.524  11.016 -0.8637 -1.2106 -1.8742
  103OSM   H13B10382   0.637   5.445  11.159  0.2437 -0.0681 -0.5729
  103OSM   H13C10383   0.465   5.445  11.122 -0.2408 -1.7333 -0.4208
  103OSM    C1210384   0.709   5.333  10.913  0.3265  0.2075 -0.2937
  103OSM   H12A10385   0.727   5.238  10.865  0.6360  0.4978 -0.7492
  103OSM   H12B10386   0.788   5.363  10.981  0.6695  4.3010 -2.1918
  103OSM    C1110387   0.718   5.433  10.798 -0.3054 -0.5175 -0.0420
  103OSM   H11A10388   0.650   5.398  10.717 -1.0207 -1.0001  0.7485
  103OSM   H11B10389   0.822   5.430  10.761 -0.3218  1.4356 -0.3795
  103OSM      P10390   0.585   5.654  10.760 -0.2978  0.0355  0.1568
  103OSM    O1310391   0.456   5.580  10.766 -0.4612  0.7137 -0.5020
  103OSM    O1410392   0.579   5.795  10.797  0.9793 -0.7496 -0.7028
  103OSM    O1110393   0.652   5.642  10.615 -0.4970  0.0522  0.9188
  103OSM    O1210394   0.683   5.566  10.848 -0.4019 -0.1332 -0.3555
  103OSM    C1S10395   0.786   5.691  10.602 -0.4947 -0.9228  0.8735
  103OSM    H1S10396   0.853   5.603  10.614  2.2060  0.8615 -0.2761
  103OSM    H1T10397   0.814   5.763  10.682  1.3841  0.3325 -0.8310
  103OSM     NF10398   0.969   5.775  10.446 -0.2279  0.7900  0.2950
  103OSM    HNF10399   1.016   5.863  10.443  1.8512 -0.2760 -0.7167
  103OSM    C2S10400   0.828   5.754  10.461  0.4183  0.2475 -0.4869
  103OSM    H2S10401   0.793   5.684  10.382  0.6660  0.8284 -1.1206
  103OSM    C3S10402   0.745   5.885  10.451 -0.6841  0.3241  0.3027
  103OSM    H3S10403   0.810   5.951  10.513  4.2815 -2.5452 -1.2202
  103OSM     O310404   0.616   5.896  10.502 -0.4629 -0.4889  0.0464
  103OSM    HO310405   0.610   5.833  10.574 -2.2410  2.9917  3.2777
  103OSM    C4S10406   0.751   5.916  10.302 -0.3423  0.5932  0.2983
  103OSM    H4S10407   0.830   5.987  10.274  0.8081 -0.6137  0.3420
  103OSM    C5S10408   0.670   5.880  10.202 -0.6031  0.6373  0.2390
  103OSM    H5S10409   0.584   5.813  10.220  0.7777 -0.5716  2.8221
  103OSM    C6S10410   0.682   5.935  10.062  0.2671  0.4224  0.4112
  103OSM    H6S10411   0.608   6.015  10.042 -0.5443 -0.6609 -1.2001
  103OSM    H6T10412   0.657   5.853   9.991 -1.0328  1.8296 -0.8374
  103OSM    C7S10413   0.813   6.002  10.028 -1.0579 -1.1434  0.3065
  103OSM    H7S10414   0.902   5.951  10.070 -0.8489  0.0978  1.4328
  103OSM    H7T10415   0.825   6.110  10.052  1.4318 -1.2423 -0.2666
  103OSM    C8S10416   0.844   6.007   9.876  0.1067  0.7659  0.0501
  103OSM    H8S10417   0.888   5.906   9.859  0.5806  1.1011 -0.7806
  103OSM    H8T10418   0.916   6.086   9.844  1.3222  0.4754  1.8842
  103OSM    C9S10419   0.713   6.027   9.794 -0.1888 -0.4359 -0.0273
  103OSM    H9S10420   0.655   6.118   9.820 -2.0290 -1.5124 -0.1691
  103OSM    H9T10421   0.638   5.947   9.815  0.4522 -0.4704  2.4904
  103OSM   C10S10422   0.750   6.020   9.646  0.1300 -0.2859 -0.6051
  103OSM   H10S10423   0.836   5.951   9.632 -0.5598 -0.8507 -2.4554
  103OSM   H10T10424   0.766   6.126   9.617  0.0267 -0.0462  0.1961
  103OSM   C11S10425   0.639   5.958   9.566  0.1019  0.1518  0.2321
  103OSM   H11S10426   0.545   6.012   9.592  0.0200 -0.5541  1.5180
  103OSM   H11T10427   0.624   5.853   9.602  1.5958 -0.6140 -1.2794
  103OSM   C12S10428   0.676   5.957   9.419 -0.6901  0.1547  0.5447
  103OSM   H12S10429   0.763   5.896   9.387  0.1425  2.5935 -2.2480
  103OSM   H12T10430   0.707   6.062   9.398  0.5138 -0.2572  0.1788
  103OSM   C13S10431   0.556   5.919   9.326 -0.2729 -0.0114 -0.5618
  103OSM   H13S10432   0.470   5.989   9.336 -0.7965 -0.1755 -3.1786
  103OSM   H13T10433   0.516   5.819   9.352  1.5437 -0.7138 -0.3103
  103OSM   C14S10434   0.598   5.936   9.178  0.1305 -0.2273 -0.6038
  103OSM   H14S10435   0.694   5.881   9.169 -0.3118 -1.3478  1.0428
  103OSM   H14T10436   0.609   6.044   9.155  0.0696 -0.4194 -1.5937
  103OSM   C15S10437   0.498   5.884   9.084 -0.0841 -0.5185  0.1191
  103OSM   H15S10438   0.394   5.923   9.088 -1.8432 -4.4157 -1.6505
  103OSM   H15T10439   0.480   5.778   9.112  0.6501 -0.2785  1.5532
  103OSM   C16S10440   0.544   5.903   8.936 -0.4143 -0.0148 -0.4960
  103OSM   H16S10441   0.644   5.856   8.924 -0.7681 -0.8999 -0.0563
  103OSM   H16T10442   0.538   6.012   8.917 -2.9774 -0.6359 -4.1947
  103OSM   C17S10443   0.451   5.836   8.832  0.5826 -0.7965 -0.3158
  103OSM   H17S10444   0.498   5.865   8.735  0.6494 -0.6777 -0.2476
  103OSM   H17T10445   0.355   5.891   8.825  0.4281 -1.2234 -4.1168
  103OSM   C18S10446   0.436   5.687   8.837  0.5938  0.6155 -0.1796
  103OSM   H18S10447   0.388   5.656   8.742  1.5393  2.1586 -1.2038
  103OSM   H18T10448   0.380   5.651   8.926 -0.6876  1.0186 -0.7904
  103OSM   H18U10449   0.538   5.644   8.842 -0.0797 -0.9372  1.0494
  103OSM    C1F10450   1.047   5.663  10.426 -0.0870 -0.1522 -0.1979
  103OSM     OF10451   0.988   5.555  10.414 -0.3737 -0.3849 -0.3433
  103OSM    C2F10452   1.195   5.677  10.412  0.4132  0.1929  0.1570
  103OSM    H2F10453   1.241   5.674  10.513  0.5247  1.2939  0.1463
  103OSM    H2G10454   1.224   5.775  10.368  1.0600 -0.0463  0.0384
  103OSM    C3F10455   1.263   5.573  10.321 -0.2091 -0.5168  0.0311
  103OSM    H3F10456   1.246   5.471  10.363  1.3572 -0.4665  0.8690
  103OSM    H3G10457   1.373   5.587  10.321 -0.0403 -1.7376 -0.0695
  103OSM    C4F10458   1.216   5.566  10.172 -0.2507  0.2037  0.9610
  103OSM    H4F10459   1.119   5.512  10.165  1.1235 -2.1676 -2.4662
  103OSM    H4G10460   1.282   5.491  10.124 -1.5861  0.5052 -1.5298
  103OSM    C5F10461   1.210   5.700  10.101 -0.5398 -0.5481 -0.3697
  103OSM    H5F10462   1.288   5.766  10.143 -1.9402  0.8492  0.1378
  103OSM    H5G10463   1.111   5.738  10.135 -0.4805 -0.9014  0.2096
  103OSM    C6F10464   1.220   5.697   9.949  0.1599  0.1026 -0.8058
  103OSM    H6F10465   1.143   5.629   9.906 -0.9094 -0.6142  2.0380
  103OSM    H6G10466   1.311   5.647   9.911  1.0397  0.7299  0.4082
  103OSM    C7F10467   1.202   5.825   9.870  0.1464 -0.5779  0.4597
  103OSM    H7F10468   1.284   5.894   9.900  1.3978 -1.8588  0.0922
  103OSM    H7G10469   1.104   5.870   9.897 -0.1068 -1.2035  0.6027
  103OSM    C8F10470   1.200   5.783   9.724  0.3514 -0.2019 -0.0447
  103OSM    H8F10471   1.100   5.745   9.694  1.3060 -1.9083 -1.2636
  103OSM    H8G10472   1.270   5.698   9.709 -0.7098 -1.5073  1.9580
  103OSM    C9F10473   1.249   5.908   9.648 -0.5300  0.4188 -0.3053
  103OSM    H9F10474   1.312   5.973   9.710 -0.0764  0.1812 -0.5204
  103OSM   C10F10475   1.207   5.951   9.528  0.2882 -0.1448  0.2221
  103OSM   H10F10476   1.255   6.040   9.485  1.5979 -0.7477  0.3789
  103OSM   C11F10477   1.113   5.875   9.435 -0.5150  0.1235 -0.1929
  103OSM   H11F10478   1.017   5.927   9.452 -0.0600  0.9303 -0.0666
  103OSM   H11G10479   1.095   5.772   9.474 -2.0671  1.4089  2.8805
  103OSM   C12F10480   1.143   5.904   9.289 -0.1849 -0.2947 -0.2376
  103OSM   H12F10481   1.244   5.863   9.266 -1.2913 -2.6975 -1.2007
  103OSM   H12G10482   1.132   6.013   9.269 -2.0043 -0.7789 -2.4180
  103OSM   C13F10483   1.049   5.836   9.190 -0.0033 -0.1180 -0.3380
  103OSM   H13F10484   0.942   5.861   9.205 -0.2779  1.2388 -3.5922
  103OSM   H13G10485   1.063   5.726   9.187  1.9133  0.1084 -1.1128
  103OSM   C14F10486   1.063   5.866   9.032  0.3475  0.1769 -0.6317
  103OSM   H14F10487   1.162   5.831   8.995  1.8166  1.7062  1.5520
  103OSM   H14G10488   1.075   5.976   9.017  2.1414 -0.0455 -1.0747
  103OSM   C15F10489   0.952   5.812   8.945 -0.0645  0.3829  0.2583
  103OSM   H15F10490   0.854   5.864   8.954 -2.6151 -3.6438 -1.5427
  103OSM   H15G10491   0.926   5.715   8.991 -1.8534  0.6822 -0.0740
  103OSM   C16F10492   0.994   5.792   8.801  0.5734 -0.0386  0.7853
  103OSM   H16F10493   1.050   5.697   8.786  3.5309  1.8162 -0.8049
  103OSM   H16G10494   1.061   5.873   8.767  0.0787  0.0188 -0.0690
  103OSM   C17F10495   0.878   5.802   8.702  1.0592  0.2952  0.6055
  103OSM   H17F10496   0.833   5.904   8.704  0.1607  0.0109 -1.6188
  103OSM   H17G10497   0.797   5.734   8.735  1.6447  0.0891  1.6588
  103OSM   C18F10498   0.920   5.768   8.556 -0.4803  0.5622  0.6719
  103OSM   H18F10499   1.025   5.797   8.533 -0.9155 -0.2698 -2.8496
  103OSM   H18G10500   0.849   5.818   8.488 -0.3337  0.5523  0.5101
  103OSM   H18H10501   0.903   5.660   8.535 -3.1933  1.2106 -0.9356
  104OSM      N10502   2.317   4.817  10.958 -0.3318 -0.2920 -0.5835
  104OSM    C1510503   2.330   4.890  11.087  0.0319  0.0852  0.3984
  104OSM   H15A10504   2.345   4.825  11.172 -1.4521 -0.6969  0.0821
  104OSM   H15B10505   2.243   4.953  11.099  0.6471  0.9735  0.3596
  104OSM   H15C10506   2.414   4.959  11.085  0.1679 -0.0685 -2.4137
  104OSM    C1410507   2.446   4.747  10.947 -0.2460  0.1605 -0.1830
  104OSM   H14A10508   2.451   4.661  11.011  0.0021  0.9161  0.8518
  104OSM   H14B10509   2.529   4.816  10.948  0.8241 -1.0449  2.2694
  104OSM   H14C10510   2.450   4.705  10.848  2.0065  0.7813 -0.4191
  104OSM    C1310511   2.212   4.712  10.957 -0.1314  0.7114  0.6187
  104OSM   H13A10512   2.205   4.652  11.046  2.7798 -0.5920  0.1038
  104OSM   H13B10513   2.233   4.645  10.875  2.5241  1.9488  0.1488
  104OSM   H13C10514   2.118   4.759  10.933  0.7067  1.6228 -1.0706
  104OSM    C1210515   2.289   4.924  10.851  0.5514  0.4773  0.2013
  104OSM   H12A10516   2.338   5.017  10.876 -0.2456  0.9797 -0.0749
  104OSM   H12B10517   2.186   4.954  10.854  0.0955 -0.8400 -1.2704
  104OSM    C1110518   2.322   4.892  10.701 -0.0464  0.1410 -0.2654
  104OSM   H11A10519   2.430   4.869  10.687 -0.2562 -0.1990 -1.4872
  104OSM   H11B10520   2.299   4.982  10.640  2.8989  1.3394  0.2149
  104OSM      P10521   2.301   4.635  10.623  0.5097  0.0329  0.0935
  104OSM    O1310522   2.442   4.631  10.669 -0.3081 -0.5234 -0.0895
  104OSM    O1410523   2.216   4.532  10.683  0.2362  0.1228 -0.3704
  104OSM    O1110524   2.287   4.620  10.469 -0.1701 -0.6447  0.5003
  104OSM    O1210525   2.241   4.783  10.656 -0.5009 -0.5176 -0.3579
  104OSM    C1S10526   2.366   4.690  10.372  0.0141 -0.0368 -0.0113
  104OSM    H1S10527   2.448   4.748  10.420  1.9262 -1.8057 -0.9428
  104OSM    H1T10528   2.300   4.764  10.322  0.1781  2.3740  3.0547
  104OSM     NF10529   2.501   4.681  10.169 -0.0594  0.0257  0.1640
  104OSM    HNF10530   2.447   4.704  10.089 -0.4495 -0.9039  0.1444
  104OSM    C2S10531   2.432   4.597  10.268  0.1528  0.7740 -0.6677
  104OSM    H2S10532   2.507   4.537  10.324  1.4133  2.5509 -0.3877
  104OSM    C3S10533   2.342   4.487  10.197 -0.3849 -0.1226 -0.4149
  104OSM    H3S10534   2.250   4.534  10.157 -1.1245 -0.9103  0.3410
  104OSM     O310535   2.282   4.397  10.290 -0.2311 -0.0635  0.1892
  104OSM    HO310536   2.282   4.446  10.373 -0.4788 -0.7117  0.5740
  104OSM    C4S10537   2.423   4.406  10.101  1.3748  0.0339  0.3087
  104OSM    H4S10538   2.419   4.459  10.004 -0.9169  0.4028  0.5429
  104OSM    C5S10539   2.505   4.303  10.119  0.9606 -0.0710  0.3961
  104OSM    H5S10540   2.522   4.255  10.217 -0.9897 -4.1679 -1.0202
  104OSM    C6S10541   2.572   4.237   9.998 -0.2248 -0.7914  0.2173
  104OSM    H6S10542   2.575   4.127  10.009 -0.9188 -1.2288 -2.9663
  104OSM    H6T10543   2.679   4.267   9.996 -0.5304  0.3087 -0.7894
  104OSM    C7S10544   2.507   4.266   9.866 -0.1078 -0.2511  0.2952
  104OSM    H7S10545   2.499   4.372   9.835 -0.3416 -0.3479  0.0195
  104OSM    H7T10546   2.401   4.232   9.871 -0.3489  0.4921  0.4202
  104OSM    C8S10547   2.565   4.197   9.739 -0.0320  0.0806 -0.0659
  104OSM    H8S10548   2.569   4.090   9.768  1.4681 -0.2325 -1.3119
  104OSM    H8T10549   2.665   4.243   9.727 -0.5127  1.4357  0.9022
  104OSM    C9S10550   2.465   4.221   9.622 -0.0257 -1.0966 -0.3378
  104OSM    H9S10551   2.478   4.329   9.598 -1.3888 -0.1299  2.7673
  104OSM    H9T10552   2.366   4.190   9.662 -0.8958 -0.3097 -1.7896
  104OSM   C10S10553   2.476   4.140   9.495  0.8703  1.1736  0.2162
  104OSM   H10S10554   2.485   4.032   9.517  0.4136  1.2898  1.0132
  104OSM   H10T10555   2.568   4.178   9.446  1.2755  0.2511  0.2433
  104OSM   C11S10556   2.357   4.167   9.393  0.0220 -0.0803 -0.5481
  104OSM   H11S10557   2.329   4.274   9.401  0.4927  0.0911 -1.1994
  104OSM   H11T10558   2.275   4.096   9.418 -0.5221  1.0221  0.9817
  104OSM   C12S10559   2.405   4.126   9.254 -0.1836  0.3423  0.1113
  104OSM   H12S10560   2.425   4.017   9.265 -1.4821  0.1597  0.7867
  104OSM   H12T10561   2.501   4.170   9.218  1.7733 -2.9490  0.8483
  104OSM   C13S10562   2.292   4.151   9.156 -0.6470 -0.5551  0.0377
  104OSM   H13S10563   2.261   4.256   9.138 -0.1888 -1.0176 -4.5125
  104OSM   H13T10564   2.203   4.090   9.182  0.3126 -2.1158 -0.1806
  104OSM   C14S10565   2.349   4.123   9.009  0.2875 -0.4197  1.3037
  104OSM   H14S10566   2.408   4.029   9.013  0.7356 -0.3076 -1.2861
  104OSM   H14T10567   2.426   4.199   8.985 -0.7534 -0.1499 -1.5456
  104OSM   C15S10568   2.243   4.126   8.907 -0.3005 -0.0544  0.2388
  104OSM   H15S10569   2.183   4.220   8.909 -0.3759 -0.0184 -1.7461
  104OSM   H15T10570   2.169   4.045   8.924 -1.2109  0.6689 -0.1737
  104OSM   C16S10571   2.300   4.116   8.766 -0.0886 -0.4108  0.2250
  104OSM   H16S10572   2.367   4.030   8.748  1.4360 -0.0491  3.5210
  104OSM   H16T10573   2.370   4.202   8.765  3.9462 -3.3630  2.4786
  104OSM   C17S10574   2.194   4.119   8.645  0.4544 -0.2492 -0.1737
  104OSM   H17S10575   2.143   4.218   8.646  0.2667 -0.3482  0.2990
  104OSM   H17T10576   2.118   4.039   8.645  2.1611 -1.9522  0.2997
  104OSM   C18S10577   2.268   4.116   8.507  0.2019 -0.0933 -0.2463
  104OSM   H18S10578   2.340   4.199   8.491 -0.2979  0.2398 -0.7936
  104OSM   H18T10579   2.197   4.116   8.421 -1.5436 -1.3674  1.1267
  104OSM   H18U10580   2.335   4.028   8.498  0.1362  0.0162 -2.2930
  104OSM    C1F10581   2.598   4.764  10.202  0.5996  0.5341  0.1312
  104OSM     OF10582   2.661   4.747  10.309  0.7914 -0.2731 -0.0419
  104OSM    C2F10583   2.623   4.877  10.108 -0.6521 -0.1788  0.0094
  104OSM    H2F10584   2.614   4.970  10.168  0.6023  0.2551 -0.4508
  104OSM    H2G10585   2.548   4.883  10.026 -0.0220 -0.3716 -0.5918
  104OSM    C3F10586   2.768   4.878  10.047  0.1616  0.3812 -0.3232
  104OSM    H3F10587   2.769   4.779   9.997  0.2001  0.5460 -0.6479
  104OSM    H3G10588   2.838   4.883  10.133  0.1773 -0.3755 -0.2920
  104OSM    C4F10589   2.798   4.999   9.954  0.2528 -0.4690  0.5014
  104OSM    H4F10590   2.891   4.963   9.907 -0.7939 -1.6795 -0.7161
  104OSM    H4G10591   2.809   5.094  10.011  0.2275  0.4368 -0.9615
  104OSM    C5F10592   2.690   5.022   9.845  0.4069  0.3354 -0.5958
  104OSM    H5F10593   2.597   5.066   9.887 -0.3827 -1.7411 -0.0419
  104OSM    H5G10594   2.656   4.927   9.799 -0.6696 -0.6710  2.0788
  104OSM    C6F10595   2.730   5.113   9.728  0.4044  0.3048  0.3315
  104OSM    H6F10596   2.831   5.090   9.688  1.7337  0.8531  3.1521
  104OSM    H6G10597   2.740   5.217   9.765  0.5303  0.3096  0.2817
  104OSM    C7F10598   2.627   5.120   9.609  0.0102  0.1701  0.0813
  104OSM    H7F10599   2.672   5.195   9.539 -4.1763  1.2360 -1.7956
  104OSM    H7G10600   2.536   5.161   9.658  1.7557  1.6137  2.3539
  104OSM    C8F10601   2.607   4.985   9.532  0.0834 -0.4167 -0.3977
  104OSM    H8F10602   2.550   4.913   9.594  0.2812  1.5064  2.1527
  104OSM    H8G10603   2.713   4.955   9.518  0.4093 -0.3872  1.6887
  104OSM    C9F10604   2.525   4.994   9.402 -0.2724  0.8557 -0.1879
  104OSM    H9F10605   2.419   4.994   9.432 -0.2786  1.0995 -0.2045
  104OSM   C10F10606   2.571   5.004   9.278 -0.2736 -0.0508  0.3063
  104OSM   H10F10607   2.502   5.012   9.193  1.3292  2.9948 -0.8383
  104OSM   C11F10608   2.716   5.023   9.247  0.0926  0.4239  0.6570
  104OSM   H11F10609   2.735   4.945   9.171  1.5558 -1.4363  2.7967
  104OSM   H11G10610   2.785   4.989   9.328  0.5250 -0.7041 -0.1573
  104OSM   C12F10611   2.758   5.160   9.196 -0.4012 -0.0718 -0.7205
  104OSM   H12F10612   2.866   5.168   9.170 -0.1448 -0.2270  0.2689
  104OSM   H12G10613   2.737   5.240   9.270 -0.5245 -1.0683  0.3430
  104OSM   C13F10614   2.683   5.214   9.079  0.1802  0.1176  0.4500
  104OSM   H13F10615   2.713   5.320   9.061  1.2123 -0.2045  0.1811
  104OSM   H13G10616   2.575   5.223   9.101  0.1241 -0.3164  0.3559
  104OSM   C14F10617   2.700   5.132   8.951  0.5910  0.3898  0.0800
  104OSM   H14F10618   2.618   5.166   8.886  0.0180  1.9666  1.5548
  104OSM   H14G10619   2.692   5.023   8.973  0.2529  0.7658  2.0142
  104OSM   C15F10620   2.825   5.159   8.869  0.4501  0.1288  0.3799
  104OSM   H15F10621   2.846   5.076   8.798  1.0898  0.7977 -0.2302
  104OSM   H15G10622   2.918   5.138   8.926 -0.8178 -1.9456  1.8586
  104OSM   C16F10623   2.829   5.293   8.794 -0.1347 -0.1631 -0.3512
  104OSM   H16F10624   2.818   5.378   8.865 -0.4905 -0.0614 -0.5272
  104OSM   H16G10625   2.742   5.308   8.727 -0.7482 -1.2661  0.1700
  104OSM   C17F10626   2.950   5.315   8.692 -0.2560 -0.3941 -0.0851
  104OSM   H17F10627   2.921   5.372   8.602 -0.5727 -0.9679 -0.3503
  104OSM   H17G10628   2.985   5.215   8.658  2.1271  0.6865 -1.0269
  104OSM   C18F10629   3.075   5.377   8.765  0.2140  0.4958  0.2867
  104OSM   H18F10630   3.155   5.394   8.691  1.5534  1.0559  1.8062
  104OSM   H18G10631   3.109   5.303   8.841  0.0059  1.3768  1.2625
  104OSM   H18H10632   3.047   5.476   8.808  0.2128  0.7296 -0.2389
  105OSM      N10633   4.997   0.386  10.794 -0.6947  0.3271  0.3015
  105OSM    C1510634   4.880   0.374  10.700  0.2085  0.2365  0.0670
  105OSM   H15A10635   4.888   0.281  10.646 -3.5520 -1.2573  1.7130
  105OSM   H15B10636   4.878   0.460  10.636  1.2970 -0.8172 -1.4596
  105OSM   H15C10637   4.789   0.370  10.758  0.9571 -0.5900  1.2558
  105OSM    C1410638   4.991   0.526  10.849 -0.9611  0.3487 -0.7914
  105OSM   H14A10639   5.023   0.603  10.780 -0.1333  0.2468 -0.5313
  105OSM   H14B10640   5.063   0.528  10.929 -0.6139  0.0011 -1.0844
  105OSM   H14C10641   4.899   0.545  10.902 -0.8679  0.6709 -0.7447
  105OSM    C1310642   4.979   0.287  10.897  0.3486 -0.1407 -0.4274
  105OSM   H13A10643   4.983   0.185  10.860 -0.0946 -0.7071  1.0120
  105OSM   H13B10644   4.886   0.308  10.949 -0.0871 -1.5860 -0.5613
  105OSM   H13C10645   5.056   0.287  10.972 -1.5045 -0.0443  1.5718
  105OSM    C1210646   5.130   0.359  10.726  0.4388 -0.3870  0.4974
  105OSM   H12A10647   5.142   0.252  10.732  3.0039 -0.0999  3.9212
  105OSM   H12B10648   5.212   0.403  10.781  1.6730 -1.1698 -0.6395
  105OSM    C1110649   5.164   0.411  10.579 -0.1044  0.7325 -0.5679
  105OSM   H11A10650   5.072   0.427  10.519 -1.1167  0.7482  0.9346
  105OSM   H11B10651   5.230   0.336  10.530 -1.4734 -0.3687 -0.7777
  105OSM      P10652   5.209   0.674  10.550 -0.4401  0.2719  0.3726
  105OSM    O1310653   5.144   0.757  10.657  0.0057  0.1453 -0.5488
  105OSM    O1410654   5.332   0.740  10.494  0.2692 -0.0224  0.1087
  105OSM    O1110655   5.109   0.638  10.436 -0.3100 -0.1011  0.3878
  105OSM    O1210656   5.242   0.529  10.600 -0.4486 -0.6957 -0.2324
  105OSM    C1S10657   4.982   0.704  10.436 -0.5418  0.2205  0.2258
  105OSM    H1S10658   4.995   0.809  10.470  0.5420  0.4642 -0.8744
  105OSM    H1T10659   4.922   0.669  10.523 -2.2401 -2.8889 -2.0037
  105OSM     NF10660   4.792   0.778  10.292 -0.1460 -0.1872  0.0455
  105OSM    HNF10661   4.701   0.738  10.283  0.0845 -0.4331 -1.5140
  105OSM    C2S10662   4.907   0.687  10.296  0.6619 -0.1680 -0.2354
  105OSM    H2S10663   4.974   0.718  10.213 -1.1626  1.1131 -1.3072
  105OSM    C3S10664   4.864   0.537  10.261  0.2874 -0.0498 -0.0705
  105OSM    H3S10665   4.777   0.515  10.326  0.8566 -3.8709 -0.3268
  105OSM     O310666   4.960   0.431  10.287  0.0279  0.4160 -0.1970
  105OSM    HO310667   5.025   0.482  10.337 -0.6277 -0.2182  1.3577
  105OSM    C4S10668   4.818   0.530  10.118 -0.2446  0.1742 -0.1327
  105OSM    H4S10669   4.883   0.591  10.054  1.4644  1.6760  2.8537
  105OSM    C5S10670   4.700   0.482  10.080  0.8575 -0.2563  0.1248
  105OSM    H5S10671   4.637   0.437  10.158 -0.6274  1.9504  0.3101
  105OSM    C6S10672   4.649   0.488   9.935  0.2238 -1.3327  0.1956
  105OSM    H6S10673   4.541   0.515   9.944  0.8468  1.5167  0.0224
  105OSM    H6T10674   4.657   0.391   9.881 -1.3576 -2.3038  1.5859
  105OSM    C7S10675   4.720   0.593   9.853 -0.0371 -0.0121  0.0069
  105OSM    H7S10676   4.826   0.565   9.838  0.4702  1.1149  1.3115
  105OSM    H7T10677   4.730   0.695   9.896  0.2758  0.6899 -1.6260
  105OSM    C8S10678   4.684   0.608   9.700 -0.2095 -0.1369  0.5040
  105OSM    H8S10679   4.739   0.700   9.672 -2.5103  1.0165 -0.4904
  105OSM    H8T10680   4.575   0.627   9.697 -0.1265  0.2155 -1.9123
  105OSM    C9S10681   4.719   0.485   9.614 -0.0844  0.0918  0.5563
  105OSM    H9S10682   4.641   0.409   9.638  0.2593 -0.1651  0.8685
  105OSM    H9T10683   4.815   0.434   9.635 -0.2532 -1.0003 -1.1112
  105OSM   C10S10684   4.715   0.516   9.461 -0.7424  0.0122  0.7719
  105OSM   H10S10685   4.780   0.443   9.408  1.6498  2.6925 -0.2033
  105OSM   H10T10686   4.754   0.617   9.439 -2.0236  0.3933  0.0872
  105OSM   C11S10687   4.573   0.523   9.404 -0.4107  0.5586  0.2202
  105OSM   H11S10688   4.521   0.601   9.464  0.6949 -0.4034  2.6009
  105OSM   H11T10689   4.522   0.424   9.409  1.6674 -0.6067 -0.5626
  105OSM   C12S10690   4.581   0.564   9.251 -0.0079  0.6818 -0.1637
  105OSM   H12S10691   4.612   0.473   9.196 -0.8132 -0.4388  1.1764
  105OSM   H12T10692   4.656   0.646   9.239  1.7645 -0.9435 -0.5913
  105OSM   C13S10693   4.452   0.599   9.188  0.6133  0.5384  0.2506
  105OSM   H13S10694   4.409   0.684   9.245 -2.7157 -0.3259 -0.7392
  105OSM   H13T10695   4.377   0.518   9.196 -0.9147  1.8999  0.2539
  105OSM   C14S10696   4.478   0.641   9.043  0.5815 -0.3312 -0.9412
  105OSM   H14S10697   4.517   0.552   8.988  0.0116 -0.4881 -1.0958
  105OSM   H14T10698   4.565   0.710   9.043  1.3692 -1.1753  1.7829
  105OSM   C15S10699   4.361   0.705   8.965  0.1108  0.2233  0.1040
  105OSM   H15S10700   4.330   0.798   9.017  0.9754  0.5141  0.1170
  105OSM   H15T10701   4.276   0.634   8.970  1.1491 -0.9479  2.1310
  105OSM   C16S10702   4.398   0.744   8.818  0.9753 -0.1844  0.5804
  105OSM   H16S10703   4.378   0.659   8.749  2.0946 -1.6128  1.9509
  105OSM   H16T10704   4.507   0.749   8.798  1.0399 -1.5835  0.4992
  105OSM   C17S10705   4.309   0.860   8.775  0.0190 -0.2577  0.0325
  105OSM   H17S10706   4.348   0.951   8.824 -1.2914 -0.8201  2.2643
  105OSM   H17T10707   4.209   0.854   8.824 -0.3418  0.5801 -0.5798
  105OSM   C18S10708   4.309   0.887   8.619  0.5867  0.0540 -0.1349
  105OSM   H18S10709   4.240   0.814   8.572  1.4575 -1.1786  0.4520
  105OSM   H18T10710   4.409   0.892   8.571  1.1815  0.3616  1.0887
  105OSM   H18U10711   4.270   0.989   8.601  1.6062  0.3897 -0.5329
  105OSM    C1F10712   4.803   0.913  10.292  0.2098  0.0823 -0.4729
  105OSM     OF10713   4.909   0.969  10.293 -0.0860 -0.0411 -0.3714
  105OSM    C2F10714   4.664   0.982  10.278 -0.1998 -0.1394  0.2105
  105OSM    H2F10715   4.647   1.046  10.367 -2.4093 -3.2344  2.2447
  105OSM    H2G10716   4.585   0.904  10.278 -1.5675  1.2155 -0.5050
  105OSM    C3F10717   4.671   1.062  10.141 -0.0382 -0.3339  0.5433
  105OSM    H3F10718   4.767   1.118  10.143 -0.0339 -0.1326 -1.9967
  105OSM    H3G10719   4.583   1.129  10.126  0.6313  0.5521  0.5171
  105OSM    C4F10720   4.661   0.967  10.018  0.0064  0.1250 -0.6252
  105OSM    H4F10721   4.599   0.877  10.036  0.4205 -0.5198 -2.2929
  105OSM    H4G10722   4.764   0.926  10.008 -0.0549  0.0150 -0.8021
  105OSM    C5F10723   4.607   1.031   9.894 -0.5250  0.2380  0.2561
  105OSM    H5F10724   4.657   1.125   9.862 -1.1046  0.0645 -1.2152
  105OSM    H5G10725   4.504   1.067   9.913 -0.0312  1.0318  1.5530
  105OSM    C6F10726   4.602   0.926   9.771 -0.0381 -0.3429 -0.3904
  105OSM    H6F10727   4.545   0.841   9.813  3.2411 -2.1558  0.7441
  105OSM    H6G10728   4.701   0.888   9.739 -0.1960 -0.2099 -1.0437
  105OSM    C7F10729   4.542   0.981   9.639  0.5103  0.1506 -0.4663
  105OSM    H7F10730   4.593   1.077   9.618 -0.5610  1.0219  0.7141
  105OSM    H7G10731   4.437   1.010   9.661  0.5026 -0.7918  0.8790
  105OSM    C8F10732   4.542   0.880   9.524  1.0796 -0.0010 -0.5152
  105OSM    H8F10733   4.456   0.811   9.539  1.4920 -0.1254  1.5736
  105OSM    H8G10734   4.625   0.807   9.534  0.1695 -0.8084  1.6837
  105OSM    C9F10735   4.527   0.946   9.384 -0.1940 -0.0883 -0.0216
  105OSM    H9F10736   4.422   0.954   9.353 -0.7213  1.1932  1.9338
  105OSM   C10F10737   4.617   0.989   9.299 -0.0885 -1.1970  0.3875
  105OSM   H10F10738   4.578   1.017   9.200 -0.5092  0.4375  0.9870
  105OSM   C11F10739   4.761   0.986   9.311  0.6635 -0.8899 -1.0819
  105OSM   H11F10740   4.781   0.939   9.410 -1.5345  0.2029 -0.0457
  105OSM   H11G10741   4.792   1.092   9.322 -1.4702 -0.0352 -2.6136
  105OSM   C12F10742   4.819   0.915   9.184 -0.5793  0.4201  0.2615
  105OSM   H12F10743   4.794   0.807   9.188 -2.0684  0.7747  1.5576
  105OSM   H12G10744   4.929   0.921   9.200 -0.5644 -2.4944  1.7551
  105OSM   C13F10745   4.783   0.970   9.042 -0.5849 -0.1569  0.3623
  105OSM   H13F10746   4.842   1.062   9.023  1.4686 -1.3704  0.5578
  105OSM   H13G10747   4.678   1.000   9.028  0.1098  1.6955 -1.2907
  105OSM   C14F10748   4.832   0.874   8.930 -0.0272  0.8218 -0.4709
  105OSM   H14F10749   4.795   0.775   8.967 -0.9593 -0.4355 -4.1938
  105OSM   H14G10750   4.942   0.885   8.922  0.0361 -0.1046 -1.1434
  105OSM   C15F10751   4.756   0.889   8.795 -0.3367  0.0107 -0.3694
  105OSM   H15F10752   4.782   0.991   8.760  2.5837  0.1002  1.7003
  105OSM   H15G10753   4.648   0.892   8.822 -0.1236 -1.9114  0.8935
  105OSM   C16F10754   4.790   0.778   8.689 -0.8438  0.0652 -0.1487
  105OSM   H16F10755   4.770   0.678   8.734 -1.9742  1.8902  3.8607
  105OSM   H16G10756   4.898   0.783   8.667 -0.5401 -0.3804  1.1149
  105OSM   C17F10757   4.720   0.799   8.550 -0.3064 -0.0686 -0.5060
  105OSM   H17F10758   4.745   0.902   8.518  1.8203 -0.5533 -0.5364
  105OSM   H17G10759   4.616   0.788   8.588 -0.0399 -0.2549  0.2025
  105OSM   C18F10760   4.765   0.692   8.449  0.5554  0.0943  0.5715
  105OSM   H18F10761   4.684   0.678   8.374 -0.0431  0.7673  1.0724
  105OSM   H18G10762   4.786   0.595   8.501 -0.6095 -0.4213  0.1147
  105OSM   H18H10763   4.855   0.729   8.396 -1.1678  1.1492 -1.7605
  106OSM      N10764   4.191   0.690  10.778  0.2930 -0.4397 -0.1616
  106OSM    C1510765   4.320   0.765  10.752 -0.8878 -0.0015 -0.8355
  106OSM   H15A10766   4.296   0.852  10.693  0.3052  1.3943  0.6333
  106OSM   H15B10767   4.388   0.709  10.690  0.0668  0.1704  0.0279
  106OSM   H15C10768   4.366   0.791  10.846  1.8739  1.6978 -2.5180
  106OSM    C1410769   4.224   0.601  10.898  0.4005  0.4628 -0.5456
  106OSM   H14A10770   4.235   0.661  10.988 -1.2953  0.1416 -0.0788
  106OSM   H14B10771   4.306   0.538  10.869  0.6950  1.3083 -1.6136
  106OSM   H14C10772   4.142   0.536  10.925  1.3066  0.8059  3.8710
  106OSM    C1310773   4.079   0.780  10.831  0.2165 -0.4605 -0.1463
  106OSM   H13A10774   4.094   0.817  10.931  0.6542  0.0349 -0.3941
  106OSM   H13B10775   3.991   0.718  10.843 -0.1381 -0.4341 -2.1696
  106OSM   H13C10776   4.060   0.870  10.775 -0.8970  1.0537  2.4756
  106OSM    C1210777   4.139   0.620  10.648  0.1074 -0.2126  0.3576
  106OSM   H12A10778   4.117   0.703  10.583  0.7686  1.1045  1.7277
  106OSM   H12B10779   4.038   0.588  10.670  0.1033 -0.3173  0.1851
  106OSM    C1110780   4.223   0.507  10.588  0.3880  0.0516  0.0403
  106OSM   H11A10781   4.314   0.557  10.548  2.1276 -0.0372  3.5278
  106OSM   H11B10782   4.161   0.464  10.507  1.4133 -0.9982 -0.2206
  106OSM      P10783   4.345   0.285  10.627 -0.1143 -0.2450 -0.1225
  106OSM    O1310784   4.485   0.308  10.658 -0.5760  0.0377  0.0397
  106OSM    O1410785   4.281   0.169  10.681  0.3029  0.7080  0.1569
  106OSM    O1110786   4.327   0.281  10.473 -0.0471  0.0390  0.5911
  106OSM    O1210787   4.256   0.407  10.680 -0.6303 -0.2829 -0.4028
  106OSM    C1S10788   4.307   0.161  10.397  0.2314  0.5333  0.6786
  106OSM    H1S10789   4.237   0.095  10.452 -1.2867  1.7705  0.3127
  106OSM    H1T10790   4.403   0.107  10.381  0.4584  1.6575 -2.4512
  106OSM     NF10791   4.235   0.066  10.183  1.1253  0.1205 -0.5016
  106OSM    HNF10792   4.311   0.014  10.143 -0.4119 -2.0919 -0.7224
  106OSM    C2S10793   4.258   0.189  10.251 -0.5768  0.3411 -0.3386
  106OSM    H2S10794   4.162   0.245  10.247 -2.0930 -2.0609  0.6214
  106OSM    C3S10795   4.367   0.272  10.182 -0.4439 -0.5096 -0.4720
  106OSM    H3S10796   4.457   0.206  10.182 -0.3780 -0.4450 -1.9611
  106OSM     O310797   4.412   0.385  10.245  0.1664 -0.7426  0.4719
  106OSM    HO310798   4.378   0.367  10.333  1.7751  0.7415  1.4588
  106OSM    C4S10799   4.315   0.309  10.052 -0.6352  0.2723  0.2505
  106OSM    H4S10800   4.334   0.236   9.972 -0.7711  0.3966  0.1037
  106OSM    C5S10801   4.230   0.415  10.030  0.3059 -1.1059  0.7738
  106OSM    H5S10802   4.190   0.475  10.114 -0.2265  0.8308 -0.7999
  106OSM    C6S10803   4.159   0.445   9.896 -0.0062  0.3159  0.1262
  106OSM    H6S10804   4.167   0.551   9.863  1.5595  0.2482  0.2095
  106OSM    H6T10805   4.052   0.421   9.911 -0.3921  0.9536 -1.4500
  106OSM    C7S10806   4.203   0.353   9.784  0.3889 -0.0102  0.4446
  106OSM    H7S10807   4.200   0.248   9.818 -0.4233 -0.7178 -1.6244
  106OSM    H7T10808   4.308   0.376   9.755  0.2912 -1.3476 -1.1078
  106OSM    C8S10809   4.115   0.359   9.653 -0.1925 -0.9579 -0.1486
  106OSM    H8S10810   4.116   0.468   9.631  1.0938 -1.0849 -0.7531
  106OSM    H8T10811   4.014   0.330   9.689 -1.2810  1.0345 -1.4039
  106OSM    C9S10812   4.168   0.266   9.552 -0.0468  0.2553  0.3077
  106OSM    H9S10813   4.179   0.163   9.591  0.1723 -0.4271 -1.4943
  106OSM    H9T10814   4.267   0.305   9.519  0.7990 -0.0297  2.3838
  106OSM   C10S10815   4.078   0.262   9.428 -0.5372  0.4907  0.4025
  106OSM   H10S10816   4.030   0.359   9.405 -0.7916  0.5111  0.9994
  106OSM   H10T10817   3.990   0.196   9.446 -1.8649  1.6964 -1.3371
  106OSM   C11S10818   4.155   0.217   9.301 -0.1333  0.7065  0.0694
  106OSM   H11S10819   4.231   0.141   9.331  1.4596  1.5179 -1.7401
  106OSM   H11T10820   4.215   0.304   9.268  1.3551 -0.0358  0.7079
  106OSM   C12S10821   4.051   0.175   9.197 -0.5067  0.4878 -0.1211
  106OSM   H12S10822   3.991   0.268   9.183 -1.4791 -0.1844 -0.4399
  106OSM   H12T10823   3.980   0.097   9.230 -1.4207  1.3195 -0.0538
  106OSM   C13S10824   4.115   0.128   9.068 -0.2378 -0.5148  0.1164
  106OSM   H13S10825   4.163   0.028   9.073 -0.1761 -0.4276  1.5112
  106OSM   H13T10826   4.185   0.205   9.029  2.4871 -1.4204  2.8221
  106OSM   C14S10827   4.007   0.105   8.958 -0.3242  0.5130 -0.5893
  106OSM   H14S10828   3.944   0.196   8.953  0.7435  1.3104  0.1505
  106OSM   H14T10829   3.939   0.022   8.989  0.2794 -0.9705 -2.9626
  106OSM   C15S10830   4.061   0.070   8.820  0.6024 -0.1387 -0.7735
  106OSM   H15S10831   4.138   0.142   8.784  2.1209 -1.0634  0.5260
  106OSM   H15T10832   3.975   0.091   8.752 -1.5869 -2.7348  0.9760
  106OSM   C16S10833   4.099  -0.078   8.799  0.1967  0.3588  0.7401
  106OSM   H16S10834   4.017  -0.139   8.844  0.2095  0.7370  1.2869
  106OSM   H16T10835   4.200  -0.101   8.837 -0.3901 -1.1909  1.4351
  106OSM   C17S10836   4.101  -0.123   8.654 -0.1876 -0.3542  0.2837
  106OSM   H17S10837   4.177  -0.057   8.608 -0.0136 -0.6334  0.1713
  106OSM   H17T10838   4.000  -0.115   8.607  1.2434  1.3124 -2.7795
  106OSM   C18S10839   4.152  -0.262   8.644 -0.7369  0.2378  1.3047
  106OSM   H18S10840   4.071  -0.335   8.668  1.1656 -2.3976  0.1897
  106OSM   H18T10841   4.242  -0.280   8.706  0.3452  0.7923 -0.0514
  106OSM   H18U10842   4.179  -0.279   8.538 -3.3140  1.6306  0.3469
  106OSM    C1F10843   4.121   0.005  10.198 -0.1711  0.0003  0.1728
  106OSM     OF10844   4.035   0.046  10.276 -0.4506 -0.4742 -0.9184
  106OSM    C2F10845   4.098  -0.124  10.111  0.0720 -0.0758  0.3217
  106OSM    H2F10846   4.080  -0.213  10.174 -1.9888 -0.3429 -0.5570
  106OSM    H2G10847   4.187  -0.147  10.048  0.9216  1.5629  0.8728
  106OSM    C3F10848   3.982  -0.105  10.015 -0.6165 -0.0348  0.0829
  106OSM    H3F10849   3.896  -0.061  10.070  1.6942  1.3755  2.8974
  106OSM    H3G10850   3.949  -0.205   9.979  1.1688 -0.9818  0.9202
  106OSM    C4F10851   4.011  -0.001   9.902  0.7817 -0.0188 -0.1996
  106OSM    H4F10852   4.100  -0.026   9.840 -0.1440  2.0350 -2.5563
  106OSM    H4G10853   4.026   0.097   9.952  1.2072 -0.3353  0.3078
  106OSM    C5F10854   3.890   0.027   9.805 -1.3184 -0.8583 -0.4707
  106OSM    H5F10855   3.908   0.116   9.742 -1.0529 -0.6490 -0.1036
  106OSM    H5G10856   3.809   0.058   9.874  0.2952 -1.9114  2.0850
  106OSM    C6F10857   3.844  -0.086   9.712 -0.1177  0.0305  0.0556
  106OSM    H6F10858   3.733  -0.084   9.706 -0.0898 -0.2744 -0.6908
  106OSM    H6G10859   3.877  -0.175   9.769 -0.7738 -0.5713 -0.4862
  106OSM    C7F10860   3.908  -0.082   9.569 -0.0697  0.0806 -1.1881
  106OSM    H7F10861   4.017  -0.101   9.579  0.1216  1.9336  1.1699
  106OSM    H7G10862   3.897   0.023   9.535  0.4286  0.1265 -1.2101
  106OSM    C8F10863   3.849  -0.184   9.469  0.2398 -0.3373  0.2461
  106OSM    H8F10864   3.860  -0.284   9.515 -0.3463 -0.1249  0.8628
  106OSM    H8G10865   3.923  -0.192   9.386 -1.5145 -0.7784 -1.3401
  106OSM    C9F10866   3.704  -0.171   9.439  1.2434 -0.5561  0.2603
  106OSM    H9F10867   3.642  -0.161   9.530 -0.9806 -0.7663 -1.1656
  106OSM   C10F10868   3.656  -0.144   9.314  0.2101 -0.8255 -0.3064
  106OSM   H10F10869   3.548  -0.128   9.304  0.3563  0.1126 -0.4120
  106OSM   C11F10870   3.738  -0.140   9.182 -0.1435  0.2275 -0.0914
  106OSM   H11F10871   3.839  -0.185   9.190  0.3820  1.4471  0.3335
  106OSM   H11G10872   3.738  -0.036   9.145 -2.5002  1.2413  2.4254
  106OSM   C12F10873   3.668  -0.230   9.078  0.4846  0.0397  0.4006
  106OSM   H12F10874   3.557  -0.232   9.088  0.4401 -1.2088 -0.2628
  106OSM   H12G10875   3.702  -0.335   9.091  4.5563  1.0741 -0.5387
  106OSM   C13F10876   3.703  -0.197   8.930 -0.2359  0.3751  0.3606
  106OSM   H13F10877   3.727  -0.285   8.867  1.0031  0.7034  0.3606
  106OSM   H13G10878   3.794  -0.135   8.938  1.8892 -2.4102 -0.6880
  106OSM   C14F10879   3.594  -0.114   8.859 -0.0333 -0.2320  0.3024
  106OSM   H14F10880   3.586  -0.030   8.931  1.2896  1.0257 -0.9524
  106OSM   H14G10881   3.497  -0.168   8.857  0.2681 -0.8654 -2.7831
  106OSM   C15F10882   3.625  -0.057   8.718  0.3659 -0.2284  0.8122
  106OSM   H15F10883   3.638  -0.131   8.636  0.3412 -0.0613  0.6586
  106OSM   H15G10884   3.723  -0.004   8.721 -0.8031  2.2882 -1.4656
  106OSM   C16F10885   3.510   0.051   8.679 -0.4488  0.0014  0.7078
  106OSM   H16F10886   3.551   0.100   8.587 -1.7031  0.0926  0.1845
  106OSM   H16G10887   3.499   0.121   8.764  1.0198  0.8838  0.2195
  106OSM   C17F10888   3.381  -0.015   8.620 -0.4557  0.2134 -0.1475
  106OSM   H17F10889   3.340  -0.084   8.697  0.4822 -0.3790 -0.1606
  106OSM   H17G10890   3.412  -0.086   8.540  2.1600 -1.2985  2.0596
  106OSM   C18F10891   3.270   0.080   8.570  0.4081  0.1363 -0.2153
  106OSM   H18F10892   3.175   0.026   8.551  0.0832  0.8137 -0.5476
  106OSM   H18G10893   3.293   0.127   8.472 -1.0365  1.4260  0.0451
  106OSM   H18H10894   3.252   0.162   8.643 -0.2405 -2.8255  3.2709
  107OSM      N10895   1.101   4.637  10.967  0.3541 -0.3114  0.0227
  107OSM    C1510896   1.245   4.674  10.932  0.5734 -0.3615  0.1440
  107OSM   H15A10897   1.293   4.610  10.859  2.1630 -0.5110  1.2589
  107OSM   H15B10898   1.309   4.672  11.019  1.6269  2.3816 -0.4787
  107OSM   H15C10899   1.240   4.777  10.900 -3.1534  0.3573  2.3811
  107OSM    C1410900   1.110   4.496  11.013 -0.4098 -0.6254  0.0431
  107OSM   H14A10901   1.187   4.480  11.087  1.8368  2.3661 -1.4412
  107OSM   H14B10902   1.151   4.435  10.934 -1.9762 -1.3512 -0.2383
  107OSM   H14C10903   1.014   4.450  11.030 -0.5898 -1.7399 -3.2997
  107OSM    C1310904   1.051   4.707  11.090  0.1258  0.1007  0.4194
  107OSM   H13A10905   1.106   4.697  11.182 -1.6089 -1.7735  1.3525
  107OSM   H13B10906   0.949   4.672  11.105 -0.4697  1.0475 -1.1802
  107OSM   H13C10907   1.036   4.811  11.064  0.8306  0.0101 -0.3702
  107OSM    C1210908   1.011   4.652  10.844  0.2797 -0.4916  0.9145
  107OSM   H12A10909   0.907   4.627  10.860  0.0085 -0.7987 -1.1185
  107OSM   H12B10910   1.043   4.582  10.769  0.4871 -0.7897  1.2822
  107OSM    C1110911   1.014   4.786  10.764 -0.4402 -0.4722 -0.3222
  107OSM   H11A10912   0.942   4.799  10.681 -1.9887  4.4301  1.4008
  107OSM   H11B10913   1.109   4.800  10.707  1.0588 -1.3387  1.8068
  107OSM      P10914   0.857   4.945  10.890 -0.2532 -0.2889 -0.0838
  107OSM    O1310915   0.760   4.845  10.841 -0.2744  0.3335  0.5946
  107OSM    O1410916   0.868   4.979  11.033 -0.7370  0.3203 -0.2192
  107OSM    O1110917   0.823   5.083  10.806 -0.3021 -0.1449  0.0224
  107OSM    O1210918   0.998   4.908  10.841 -0.3134 -0.2389 -0.3874
  107OSM    C1S10919   0.901   5.128  10.693  0.0765  0.4014  0.6298
  107OSM    H1S10920   1.011   5.117  10.699  0.3848  2.5425 -0.0992
  107OSM    H1T10921   0.886   5.238  10.692 -1.6510  0.2590  2.9450
  107OSM     NF10922   0.909   5.156  10.442 -0.3148  0.2485 -0.5256
  107OSM    HNF10923   0.862   5.233  10.400  1.6510  2.5658  1.1764
  107OSM    C2S10924   0.844   5.086  10.551  0.1272 -0.1516  0.2102
  107OSM    H2S10925   0.872   4.980  10.536 -1.0583 -0.6010  1.0001
  107OSM    C3S10926   0.690   5.097  10.543  0.0225  0.6874  0.0714
  107OSM    H3S10927   0.675   5.207  10.555  1.0476  0.6933  1.5559
  107OSM     O310928   0.617   5.025  10.646  0.2591 -0.4196 -0.1532
  107OSM    HO310929   0.684   5.025  10.714  1.1857  0.0480 -1.0366
  107OSM    C4S10930   0.625   5.052  10.409  0.3027  0.0238 -1.1382
  107OSM    H4S10931   0.674   4.970  10.354  0.3361  0.6013 -1.9845
  107OSM    C5S10932   0.516   5.108  10.356  0.2572 -0.0501 -0.0276
  107OSM    H5S10933   0.465   5.188  10.413 -0.6813 -0.9197  0.3793
  107OSM    C6S10934   0.440   5.065  10.231 -0.0379 -0.8061 -0.1951
  107OSM    H6S10935   0.448   5.155  10.166 -1.3297  0.2727  1.0911
  107OSM    H6T10936   0.333   5.047  10.250 -0.1945 -1.6785 -1.7088
  107OSM    C7S10937   0.481   4.938  10.156 -0.6043 -0.2954  0.0776
  107OSM    H7S10938   0.468   4.854  10.228  1.3528 -0.8764 -0.1886
  107OSM    H7T10939   0.590   4.938  10.135 -0.4583  5.3539 -0.5834
  107OSM    C8S10940   0.393   4.918  10.031 -0.0199  0.5967 -1.3721
  107OSM    H8S10941   0.301   4.980  10.039 -0.6574 -0.5460  3.9797
  107OSM    H8T10942   0.364   4.810  10.034 -1.8273  1.0351  1.8531
  107OSM    C9S10943   0.469   4.942   9.903 -0.7104  0.2370 -0.1255
  107OSM    H9S10944   0.552   4.869   9.908 -0.9193  0.0463  0.6661
  107OSM    H9T10945   0.502   5.048   9.910 -1.5298  0.4092  1.5843
  107OSM   C10S10946   0.396   4.913   9.777  0.1103  0.0131  0.8011
  107OSM   H10S10947   0.328   4.998   9.758 -0.9421 -1.4923 -3.3650
  107OSM   H10T10948   0.333   4.821   9.782  1.5800 -1.3213 -2.2996
  107OSM   C11S10949   0.493   4.884   9.660 -0.3123  0.3373 -0.2542
  107OSM   H11S10950   0.561   4.802   9.691 -0.0944  1.6017  2.9930
  107OSM   H11T10951   0.564   4.970   9.655  0.4440 -0.1953  0.9226
  107OSM   C12S10952   0.430   4.873   9.519  0.5154 -0.6368 -0.3991
  107OSM   H12S10953   0.378   4.965   9.485  0.8988 -0.4659 -0.5344
  107OSM   H12T10954   0.356   4.792   9.503 -2.5838  2.3760 -2.9021
  107OSM   C13S10955   0.539   4.861   9.415 -0.0448 -0.3074  0.1716
  107OSM   H13S10956   0.594   4.766   9.431 -0.5085 -0.6948 -0.4764
  107OSM   H13T10957   0.611   4.944   9.425  0.4055 -0.7622  0.7582
  107OSM   C14S10958   0.493   4.856   9.266  1.2830  0.6603 -0.7345
  107OSM   H14S10959   0.432   4.948   9.256  0.7436  0.2201 -1.5745
  107OSM   H14T10960   0.417   4.779   9.243  0.0432  2.3025 -2.3972
  107OSM   C15S10961   0.606   4.848   9.163 -0.0276  0.2956  0.3049
  107OSM   H15S10962   0.650   4.746   9.158  2.0330  1.0254  2.0615
  107OSM   H15T10963   0.685   4.923   9.185 -1.6815  1.9117  1.0483
  107OSM   C16S10964   0.563   4.895   9.025 -0.1154  0.4143  0.4707
  107OSM   H16S10965   0.513   4.994   9.028  0.0938  0.7207 -2.4685
  107OSM   H16T10966   0.492   4.818   8.986 -0.3966  1.2556 -0.7744
  107OSM   C17S10967   0.683   4.909   8.930  0.5656 -0.2871 -0.2001
  107OSM   H17S10968   0.762   4.838   8.961  2.2800  1.6492  0.0535
  107OSM   H17T10969   0.727   5.010   8.933  1.1613 -0.5733  1.0418
  107OSM   C18S10970   0.649   4.865   8.787  0.0307  0.3859  0.3353
  107OSM   H18S10971   0.738   4.865   8.722 -0.8153  1.1693 -0.8555
  107OSM   H18T10972   0.586   4.945   8.742  0.6076  0.7934  0.2467
  107OSM   H18U10973   0.616   4.758   8.788  2.5909 -0.4734  0.7250
  107OSM    C1F10974   1.034   5.123  10.408 -1.0357  0.1492 -0.4272
  107OSM     OF10975   1.102   5.042  10.469 -0.5973  0.1839  0.7199
  107OSM    C2F10976   1.090   5.198  10.290  0.2180  0.5975 -0.3262
  107OSM    H2F10977   1.078   5.308  10.305 -0.1468  0.6135 -0.7041
  107OSM    H2G10978   1.025   5.168  10.205 -1.3317 -1.1189  1.3917
  107OSM    C3F10979   1.225   5.138  10.256 -0.0595 -0.0207  0.0311
  107OSM    H3F10980   1.219   5.027  10.247 -0.0415 -0.2821  2.5139
  107OSM    H3G10981   1.296   5.148  10.340 -1.3735 -3.0030  1.6789
  107OSM    C4F10982   1.304   5.211  10.142 -0.2054  0.0274 -0.3802
  107OSM    H4F10983   1.397   5.152  10.121 -1.0107 -1.0133 -1.1567
  107OSM    H4G10984   1.339   5.308  10.183 -0.4422 -0.7540  1.8152
  107OSM    C5F10985   1.225   5.225  10.016  0.0486 -0.5574  0.3488
  107OSM    H5F10986   1.157   5.312  10.030 -0.3605 -0.3647 -2.2729
  107OSM    H5G10987   1.162   5.136   9.992 -0.4020  0.3649 -2.2292
  107OSM    C6F10988   1.321   5.251   9.899 -0.3770  0.2621 -0.6447
  107OSM    H6F10989   1.415   5.193   9.910 -0.6504 -0.6414 -2.5369
  107OSM    H6G10990   1.349   5.359   9.894 -0.3905  0.4672  2.4003
  107OSM    C7F10991   1.266   5.198   9.767 -0.0119  0.1575  0.4478
  107OSM    H7F10992   1.230   5.093   9.777 -3.5783  1.0972 -1.0605
  107OSM    H7G10993   1.342   5.187   9.686  0.3627 -0.1346  0.8316
  107OSM    C8F10994   1.149   5.279   9.712 -0.0631 -0.2496  0.2539
  107OSM    H8F10995   1.070   5.305   9.786  0.0457  0.3431  0.1684
  107OSM    H8G10996   1.089   5.220   9.641  1.5102 -2.5186  0.6983
  107OSM    C9F10997   1.214   5.404   9.652  0.6174  0.2853 -0.7257
  107OSM    H9F10998   1.269   5.465   9.726 -1.3870  1.5188 -0.1655
  107OSM   C10F10999   1.207   5.440   9.526  0.0306  0.3294  0.7200
  107OSM   H10F11000   1.257   5.533   9.496  0.1037 -0.0898 -0.5153
  107OSM   C11F11001   1.142   5.368   9.410  0.3014  0.2298  1.0778
  107OSM   H11F11002   1.031   5.371   9.420  0.1825  0.8198 -0.1897
  107OSM   H11G11003   1.172   5.261   9.403  0.2299  0.2608  0.1538
  107OSM   C12F11004   1.185   5.417   9.267  0.2779 -0.1477 -0.4997
  107OSM   H12F11005   1.295   5.413   9.254  0.4115  2.0823 -0.4661
  107OSM   H12G11006   1.163   5.526   9.260  0.0364 -0.2066 -0.6616
  107OSM   C13F11007   1.120   5.324   9.168  0.1736 -0.7826  0.2922
  107OSM   H13F11008   1.010   5.330   9.175  0.1276  0.8950 -1.1961
  107OSM   H13G11009   1.145   5.218   9.192  1.0876 -1.0546 -1.6992
  107OSM   C14F11010   1.174   5.353   9.027 -0.5431 -0.4712  0.0130
  107OSM   H14F11011   1.276   5.394   9.042 -0.9781  0.4239  0.6148
  107OSM   H14G11012   1.126   5.438   8.972  1.2787  0.3379 -0.3977
  107OSM   C15F11013   1.168   5.226   8.944  0.3422 -0.6689 -0.4636
  107OSM   H15F11014   1.060   5.200   8.954 -0.1279  1.6967  1.3663
  107OSM   H15G11015   1.228   5.145   8.992  0.0381  0.9565  2.9118
  107OSM   C16F11016   1.184   5.247   8.794 -0.7393 -0.0509 -0.6633
  107OSM   H16F11017   1.259   5.328   8.789 -1.0084  0.3658  1.2398
  107OSM   H16G11018   1.088   5.283   8.750 -0.9923 -2.1164 -1.9027
  107OSM   C17F11019   1.235   5.128   8.708  0.3636  0.5358  0.5973
  107OSM   H17F11020   1.158   5.049   8.696  1.2884 -0.4793  1.1944
  107OSM   H17G11021   1.330   5.090   8.751  1.1083 -0.1453 -1.4935
  107OSM   C18F11022   1.259   5.179   8.562  0.6947  0.5465 -0.1515
  107OSM   H18F11023   1.171   5.236   8.526 -1.3521 -2.4487 -0.2056
  107OSM   H18G11024   1.280   5.095   8.493 -2.0563  1.5768 -2.4353
  107OSM   H18H11025   1.348   5.244   8.549 -1.2221  3.7572  1.3242
  108OSM      N11026   4.284   6.595  10.706  0.1529 -0.1737  0.0461
  108OSM    C1511027   4.373   6.709  10.691  0.0044 -0.7718  0.1530
  108OSM   H15A11028   4.427   6.691  10.599  1.1738 -1.6377  0.9748
  108OSM   H15B11029   4.449   6.713  10.768  0.8089  1.8484 -0.6408
  108OSM   H15C11030   4.317   6.801  10.696  1.0200 -0.1073 -0.1981
  108OSM    C1411031   4.342   6.470  10.664 -0.1789 -1.0016  0.8639
  108OSM   H14A11032   4.431   6.458  10.724  0.8826  1.2215 -0.1623
  108OSM   H14B11033   4.375   6.487  10.562  0.0786 -3.0772  0.5388
  108OSM   H14C11034   4.278   6.385  10.686 -2.2860  0.4770  0.6910
  108OSM    C1311035   4.254   6.588  10.860 -0.6979 -1.0515  0.3813
  108OSM   H13A11036   4.200   6.674  10.895 -1.6072 -1.7765  0.8313
  108OSM   H13B11037   4.340   6.576  10.925 -2.4317 -1.1786  2.7803
  108OSM   H13C11038   4.183   6.509  10.880 -1.3591  0.0635  2.8604
  108OSM    C1211039   4.148   6.626  10.637 -0.2238 -0.0553 -0.7139
  108OSM   H12A11040   4.121   6.728  10.660  0.9481 -0.1978  1.5206
  108OSM   H12B11041   4.073   6.556  10.670  0.9662 -0.3088  1.5992
  108OSM    C1111042   4.136   6.620  10.480  0.0388 -0.0756  0.2074
  108OSM   H11A11043   4.227   6.669  10.440 -1.1748  1.6849 -0.5628
  108OSM   H11B11044   4.044   6.674  10.449  0.4168  0.8076  0.5922
  108OSM      P11045   4.024   6.383  10.436 -0.5437  0.1967 -0.0109
  108OSM    O1311046   3.921   6.428  10.531 -0.1940  0.1305  0.6684
  108OSM    O1411047   3.980   6.358  10.299  0.4011  0.2984 -0.5625
  108OSM    O1111048   4.100   6.251  10.502 -0.1229 -0.3795  0.4542
  108OSM    O1211049   4.142   6.485  10.441 -0.2071  0.1104 -0.0017
  108OSM    C1S11050   4.023   6.135  10.535 -0.1821 -0.0566  0.0800
  108OSM    H1S11051   3.913   6.145  10.544 -0.2714 -1.0222  0.2270
  108OSM    H1T11052   4.056   6.103  10.636  0.0405 -2.4370 -0.6730
  108OSM     NF11053   3.984   5.906  10.452 -0.0355  0.2134 -0.0302
  108OSM    HNF11054   4.017   5.830  10.507 -1.5266 -2.1807 -2.2574
  108OSM    C2S11055   4.067   6.020  10.433 -0.1904 -0.5251 -1.4757
  108OSM    H2S11056   4.044   6.062  10.333  0.0566  0.3947 -1.1588
  108OSM    C3S11057   4.215   5.981  10.460 -0.3853 -0.4852  0.2945
  108OSM    H3S11058   4.226   5.949  10.566  0.1321  0.1745  0.4427
  108OSM     O311059   4.309   6.091  10.454  0.0451  0.1845  0.2429
  108OSM    HO311060   4.251   6.165  10.434  1.3146  1.7623  2.0365
  108OSM    C4S11061   4.248   5.874  10.358 -0.2322 -0.5284 -0.0804
  108OSM    H4S11062   4.264   5.770  10.391  0.0811 -0.2132  0.7868
  108OSM    C5S11063   4.270   5.896  10.226  0.2695  0.2716  0.4096
  108OSM    H5S11064   4.266   6.000  10.190 -2.2322  0.1198  0.0702
  108OSM    C6S11065   4.295   5.778  10.132  0.1549  0.0834 -1.4132
  108OSM    H6S11066   4.227   5.800  10.046 -1.1462 -3.5445 -1.4689
  108OSM    H6T11067   4.268   5.681  10.177  0.8531  0.0986 -0.9495
  108OSM    C7S11068   4.444   5.764  10.098  0.4267 -0.6362  0.6965
  108OSM    H7S11069   4.513   5.756  10.185 -0.1283 -1.2051  1.0933
  108OSM    H7T11070   4.473   5.862  10.054  0.0287 -0.4744  0.7876
  108OSM    C8S11071   4.477   5.663   9.992  0.1223  0.3319  0.7686
  108OSM    H8S11072   4.451   5.559  10.020  0.0994  0.1929  0.2569
  108OSM    H8T11073   4.586   5.676   9.972 -0.0350  2.2880  1.0376
  108OSM    C9S11074   4.399   5.690   9.861  0.3426  0.3721  0.0421
  108OSM    H9S11075   4.427   5.793   9.830  0.2582  0.2806 -0.3475
  108OSM    H9T11076   4.288   5.691   9.874  0.2423  0.5085 -0.7841
  108OSM   C10S11077   4.428   5.590   9.748  0.0835  0.0367  0.3708
  108OSM   H10S11078   4.406   5.488   9.788  0.1933  0.7831  2.4548
  108OSM   H10T11079   4.539   5.594   9.740  0.0066  1.6466 -0.1307
  108OSM   C11S11080   4.361   5.629   9.619 -0.1411 -0.9038  0.4885
  108OSM   H11S11081   4.386   5.734   9.597  1.3507 -1.0378  1.4224
  108OSM   H11T11082   4.252   5.610   9.635 -0.7286  0.3863 -1.5631
  108OSM   C12S11083   4.397   5.548   9.494 -0.6817  0.6626 -0.6119
  108OSM   H12S11084   4.392   5.440   9.520 -0.7255  0.6376 -0.7275
  108OSM   H12T11085   4.503   5.573   9.471 -0.0418  0.0139  1.3681
  108OSM   C13S11086   4.305   5.584   9.371 -0.4270 -0.6908  0.0488
  108OSM   H13S11087   4.256   5.683   9.380  0.7400 -0.0914 -0.0430
  108OSM   H13T11088   4.225   5.507   9.364 -1.5713  0.1789  2.5446
  108OSM   C14S11089   4.392   5.599   9.246  0.2833  0.3886 -0.2759
  108OSM   H14S11090   4.449   5.508   9.219  0.1040  0.3634 -0.5782
  108OSM   H14T11091   4.477   5.663   9.278  2.1898 -2.0501 -0.1086
  108OSM   C15S11092   4.323   5.657   9.117 -0.2637 -0.2530 -0.2243
  108OSM   H15S11093   4.286   5.758   9.145 -1.3747 -1.3488  2.6480
  108OSM   H15T11094   4.237   5.591   9.093  0.0001  0.0989 -2.3383
  108OSM   C16S11095   4.420   5.671   8.999  0.5518  0.2592  0.0444
  108OSM   H16S11096   4.426   5.568   8.958 -0.6430 -0.7001  2.0983
  108OSM   H16T11097   4.523   5.703   9.024  0.9483 -2.5393  2.5915
  108OSM   C17S11098   4.354   5.767   8.897  0.1802  0.4003 -0.7343
  108OSM   H17S11099   4.347   5.866   8.948  1.5007  0.0784  0.1133
  108OSM   H17T11100   4.252   5.726   8.881  0.1502  0.6449 -1.1788
  108OSM   C18S11101   4.433   5.780   8.769 -0.0331  0.6572 -0.2499
  108OSM   H18S11102   4.370   5.851   8.713 -2.4009 -0.7046  0.5578
  108OSM   H18T11103   4.449   5.679   8.724  1.9071  0.4870  0.7181
  108OSM   H18U11104   4.535   5.822   8.786 -0.0066  0.5421 -0.1192
  108OSM    C1F11105   3.862   5.903  10.405 -0.5262  0.5152  0.4594
  108OSM     OF11106   3.818   5.998  10.340 -0.2120 -0.1716 -0.2971
  108OSM    C2F11107   3.785   5.777  10.427 -0.9962  0.3462 -0.6159
  108OSM    H2F11108   3.690   5.812  10.474 -0.1919  2.1442 -0.2419
  108OSM    H2G11109   3.848   5.710  10.490 -1.6795  0.1620 -0.1130
  108OSM    C3F11110   3.771   5.699  10.297  0.4113 -0.2957  0.3792
  108OSM    H3F11111   3.715   5.760  10.224 -1.0587  0.2626  1.9030
  108OSM    H3G11112   3.711   5.606  10.306 -3.2160  1.9440  1.2967
  108OSM    C4F11113   3.908   5.677  10.223  0.6652 -0.6131 -0.1867
  108OSM    H4F11114   3.981   5.644  10.300  0.2085 -1.3259 -0.0545
  108OSM    H4G11115   3.951   5.771  10.182  1.8082 -0.2599  1.7006
  108OSM    C5F11116   3.906   5.574  10.108 -0.3318  0.1762  0.4757
  108OSM    H5F11117   3.869   5.485  10.163 -0.5319  1.9682  3.4278
  108OSM    H5G11118   4.008   5.555  10.068 -0.0536  1.4659  0.5238
  108OSM    C6F11119   3.810   5.604   9.997 -0.1411  0.2206 -0.4679
  108OSM    H6F11120   3.828   5.712   9.977  4.8854 -0.4342 -0.6787
  108OSM    H6G11121   3.703   5.585  10.020  0.2574 -1.2453  0.3029
  108OSM    C7F11122   3.845   5.515   9.882 -0.1545  0.2726 -0.8258
  108OSM    H7F11123   3.837   5.405   9.897  3.8660  0.1336  1.8625
  108OSM    H7G11124   3.954   5.515   9.863  0.6017 -0.8498  2.8504
  108OSM    C8F11125   3.761   5.558   9.761 -0.4574 -0.2461 -0.1799
  108OSM    H8F11126   3.659   5.577   9.801  0.4425  2.4182  1.0765
  108OSM    H8G11127   3.765   5.469   9.694 -1.4251  0.7035 -1.5811
  108OSM    C9F11128   3.805   5.688   9.705 -0.2816  0.1020 -0.1586
  108OSM    H9F11129   3.797   5.773   9.774 -0.4955 -0.5426  0.6290
  108OSM   C10F11130   3.864   5.713   9.585 -0.1353  0.7442  0.0462
  108OSM   H10F11131   3.890   5.818   9.564  1.9480  0.4617  1.0212
  108OSM   C11F11132   3.890   5.618   9.476 -0.5863  0.1958  0.5111
  108OSM   H11F11133   3.805   5.548   9.474 -2.2814  2.1801 -0.0867
  108OSM   H11G11134   3.987   5.569   9.502 -1.9976 -2.3511  1.2557
  108OSM   C12F11135   3.907   5.698   9.344 -0.3775 -0.8928  0.0575
  108OSM   H12F11136   4.010   5.738   9.340 -0.6070 -0.3405 -0.5102
  108OSM   H12G11137   3.842   5.788   9.340 -0.4051 -0.9469 -1.0134
  108OSM   C13F11138   3.878   5.622   9.213  0.3613  0.5361 -0.0370
  108OSM   H13F11139   3.783   5.566   9.228  1.6461 -2.0436 -0.9991
  108OSM   H13G11140   3.960   5.550   9.193 -1.6233 -1.6359 -0.8541
  108OSM   C14F11141   3.857   5.713   9.089 -0.2742 -0.1626  0.1234
  108OSM   H14F11142   3.951   5.765   9.062  0.7380 -1.3496  1.1896
  108OSM   H14G11143   3.779   5.785   9.121  2.2944  2.6438  0.5367
  108OSM   C15F11144   3.813   5.636   8.953  0.6186  0.3323  0.1370
  108OSM   H15F11145   3.720   5.586   8.988 -1.1353  2.0113 -1.8829
  108OSM   H15G11146   3.883   5.549   8.943 -0.7692 -0.6437 -1.6643
  108OSM   C16F11147   3.799   5.733   8.835  0.0276  0.1576 -0.0259
  108OSM   H16F11148   3.767   5.827   8.885  0.1622 -0.7299  1.8062
  108OSM   H16G11149   3.715   5.705   8.767 -2.3622  4.2730  0.8810
  108OSM   C17F11150   3.930   5.768   8.765 -0.2036 -0.3165 -0.4238
  108OSM   H17F11151   3.965   5.695   8.689 -0.6695  1.1945 -2.1716
  108OSM   H17G11152   4.011   5.769   8.841 -0.1092  0.6871 -0.5208
  108OSM   C18F11153   3.933   5.905   8.689 -0.3671  0.3109 -0.6995
  108OSM   H18F11154   3.867   5.891   8.601 -0.8666 -3.4382  0.0954
  108OSM   H18G11155   4.039   5.924   8.661  0.2758 -1.5048  0.3752
  108OSM   H18H11156   3.882   5.975   8.759 -1.9054 -2.3296  0.9857
  109OSM      N11157   2.251   3.912  11.048  0.0213  0.2189 -0.3429
  109OSM    C1511158   2.275   4.047  11.094 -0.4769 -0.5388 -0.5411
  109OSM   H15A11159   2.199   4.103  11.040 -2.1908 -2.9552 -0.7638
  109OSM   H15B11160   2.375   4.080  11.070 -0.2807 -1.1143 -0.5144
  109OSM   H15C11161   2.242   4.058  11.196  1.5948  0.0297  0.1134
  109OSM    C1411162   2.358   3.824  11.109 -0.7025  0.2467  0.3706
  109OSM   H14A11163   2.366   3.723  11.072 -0.7001 -0.4235  2.0891
  109OSM   H14B11164   2.328   3.802  11.211  0.2602  0.0627  0.6240
  109OSM   H14C11165   2.457   3.867  11.111 -0.9470  0.8113  0.6563
  109OSM    C1311166   2.123   3.861  11.097 -0.2494 -0.7375  0.4687
  109OSM   H13A11167   2.045   3.926  11.059  1.5497  0.6286 -1.0925
  109OSM   H13B11168   2.111   3.855  11.205  1.7824 -2.0071  0.6725
  109OSM   H13C11169   2.095   3.763  11.062  1.2234 -0.8911 -0.3295
  109OSM    C1211170   2.252   3.918  10.895 -0.6923 -0.1807  0.0010
  109OSM   H12A11171   2.271   3.821  10.852 -0.1019  0.6519 -1.7213
  109OSM   H12B11172   2.338   3.977  10.868 -0.2175 -0.8748 -0.0262
  109OSM    C1111173   2.124   3.953  10.820 -0.0594  0.3249 -0.4096
  109OSM   H11A11174   2.056   3.867  10.835  0.9607 -0.2014  1.5322
  109OSM   H11B11175   2.158   3.952  10.714  0.0523 -2.4783 -0.4232
  109OSM      P11176   1.916   4.108  10.815  0.6292  0.3347 -0.0564
  109OSM    O1311177   1.820   4.002  10.863 -0.1966  0.6283  0.1423
  109OSM    O1411178   1.883   4.245  10.856 -0.0214  0.1811  0.4753
  109OSM    O1111179   1.914   4.101  10.657  0.9500  0.6101  0.5122
  109OSM    O1211180   2.067   4.074  10.854  0.3604 -0.0737  0.1579
  109OSM    C1S11181   2.018   4.128  10.575 -0.5984 -0.4544  1.3223
  109OSM    H1S11182   2.056   4.029  10.542 -2.1948 -0.9818  1.0176
  109OSM    H1T11183   2.107   4.171  10.626  0.8320  0.7984 -1.9336
  109OSM     NF11184   2.084   4.182  10.342  0.2053  0.4713 -0.3037
  109OSM    HNF11185   2.152   4.254  10.335 -0.2137  1.1021  1.5968
  109OSM    C2S11186   1.976   4.197  10.440 -0.3508  0.2020 -0.1380
  109OSM    H2S11187   1.891   4.144  10.392  0.6386  0.2246 -2.0077
  109OSM    C3S11188   1.943   4.347  10.462  0.4635  0.8147 -0.0310
  109OSM    H3S11189   2.045   4.390  10.475  2.3852 -3.3173  0.5452
  109OSM     O311190   1.866   4.364  10.579 -0.2744 -0.0270 -0.2318
  109OSM    HO311191   1.885   4.286  10.632  2.2600  1.5479  1.4229
  109OSM    C4S11192   1.867   4.411  10.351  0.1294 -0.2881  0.1677
  109OSM    H4S11193   1.769   4.365  10.334 -0.4144  0.6023  0.8083
  109OSM    C5S11194   1.910   4.504  10.268 -0.6819  0.6829 -0.1321
  109OSM    H5S11195   2.011   4.543  10.286  0.2726 -2.5917  2.5896
  109OSM    C6S11196   1.836   4.571  10.156  0.5471 -0.2189  0.4207
  109OSM    H6S11197   1.895   4.657  10.117 -1.1025  0.4854 -0.6662
  109OSM    H6T11198   1.743   4.613  10.200  0.2751  1.2860 -1.4289
  109OSM    C7S11199   1.799   4.475  10.037 -1.0065 -0.5412  0.2015
  109OSM    H7S11200   1.761   4.528   9.947 -1.8909 -0.7150  0.4566
  109OSM    H7T11201   1.725   4.402  10.079  0.0097 -0.6299  1.9329
  109OSM    C8S11202   1.916   4.386   9.985  0.2263 -0.3646 -0.5022
  109OSM    H8S11203   1.951   4.317  10.064  0.7599  2.2180  1.6705
  109OSM    H8T11204   2.001   4.455   9.967  1.3641 -1.1070  1.6118
  109OSM    C9S11205   1.870   4.319   9.855  0.0979  0.0139  0.1258
  109OSM    H9S11206   1.866   4.402   9.781 -0.0331  0.2076  0.3512
  109OSM    H9T11207   1.772   4.269   9.871  1.2443 -2.0247  1.1553
  109OSM   C10S11208   1.984   4.222   9.796 -0.4359 -0.3266  0.2396
  109OSM   H10S11209   2.031   4.177   9.886  3.1155 -0.8428 -1.7066
  109OSM   H10T11210   2.058   4.289   9.749  0.1428 -1.9718 -1.3270
  109OSM   C11S11211   1.933   4.111   9.703 -0.7623  0.0541 -0.1667
  109OSM   H11S11212   1.860   4.055   9.765  0.6447 -0.2912  1.2541
  109OSM   H11T11213   2.018   4.047   9.668  0.7723  2.2363 -0.6403
  109OSM   C12S11214   1.884   4.187   9.581  0.3660  0.1473 -0.7166
  109OSM   H12S11215   1.962   4.257   9.546 -0.3913  1.8982  0.9316
  109OSM   H12T11216   1.791   4.244   9.604 -1.6315 -2.3376 -1.9798
  109OSM   C13S11217   1.839   4.106   9.456  0.0042  0.1667 -0.5242
  109OSM   H13S11218   1.728   4.106   9.466 -0.0029 -1.0575 -0.4782
  109OSM   H13T11219   1.886   4.005   9.457 -0.2085  0.0521 -1.6701
  109OSM   C14S11220   1.875   4.176   9.319 -0.5234  0.4335 -0.6198
  109OSM   H14S11221   1.984   4.187   9.301  0.0783 -1.9400  1.0067
  109OSM   H14T11222   1.835   4.279   9.332 -3.1546 -0.5763 -0.1897
  109OSM   C15S11223   1.803   4.108   9.205 -0.1914  0.4051  0.7088
  109OSM   H15S11224   1.693   4.099   9.217 -0.3355 -0.8352 -1.0831
  109OSM   H15T11225   1.849   4.008   9.192 -0.4145  0.4680 -0.7073
  109OSM   C16S11226   1.824   4.183   9.067  0.7015  0.7976  0.6448
  109OSM   H16S11227   1.934   4.196   9.055  0.5528  0.6200 -1.3298
  109OSM   H16T11228   1.774   4.282   9.067 -1.1980 -0.1050  0.3148
  109OSM   C17S11229   1.768   4.108   8.943 -0.4370 -0.1075  0.4286
  109OSM   H17S11230   1.658   4.104   8.952 -0.5024 -2.3211 -0.6626
  109OSM   H17T11231   1.816   4.008   8.948 -0.8259 -0.3106  0.0841
  109OSM   C18S11232   1.805   4.170   8.807  0.5549 -0.5728 -0.3995
  109OSM   H18S11233   1.737   4.129   8.729 -1.2234 -1.6126  1.6146
  109OSM   H18T11234   1.911   4.155   8.778  1.1690  2.7281 -0.2118
  109OSM   H18U11235   1.781   4.277   8.821  1.7041 -0.2390 -0.8432
  109OSM    C1F11236   2.096   4.067  10.275  0.2621 -0.5133 -0.3898
  109OSM     OF11237   2.041   3.965  10.313 -0.1315 -0.5467 -0.2049
  109OSM    C2F11238   2.181   4.069  10.156 -0.3236 -0.7829 -0.6323
  109OSM    H2F11239   2.285   4.034  10.174  0.0370  0.0897 -0.9529
  109OSM    H2G11240   2.195   4.170  10.113  0.2911 -0.3895  0.4452
  109OSM    C3F11241   2.136   3.963  10.051 -0.1538  0.0047  0.7790
  109OSM    H3F11242   2.028   3.973  10.024  0.2826 -1.1535 -1.6503
  109OSM    H3G11243   2.136   3.869  10.110  0.4129 -0.2899  0.3152
  109OSM    C4F11244   2.214   3.957   9.925 -0.5882  0.1799 -0.3911
  109OSM    H4F11245   2.324   3.941   9.934 -0.4213  0.3473 -1.7958
  109OSM    H4G11246   2.208   4.051   9.865  3.3018 -0.2246 -1.7602
  109OSM    C5F11247   2.170   3.848   9.831 -0.4009 -0.2918  0.6129
  109OSM    H5F11248   2.062   3.852   9.803 -0.1898 -0.1160 -0.1857
  109OSM    H5G11249   2.171   3.756   9.894 -2.1163 -0.2709  0.7270
  109OSM    C6F11250   2.264   3.836   9.706  0.3795 -0.0069 -0.1012
  109OSM    H6F11251   2.370   3.826   9.740 -0.1068  0.2904  1.5735
  109OSM    H6G11252   2.255   3.925   9.640 -1.7184  1.0838  1.5625
  109OSM    C7F11253   2.224   3.718   9.615 -1.0807 -0.1332  0.8659
  109OSM    H7F11254   2.119   3.733   9.581 -0.2249  2.6403 -0.9200
  109OSM    H7G11255   2.230   3.626   9.677  2.2298 -0.5700  0.0778
  109OSM    C8F11256   2.295   3.706   9.475  0.7971  0.0472 -0.3666
  109OSM    H8F11257   2.286   3.799   9.416  1.3649 -0.6358 -1.5496
  109OSM    H8G11258   2.244   3.623   9.422  1.5981 -0.7534  0.0840
  109OSM    C9F11259   2.439   3.682   9.475 -0.2550 -0.3560  0.5027
  109OSM    H9F11260   2.499   3.767   9.511 -0.0391 -0.9679  1.6367
  109OSM   C10F11261   2.511   3.569   9.451  0.3702 -0.3891 -0.2974
  109OSM   H10F11262   2.620   3.575   9.464  0.5511 -1.2981 -1.2253
  109OSM   C11F11263   2.444   3.436   9.407 -0.4581 -0.1842  0.6744
  109OSM   H11F11264   2.334   3.442   9.392 -0.3084  1.9664  0.0826
  109OSM   H11G11265   2.476   3.346   9.463 -1.3998 -2.2195 -1.8495
  109OSM   C12F11266   2.493   3.403   9.261  0.0599 -1.0427 -0.4694
  109OSM   H12F11267   2.467   3.299   9.232  1.5260 -1.4812 -0.2896
  109OSM   H12G11268   2.603   3.418   9.268 -0.0336 -0.6139  0.1340
  109OSM   C13F11269   2.450   3.498   9.154 -0.5870 -0.3532  0.4867
  109OSM   H13F11270   2.458   3.602   9.191  0.5514 -0.2274 -0.0567
  109OSM   H13G11271   2.341   3.488   9.140 -0.5463  0.3026 -0.3351
  109OSM   C14F11272   2.523   3.475   9.023  0.0353 -0.4730 -0.0173
  109OSM   H14F11273   2.523   3.367   8.997  1.1160 -0.1965 -1.2817
  109OSM   H14G11274   2.630   3.499   9.041  0.3283 -1.2954 -0.6301
  109OSM   C15F11275   2.484   3.568   8.899 -0.4613  0.3580  0.2374
  109OSM   H15F11276   2.379   3.544   8.873 -0.4499  0.3366  0.2108
  109OSM   H15G11277   2.543   3.542   8.809 -2.2231  1.8006 -1.4463
  109OSM   C16F11278   2.494   3.722   8.926 -0.9121 -0.3773 -0.6602
  109OSM   H16F11279   2.440   3.761   9.015 -0.2180 -0.6633 -0.1049
  109OSM   H16G11280   2.451   3.770   8.836 -0.6939 -2.1310 -1.7494
  109OSM   C17F11281   2.644   3.771   8.940  0.1128  1.1393  0.3049
  109OSM   H17F11282   2.683   3.712   9.025 -0.1596  0.0542 -0.3063
  109OSM   H17G11283   2.627   3.879   8.963  1.1670  1.6877 -1.2896
  109OSM   C18F11284   2.721   3.751   8.808  0.4895 -0.3977  0.5878
  109OSM   H18F11285   2.738   3.647   8.775 -2.1725 -0.8129  0.2656
  109OSM   H18G11286   2.819   3.802   8.811  0.8277 -1.0636  1.5281
  109OSM   H18H11287   2.653   3.804   8.738 -1.0634  0.1348  2.3882
  110OSM      N11288   4.293   2.663  11.163 -0.8086  0.4150  0.1353
  110OSM    C1511289   4.372   2.788  11.184  0.2670  0.0488 -0.4389
  110OSM   H15A11290   4.358   2.833  11.281 -1.7094  1.8820 -1.4970
  110OSM   H15B11291   4.328   2.854  11.111 -1.8666  0.5114  1.1613
  110OSM   H15C11292   4.475   2.773  11.154  0.1882  0.8092 -1.1124
  110OSM    C1411293   4.333   2.566  11.261  0.5870  0.2090  0.0869
  110OSM   H14A11294   4.439   2.550  11.266  0.5418  0.1231  0.9898
  110OSM   H14B11295   4.287   2.474  11.228  0.7238  0.5260 -1.0306
  110OSM   H14C11296   4.320   2.586  11.366  2.0800  0.5140  0.2307
  110OSM    C1311297   4.151   2.711  11.177 -0.6500  0.7023 -0.1118
  110OSM   H13A11298   4.138   2.785  11.099  1.8976  1.6971  0.3012
  110OSM   H13B11299   4.133   2.745  11.279  0.4723  0.0811  0.3140
  110OSM   H13C11300   4.083   2.628  11.170  0.5237 -0.3026  0.1536
  110OSM    C1211301   4.313   2.604  11.022  0.4503 -0.6979 -0.0483
  110OSM   H12A11302   4.246   2.520  11.015 -0.4246 -0.0120  0.0151
  110OSM   H12B11303   4.416   2.572  11.012  1.2915  1.2588  1.5747
  110OSM    C1111304   4.281   2.695  10.897 -0.2430  0.4490  0.1874
  110OSM   H11A11305   4.290   2.619  10.817  2.9672 -1.8040  2.4197
  110OSM   H11B11306   4.371   2.756  10.874  0.5645 -1.7140 -3.0058
  110OSM      P11307   4.115   2.881  10.821 -0.1571  0.2516 -0.4207
  110OSM    O1311308   3.982   2.924  10.876 -0.1473  0.0923 -0.4843
  110OSM    O1411309   4.229   2.978  10.817  0.1615 -0.3119  0.1103
  110OSM    O1111310   4.085   2.831  10.673  0.5555 -0.3904 -0.1952
  110OSM    O1211311   4.153   2.751  10.901  0.1920  0.2219  0.4574
  110OSM    C1S11312   4.063   2.695  10.637  0.0237  0.8762 -0.5620
  110OSM    H1S11313   3.962   2.675  10.678  0.7262  1.1979  1.4576
  110OSM    H1T11314   4.132   2.624  10.687 -0.9609  0.0901 -0.2908
  110OSM     NF11315   4.019   2.549  10.451  0.4959  0.2727 -0.1953
  110OSM    HNF11316   4.075   2.475  10.415  1.2691  0.7299  0.0471
  110OSM    C2S11317   4.076   2.676  10.487 -0.0320 -0.1250  0.5744
  110OSM    H2S11318   4.025   2.748  10.420  4.1388  1.3991 -1.3430
  110OSM    C3S11319   4.228   2.697  10.445 -0.5391 -0.3182 -0.6799
  110OSM    H3S11320   4.291   2.614  10.482  1.4285  0.7313 -1.5623
  110OSM     O311321   4.290   2.819  10.487 -0.1641 -0.0646  0.8579
  110OSM    HO311322   4.227   2.854  10.550  0.5883  0.2901  1.4307
  110OSM    C4S11323   4.242   2.679  10.293  0.3369 -0.4965 -0.5150
  110OSM    H4S11324   4.238   2.575  10.259 -1.1612  0.1264 -2.3996
  110OSM    C5S11325   4.262   2.778  10.195  0.1805 -0.1739  0.3157
  110OSM    H5S11326   4.271   2.883  10.227  0.3398  0.4731 -1.7232
  110OSM    C6S11327   4.266   2.762  10.045  0.1300  0.1243 -0.0532
  110OSM    H6S11328   4.315   2.670  10.007 -1.0671 -1.1329  1.3347
  110OSM    H6T11329   4.299   2.851   9.987  0.4964 -0.6989 -1.1354
  110OSM    C7S11330   4.115   2.751   9.995  0.1366 -0.3853 -0.0234
  110OSM    H7S11331   4.065   2.848  10.015  2.2438  0.7268  0.1652
  110OSM    H7T11332   4.061   2.673  10.053  0.6866 -2.2242 -1.8819
  110OSM    C8S11333   4.100   2.717   9.846  0.4811 -0.5276  0.9492
  110OSM    H8S11334   3.993   2.703   9.818  0.9104  0.3681 -1.3715
  110OSM    H8T11335   4.139   2.613   9.844  1.4276 -0.1975  1.5061
  110OSM    C9S11336   4.161   2.804   9.733 -0.2057  1.1350 -0.1128
  110OSM    H9S11337   4.147   2.744   9.640  2.6692 -1.3843  0.9190
  110OSM    H9T11338   4.269   2.828   9.747 -0.3448  1.0488  1.2657
  110OSM   C10S11339   4.100   2.943   9.716 -0.3053  0.1433  0.1630
  110OSM   H10S11340   4.141   2.998   9.803  1.0870  0.1912 -0.4913
  110OSM   H10T11341   3.990   2.942   9.729 -0.1697 -0.9176  1.5373
  110OSM   C11S11342   4.139   3.024   9.596 -0.1963  0.3668  0.3992
  110OSM   H11S11343   4.247   3.049   9.606 -0.0553  0.0743 -0.3111
  110OSM   H11T11344   4.074   3.114   9.595 -1.0578 -0.2399  0.6446
  110OSM   C12S11345   4.144   2.946   9.458 -0.1777 -0.3081  0.5866
  110OSM   H12S11346   4.044   2.904   9.432 -0.7159  2.9030 -3.7537
  110OSM   H12T11347   4.224   2.870   9.466 -1.2940 -1.5627  0.2371
  110OSM   C13S11348   4.187   3.033   9.337 -0.0634 -0.2957  0.2574
  110OSM   H13S11349   4.282   3.086   9.360  0.7358 -0.9932 -1.3066
  110OSM   H13T11350   4.095   3.096   9.327 -0.1192 -0.5173 -0.7491
  110OSM   C14S11351   4.215   2.957   9.204 -0.0926  0.2431 -0.0405
  110OSM   H14S11352   4.300   2.887   9.213 -0.3113 -0.0142  0.0326
  110OSM   H14T11353   4.229   3.045   9.138 -1.6585  1.6892  1.4309
  110OSM   C15S11354   4.100   2.865   9.154  0.3850 -0.0215 -0.0926
  110OSM   H15S11355   4.004   2.921   9.162  0.5211  0.8065 -3.0962
  110OSM   H15T11356   4.102   2.772   9.214  1.1580  0.5878  0.8660
  110OSM   C16S11357   4.119   2.841   9.006  0.0844 -0.5977 -0.2854
  110OSM   H16S11358   4.216   2.788   8.993  0.2244  0.1572 -3.1075
  110OSM   H16T11359   4.132   2.942   8.960  1.7997 -0.3880  0.5447
  110OSM   C17S11360   4.003   2.765   8.947 -0.4793 -0.1854  0.3159
  110OSM   H17S11361   3.911   2.827   8.942  0.0690  0.7072  0.9280
  110OSM   H17T11362   3.973   2.676   9.005 -0.8538 -2.2196 -2.7705
  110OSM   C18S11363   4.034   2.717   8.804 -0.1725 -0.0242 -0.3862
  110OSM   H18S11364   3.939   2.681   8.760 -2.7987  2.4087  2.8308
  110OSM   H18T11365   4.112   2.638   8.799  1.2110  1.1996  0.6456
  110OSM   H18U11366   4.064   2.804   8.740  0.7473 -0.5304 -0.6716
  110OSM    C1F11367   3.887   2.527  10.464 -0.5680  0.7528  0.1732
  110OSM     OF11368   3.813   2.620  10.476  0.8517  0.0231  0.1287
  110OSM    C2F11369   3.837   2.383  10.452  0.1895  0.2721 -0.3443
  110OSM    H2F11370   3.822   2.335  10.551  0.9442  1.6596  0.4895
  110OSM    H2G11371   3.917   2.324  10.403  1.7940  0.9935  1.2732
  110OSM    C3F11372   3.695   2.364  10.373  0.0507  0.1531 -0.0786
  110OSM    H3F11373   3.616   2.427  10.419 -0.7462 -0.8979  0.0127
  110OSM    H3G11374   3.660   2.259  10.373 -0.5541  0.3464  0.6247
  110OSM    C4F11375   3.714   2.408  10.230 -0.0949  0.2824 -0.2125
  110OSM    H4F11376   3.770   2.504  10.220 -0.1411  0.3066 -0.2332
  110OSM    H4G11377   3.612   2.428  10.192 -0.4586  3.9953  2.2132
  110OSM    C5F11378   3.792   2.307  10.144 -0.3723  0.1630  0.6501
  110OSM    H5F11379   3.763   2.203  10.171  1.8789 -1.0782 -1.3189
  110OSM    H5G11380   3.899   2.300  10.171 -0.0589 -1.7864 -0.9036
  110OSM    C6F11381   3.781   2.313   9.991  0.5100  0.2884 -0.7242
  110OSM    H6F11382   3.671   2.317   9.973  0.4881  0.4047 -0.5637
  110OSM    H6G11383   3.808   2.213   9.952 -0.2502 -0.6027  0.9567
  110OSM    C7F11384   3.855   2.428   9.921  0.2224 -0.2429 -0.0132
  110OSM    H7F11385   3.965   2.432   9.940  0.8911  1.2921 -3.4218
  110OSM    H7G11386   3.811   2.525   9.954 -0.1190  0.4478 -2.3246
  110OSM    C8F11387   3.824   2.429   9.764  0.1462 -0.0099 -0.4354
  110OSM    H8F11388   3.855   2.531   9.733 -0.1270  0.8138  1.8826
  110OSM    H8G11389   3.718   2.405   9.745  0.0156 -1.3772  1.6834
  110OSM    C9F11390   3.915   2.324   9.712 -0.3573  0.0580  0.4630
  110OSM    H9F11391   3.899   2.220   9.743 -2.4456  0.1049 -0.3096
  110OSM   C10F11392   4.023   2.342   9.633 -0.3709 -0.2318  0.0421
  110OSM   H10F11393   4.073   2.250   9.601 -0.3076  0.3295 -1.5839
  110OSM   C11F11394   4.078   2.469   9.569 -0.6889 -0.4617 -0.3081
  110OSM   H11F11395   4.166   2.509   9.623  0.6388 -0.8748 -2.0852
  110OSM   H11G11396   3.994   2.542   9.573 -0.2786  0.0079 -0.2159
  110OSM   C12F11397   4.119   2.448   9.420 -0.0474  0.0363 -0.5172
  110OSM   H12F11398   4.147   2.553   9.394  0.1121  0.5295  1.4532
  110OSM   H12G11399   4.030   2.415   9.363 -0.9247  0.4399  0.5728
  110OSM   C13F11400   4.228   2.343   9.392  0.2399  0.1931  0.2509
  110OSM   H13F11401   4.204   2.237   9.413  1.5234 -0.2447 -0.3964
  110OSM   H13G11402   4.314   2.375   9.455 -1.5091  0.3841  2.6788
  110OSM   C14F11403   4.279   2.351   9.246  0.1794 -0.0820  0.1194
  110OSM   H14F11404   4.344   2.264   9.223 -0.2243  0.3009 -2.8583
  110OSM   H14G11405   4.349   2.437   9.242 -0.0390  0.1776  1.4708
  110OSM   C15F11406   4.173   2.361   9.142  0.4033  0.1944  0.8473
  110OSM   H15F11407   4.118   2.456   9.159  0.6440  0.6542 -0.7854
  110OSM   H15G11408   4.103   2.275   9.147  0.8517 -0.3447 -1.1437
  110OSM   C16F11409   4.241   2.375   9.003  0.5516 -0.2680 -0.5909
  110OSM   H16F11410   4.327   2.446   9.006  0.5372 -0.2261 -1.1731
  110OSM   H16G11411   4.166   2.412   8.930 -0.1176  0.0027  0.2180
  110OSM   C17F11412   4.292   2.242   8.953 -0.1254 -0.0935  0.1352
  110OSM   H17F11413   4.198   2.186   8.930  0.2557 -0.5476 -0.3477
  110OSM   H17G11414   4.343   2.186   9.034  2.7197  2.4452  0.2427
  110OSM   C18F11415   4.357   2.241   8.816  0.0833 -0.1681  0.3433
  110OSM   H18F11416   4.447   2.303   8.797  0.2625 -0.8404 -1.1557
  110OSM   H18G11417   4.283   2.269   8.738 -0.2935  0.3731  0.8815
  110OSM   H18H11418   4.402   2.144   8.786  3.7268  1.6349 -0.5019
  111OSM      N11419   5.019   1.279  10.527  0.4502 -0.5360  0.0918
  111OSM    C1511420   5.099   1.250  10.647 -0.4777  0.7174 -0.6101
  111OSM   H15A11421   5.049   1.277  10.739  2.0117 -0.7974  1.3151
  111OSM   H15B11422   5.194   1.301  10.649 -0.1763  0.1932  2.4036
  111OSM   H15C11423   5.121   1.144  10.651  1.6538  1.1652  0.6701
  111OSM    C1411424   5.001   1.428  10.529 -0.0642 -0.1648  0.7131
  111OSM   H14A11425   4.921   1.447  10.599  0.3582  1.0184  0.8996
  111OSM   H14B11426   4.980   1.467  10.430  0.2100 -1.2781  0.2020
  111OSM   H14C11427   5.084   1.482  10.571 -1.2285  2.2697  0.0329
  111OSM    C1311428   5.105   1.239  10.409 -0.0874 -0.3935  0.7743
  111OSM   H13A11429   5.123   1.132  10.405 -2.2217 -0.7933  0.0264
  111OSM   H13B11430   5.202   1.285  10.408 -0.4982  0.5287 -1.1430
  111OSM   H13C11431   5.053   1.270  10.319 -0.7476  0.6545  1.4951
  111OSM    C1211432   4.883   1.208  10.512  0.5024  0.1987  0.1493
  111OSM   H12A11433   4.901   1.102  10.518 -0.9488 -0.0135  1.0994
  111OSM   H12B11434   4.843   1.233  10.415 -0.6375  1.5788  0.9348
  111OSM    C1111435   4.766   1.255  10.610  0.1132  0.1574  0.9640
  111OSM   H11A11436   4.803   1.282  10.711  0.9325  1.7848  0.2663
  111OSM   H11B11437   4.680   1.185  10.610 -0.3294  0.4105 -3.5066
  111OSM      P11438   4.610   1.472  10.618  0.0863 -0.3367  0.1029
  111OSM    O1311439   4.612   1.438  10.762  0.2784 -0.5344  0.8190
  111OSM    O1411440   4.625   1.611  10.574 -0.3584  0.5111 -0.0081
  111OSM    O1111441   4.471   1.423  10.560 -0.6947  0.5777  0.0159
  111OSM    O1211442   4.713   1.371  10.548 -0.2362 -0.5730  0.0068
  111OSM    C1S11443   4.426   1.450  10.422  0.2556 -0.1602 -0.1482
  111OSM    H1S11444   4.494   1.520  10.369  1.3751 -1.3501 -0.3400
  111OSM    H1T11445   4.325   1.495  10.431  0.5641  0.1824  2.2706
  111OSM     NF11446   4.365   1.368  10.203  0.7746  0.3475  0.2417
  111OSM    HNF11447   4.268   1.350  10.189  0.6557 -0.3649  1.8262
  111OSM    C2S11448   4.405   1.325  10.335  0.6177  0.4802  0.3726
  111OSM    H2S11449   4.501   1.268  10.334  0.2613 -0.1202 -0.3866
  111OSM    C3S11450   4.299   1.228  10.402  0.9698  0.2171  0.3909
  111OSM    H3S11451   4.203   1.282  10.421 -0.1003 -1.7687  0.9689
  111OSM     O311452   4.327   1.177  10.537  0.1836  0.5747 -0.0007
  111OSM    HO311453   4.393   1.235  10.576 -0.0904  0.6398  0.3715
  111OSM    C4S11454   4.276   1.113  10.311  0.4615  0.2871  0.5551
  111OSM    H4S11455   4.365   1.058  10.279 -0.0258  0.2951 -0.8959
  111OSM    C5S11456   4.155   1.088  10.254 -0.1978  0.5340  0.8562
  111OSM    H5S11457   4.070   1.148  10.289 -0.7506 -0.2866  0.9404
  111OSM    C6S11458   4.125   0.970  10.152  0.5324  0.1758 -0.2656
  111OSM    H6S11459   4.054   1.016  10.080  0.1971  2.2825  1.3361
  111OSM    H6T11460   4.071   0.894  10.212 -0.5626  0.2837 -1.0844
  111OSM    C7S11461   4.249   0.906  10.089 -0.3984 -0.4584 -0.4667
  111OSM    H7S11462   4.297   0.839  10.163 -3.1363 -1.1451  0.8195
  111OSM    H7T11463   4.319   0.988  10.060 -0.9675  0.8727  1.6815
  111OSM    C8S11464   4.222   0.831   9.964 -0.4955 -0.5909 -0.2751
  111OSM    H8S11465   4.206   0.727  10.000  0.7027 -0.6100  0.2610
  111OSM    H8T11466   4.321   0.813   9.917  2.4595  2.6908  3.9167
  111OSM    C9S11467   4.121   0.891   9.874 -0.2537  0.5360  0.1414
  111OSM    H9S11468   4.111   1.002   9.879 -1.1034  0.4090  2.4327
  111OSM    H9T11469   4.022   0.846   9.895  1.5303 -2.5093  3.0220
  111OSM   C10S11470   4.161   0.848   9.725  0.2813  0.2144  0.7857
  111OSM   H10S11471   4.163   0.737   9.727 -0.7647 -0.0323  6.7056
  111OSM   H10T11472   4.264   0.876   9.695  0.6898 -2.2225 -0.3403
  111OSM   C11S11473   4.053   0.900   9.625 -0.4566 -0.7697  0.0865
  111OSM   H11S11474   4.077   1.009   9.626  0.5460 -0.9821  1.3459
  111OSM   H11T11475   3.954   0.889   9.673  0.1650  0.2463  1.6894
  111OSM   C12S11476   4.039   0.844   9.493  0.4554 -0.4135  0.6039
  111OSM   H12S11477   4.139   0.831   9.445  1.5481  0.5395  2.4909
  111OSM   H12T11478   3.980   0.909   9.424 -1.1068 -2.3805  0.0038
  111OSM   C13S11479   3.952   0.717   9.498 -0.2966  0.0704 -1.1539
  111OSM   H13S11480   3.849   0.759   9.503  0.2712  1.3778  0.6103
  111OSM   H13T11481   3.960   0.665   9.596 -0.7701  1.1924 -0.5001
  111OSM   C14S11482   3.958   0.621   9.379  0.0204 -0.3762 -0.1694
  111OSM   H14S11483   3.918   0.528   9.425 -2.9713  0.8453 -0.1097
  111OSM   H14T11484   4.064   0.602   9.351  0.5724 -1.2599  2.2583
  111OSM   C15S11485   3.866   0.654   9.265  0.1234 -0.4656  0.7304
  111OSM   H15S11486   3.888   0.758   9.233  1.7184 -0.9258  0.2418
  111OSM   H15T11487   3.761   0.642   9.300  0.0347 -2.6099 -0.1027
  111OSM   C16S11488   3.877   0.556   9.145 -0.2485 -0.0557  0.2719
  111OSM   H16S11489   3.801   0.589   9.071  0.3277 -0.3870 -0.4800
  111OSM   H16T11490   3.858   0.450   9.172  2.0162 -0.2687  1.2901
  111OSM   C17S11491   4.009   0.576   9.066  0.3792  0.1508  0.5451
  111OSM   H17S11492   4.100   0.537   9.116  1.0939 -1.7702 -2.0457
  111OSM   H17T11493   4.027   0.684   9.044  0.4131 -0.1041 -0.7006
  111OSM   C18S11494   4.006   0.513   8.925 -0.4621 -1.2080  0.0691
  111OSM   H18S11495   4.078   0.563   8.857 -1.6206 -0.6350 -0.7595
  111OSM   H18T11496   3.912   0.533   8.869  0.9787  1.5386 -1.6203
  111OSM   H18U11497   4.040   0.408   8.932 -1.6490 -1.5206  1.6960
  111OSM    C1F11498   4.450   1.439  10.119  0.1911  0.4182 -0.0705
  111OSM     OF11499   4.567   1.450  10.146 -0.6921  0.4789 -0.1074
  111OSM    C2F11500   4.395   1.485   9.987 -0.2873  0.3482 -0.1837
  111OSM    H2F11501   4.408   1.595   9.977  1.3339  0.2021  0.0417
  111OSM    H2G11502   4.286   1.466   9.974 -0.1360  0.7396 -2.3665
  111OSM    C3F11503   4.476   1.416   9.867 -0.1641 -0.4711  0.1848
  111OSM    H3F11504   4.453   1.308   9.872 -0.5910 -0.3830  0.1701
  111OSM    H3G11505   4.582   1.424   9.900 -0.8448  0.3536  2.3625
  111OSM    C4F11506   4.445   1.468   9.720 -0.0716  0.2908  0.0075
  111OSM    H4F11507   4.506   1.555   9.689 -0.1064  0.5930  0.7748
  111OSM    H4G11508   4.339   1.500   9.717 -0.5240 -1.0455  0.7131
  111OSM    C5F11509   4.475   1.365   9.616  0.2528 -0.1645  0.3336
  111OSM    H5F11510   4.394   1.290   9.630  1.1192 -0.7982  2.2626
  111OSM    H5G11511   4.575   1.322   9.638 -0.1623 -0.1333  2.5247
  111OSM    C6F11512   4.472   1.421   9.472  0.0613  0.8604 -0.2657
  111OSM    H6F11513   4.521   1.520   9.464  1.4917  0.2221  0.3029
  111OSM    H6G11514   4.365   1.439   9.450 -0.3667  1.8311  2.2001
  111OSM    C7F11515   4.526   1.321   9.366 -0.0933  0.7437 -0.2899
  111OSM    H7F11516   4.451   1.240   9.374  1.2379 -0.4718  0.3340
  111OSM    H7G11517   4.618   1.265   9.392 -0.7102 -0.3870 -0.4580
  111OSM    C8F11518   4.509   1.380   9.222 -0.5012  0.2698 -0.7120
  111OSM    H8F11519   4.592   1.330   9.168  0.4792  1.2461 -0.1453
  111OSM    H8G11520   4.546   1.485   9.210  2.1551 -0.7713 -2.5736
  111OSM    C9F11521   4.376   1.370   9.151  0.3614  0.5402 -0.2983
  111OSM    H9F11522   4.307   1.454   9.171 -1.6442 -0.4870 -2.3542
  111OSM   C10F11523   4.358   1.292   9.043 -0.0511 -0.4363 -0.9512
  111OSM   H10F11524   4.259   1.291   8.994  0.4478 -0.3367 -1.9828
  111OSM   C11F11525   4.456   1.204   8.978  0.6060 -0.3595  0.5133
  111OSM   H11F11526   4.408   1.105   8.960  4.1606 -2.1821 -0.0261
  111OSM   H11G11527   4.543   1.169   9.037  1.8024 -1.1344 -1.5811
  111OSM   C12F11528   4.505   1.255   8.837  0.1023  0.3906  0.4241
  111OSM   H12F11529   4.425   1.305   8.779 -0.2328 -0.6449 -0.0282
  111OSM   H12G11530   4.531   1.168   8.774  1.5389 -0.3518  1.9657
  111OSM   C13F11531   4.617   1.358   8.849 -0.5405  0.2872  0.0326
  111OSM   H13F11532   4.717   1.315   8.874 -0.6001 -1.7320 -2.7440
  111OSM   H13G11533   4.599   1.424   8.936 -0.0880 -1.1349  1.2651
  111OSM   C14F11534   4.636   1.443   8.721  0.2115 -0.1131  0.7381
  111OSM   H14F11535   4.720   1.514   8.737  0.1280 -0.2269  1.7336
  111OSM   H14G11536   4.549   1.508   8.698  0.4223 -0.4361 -1.1486
  111OSM   C15F11537   4.663   1.357   8.595 -0.3630  0.6266  0.0513
  111OSM   H15F11538   4.588   1.278   8.572  1.2274 -0.8203 -0.3734
  111OSM   H15G11539   4.749   1.291   8.618  0.5729  1.7103 -0.2628
  111OSM   C16F11540   4.694   1.425   8.462 -0.4401 -0.6372  0.5990
  111OSM   H16F11541   4.751   1.517   8.487  0.3556 -1.6530  2.8109
  111OSM   H16G11542   4.597   1.447   8.413 -0.7058  0.3135  1.5181
  111OSM   C17F11543   4.778   1.331   8.372 -0.2568  0.5643 -0.4382
  111OSM   H17F11544   4.721   1.236   8.371 -0.0096  0.4052 -2.5459
  111OSM   H17G11545   4.876   1.314   8.421 -0.2965  0.9586 -0.2127
  111OSM   C18F11546   4.782   1.393   8.236  0.5948 -0.4133  0.2752
  111OSM   H18F11547   4.836   1.333   8.159 -0.7139  0.1618 -1.1511
  111OSM   H18G11548   4.825   1.495   8.227  5.2637 -2.0956  1.1547
  111OSM   H18H11549   4.676   1.389   8.200  0.4450 -0.9348  0.7656
  112OSM      N11550   4.604   5.617  11.254  0.0352  0.1639 -0.0297
  112OSM    C1511551   4.707   5.696  11.332  0.0885  0.2106  0.6305
  112OSM   H15A11552   4.690   5.691  11.438  1.4191 -1.1656  0.8225
  112OSM   H15B11553   4.708   5.799  11.300 -0.2690  0.2074  0.6085
  112OSM   H15C11554   4.807   5.658  11.319  0.4134  0.9705  0.9107
  112OSM    C1411555   4.606   5.475  11.296 -0.3019 -0.8510 -0.0992
  112OSM   H14A11556   4.557   5.410  11.225  0.4983 -0.9831 -0.5340
  112OSM   H14B11557   4.558   5.467  11.392 -0.0532  0.2585  0.1240
  112OSM   H14C11558   4.706   5.435  11.303  0.9944  1.5146 -3.0134
  112OSM    C1311559   4.462   5.666  11.293 -0.2867  0.7628  0.3797
  112OSM   H13A11560   4.386   5.596  11.261  0.3404  0.2436 -0.0022
  112OSM   H13B11561   4.441   5.759  11.243  0.4721  0.0709 -1.2984
  112OSM   H13C11562   4.458   5.690  11.398  1.4989 -1.2711  0.9994
  112OSM    C1211563   4.630   5.615  11.103  0.7130 -0.3892  0.1126
  112OSM   H12A11564   4.555   5.550  11.060 -0.3334  0.4689  0.5833
  112OSM   H12B11565   4.733   5.587  11.090  1.8695  3.0930  0.6555
  112OSM    C1111566   4.610   5.752  11.030 -0.0201 -0.4358 -0.3052
  112OSM   H11A11567   4.664   5.760  10.933  0.6908  0.3019  0.1344
  112OSM   H11B11568   4.657   5.837  11.084  0.9427 -0.0526 -1.6932
  112OSM      P11569   4.387   5.714  10.901 -0.1000 -0.4149  0.0250
  112OSM    O1311570   4.249   5.700  10.950 -0.0587  0.9991 -0.3486
  112OSM    O1411571   4.413   5.796  10.776  0.0962  0.3457  0.2369
  112OSM    O1111572   4.451   5.573  10.878  0.4497  0.3145  0.7666
  112OSM    O1211573   4.470   5.774  11.018 -0.1634 -0.2572 -0.6782
  112OSM    C1S11574   4.394   5.483  10.784 -0.7064 -0.1256 -0.4005
  112OSM    H1S11575   4.287   5.512  10.773  0.1590  2.6979 -2.3632
  112OSM    H1T11576   4.405   5.377  10.818  0.6780  0.5293  1.3883
  112OSM     NF11577   4.388   5.401  10.553 -0.3562  0.4826  0.3775
  112OSM    HNF11578   4.432   5.312  10.539  1.3756  1.4935 -0.9854
  112OSM    C2S11579   4.454   5.494  10.639 -0.3579 -0.4900 -0.2364
  112OSM    H2S11580   4.438   5.597  10.600  1.9121  0.1883  0.5107
  112OSM    C3S11581   4.609   5.480  10.648  0.1594  0.3099 -0.7016
  112OSM    H3S11582   4.633   5.386  10.701 -1.0418  1.1968  1.5425
  112OSM     O311583   4.689   5.577  10.716 -0.1812 -0.7216  0.1160
  112OSM    HO311584   4.625   5.637  10.756 -0.8242 -1.8782  0.8794
  112OSM    C4S11585   4.659   5.479  10.505 -0.5672  0.1259  0.8992
  112OSM    H4S11586   4.605   5.546  10.437 -0.2206 -0.5538 -0.0713
  112OSM    C5S11587   4.748   5.391  10.452 -0.0944 -0.3836  0.5819
  112OSM    H5S11588   4.792   5.315  10.518  1.8231 -0.8238 -1.1159
  112OSM    C6S11589   4.800   5.396  10.312 -0.3500 -0.7433 -0.2986
  112OSM    H6S11590   4.909   5.375  10.315  0.0346  1.0727 -0.4829
  112OSM    H6T11591   4.793   5.494  10.261 -1.8030 -0.6374  0.0611
  112OSM    C7S11592   4.719   5.319  10.208 -0.3746  0.4802  0.5741
  112OSM    H7S11593   4.626   5.377  10.191  0.8569  2.1680 -0.9668
  112OSM    H7T11594   4.689   5.220  10.249 -1.9113  0.8187  0.3223
  112OSM    C8S11595   4.792   5.303  10.078  0.4424 -0.3024  0.4588
  112OSM    H8S11596   4.890   5.252  10.093  1.0850  0.6832 -0.3145
  112OSM    H8T11597   4.818   5.408  10.053 -0.5296 -0.2213 -0.2360
  112OSM    C9S11598   4.708   5.236   9.965  0.2599 -0.1575 -0.9425
  112OSM    H9S11599   4.613   5.203  10.011 -1.1869  3.9733 -0.5710
  112OSM    H9T11600   4.765   5.145   9.934  0.4645 -0.1610 -0.5666
  112OSM   C10S11601   4.704   5.329   9.853  0.2904  0.1515 -0.3519
  112OSM   H10S11602   4.806   5.364   9.824 -0.4030  0.4859 -2.5876
  112OSM   H10T11603   4.643   5.418   9.879  1.4254  0.4386  1.6046
  112OSM   C11S11604   4.654   5.253   9.728  0.3687 -0.0069  0.2060
  112OSM   H11S11605   4.547   5.228   9.747  0.4739 -0.6058  0.0313
  112OSM   H11T11606   4.702   5.153   9.732  0.4822  0.0777  3.1758
  112OSM   C12S11607   4.666   5.321   9.592  0.0056 -0.0578  0.5857
  112OSM   H12S11608   4.772   5.347   9.570 -0.7289  1.6775 -1.2004
  112OSM   H12T11609   4.608   5.416   9.587  0.4690  0.1632 -1.5325
  112OSM   C13S11610   4.622   5.222   9.483  1.0002  0.5385  0.0605
  112OSM   H13S11611   4.516   5.189   9.486  0.7594  1.3940  1.9997
  112OSM   H13T11612   4.683   5.129   9.494  2.1959  1.3338  0.3540
  112OSM   C14S11613   4.658   5.275   9.344 -0.0050 -0.1620  0.0342
  112OSM   H14S11614   4.765   5.254   9.320 -0.7915 -4.2874 -0.5708
  112OSM   H14T11615   4.636   5.384   9.342  2.4801  0.4032 -0.0613
  112OSM   C15S11616   4.573   5.214   9.232 -0.1355 -0.2459  0.2087
  112OSM   H15S11617   4.572   5.292   9.153 -0.1232  0.1967  0.6457
  112OSM   H15T11618   4.464   5.204   9.251 -0.4223 -2.4819 -2.0923
  112OSM   C16S11619   4.628   5.081   9.174 -0.6557 -0.3468 -0.0440
  112OSM   H16S11620   4.608   5.003   9.251 -0.5310 -0.7994 -0.4692
  112OSM   H16T11621   4.736   5.090   9.151 -0.9299 -0.1974 -1.3852
  112OSM   C17S11622   4.567   5.034   9.039 -0.1032 -0.0952 -0.2676
  112OSM   H17S11623   4.629   4.951   8.998 -1.3185 -0.8232 -0.6641
  112OSM   H17T11624   4.587   5.116   8.966 -0.1695 -1.3567 -1.7705
  112OSM   C18S11625   4.421   4.985   9.038  0.9704  0.7266 -0.3867
  112OSM   H18S11626   4.356   5.073   9.022 -0.2617 -0.1986 -0.6678
  112OSM   H18T11627   4.400   4.928   9.131 -1.0775  2.2733  0.1798
  112OSM   H18U11628   4.404   4.920   8.949  0.9633  0.8983 -0.5114
  112OSM    C1F11629   4.276   5.425  10.491  0.8292  0.2165 -0.9333
  112OSM     OF11630   4.212   5.528  10.526  0.1240  0.0065  0.4001
  112OSM    C2F11631   4.220   5.329  10.388  0.5469 -0.5252 -0.2939
  112OSM    H2F11632   4.116   5.307  10.419  1.1537 -1.1538  1.3513
  112OSM    H2G11633   4.277   5.235  10.402 -2.2598 -2.2872  0.0675
  112OSM    C3F11634   4.235   5.382  10.243  0.3923  0.3662  0.9111
  112OSM    H3F11635   4.341   5.417  10.242 -0.4047  3.1041  2.0010
  112OSM    H3G11636   4.169   5.472  10.237  0.5058  0.5923  2.5945
  112OSM    C4F11637   4.205   5.290  10.126 -0.0049 -0.3182 -0.7091
  112OSM    H4F11638   4.101   5.257  10.145  0.1373 -1.1888 -1.4086
  112OSM    H4G11639   4.273   5.203  10.118 -0.9268 -1.0269 -1.0736
  112OSM    C5F11640   4.226   5.364   9.990 -0.1639  0.1591  0.2153
  112OSM    H5F11641   4.336   5.367   9.979  0.1471  1.1039  2.8356
  112OSM    H5G11642   4.187   5.468   9.999 -0.4406 -0.1215  3.7874
  112OSM    C6F11643   4.149   5.294   9.883  0.0677  0.1226 -0.4451
  112OSM    H6F11644   4.150   5.357   9.791  0.7269 -1.0660 -1.2706
  112OSM    H6G11645   4.042   5.286   9.913 -0.4314  1.9562 -1.5566
  112OSM    C7F11646   4.205   5.154   9.850 -0.0438 -0.0653 -0.1945
  112OSM    H7F11647   4.179   5.096   9.942 -0.7662  2.2437  1.1442
  112OSM    H7G11648   4.316   5.158   9.848  0.0418 -0.3656  1.7378
  112OSM    C8F11649   4.143   5.093   9.716 -0.1032 -0.4952  0.6979
  112OSM    H8F11650   4.033   5.103   9.723 -0.0108  0.8566  0.5954
  112OSM    H8G11651   4.179   4.988   9.717  1.4700  0.0121  2.1193
  112OSM    C9F11652   4.181   5.164   9.590  0.0090 -0.0237  0.0553
  112OSM    H9F11653   4.279   5.214   9.590 -0.3805  0.7730 -1.3360
  112OSM   C10F11654   4.113   5.173   9.474 -0.0434 -0.5058 -0.9645
  112OSM   H10F11655   4.171   5.215   9.391  0.5284  1.1933  0.2254
  112OSM   C11F11656   3.977   5.107   9.443 -0.3136 -0.9111 -0.2493
  112OSM   H11F11657   3.897   5.164   9.495  0.1010 -1.0051  0.4910
  112OSM   H11G11658   3.964   5.000   9.472 -0.0883 -0.8679  0.0046
  112OSM   C12F11659   3.957   5.114   9.290  0.2500 -0.3775 -0.2080
  112OSM   H12F11660   3.871   5.053   9.255  1.4227 -2.0868 -0.2339
  112OSM   H12G11661   4.051   5.083   9.240  0.9222  0.3023  0.6093
  112OSM   C13F11662   3.916   5.259   9.245  0.8120  0.4995  0.1742
  112OSM   H13F11663   3.975   5.337   9.298  0.3855  1.3037 -0.5175
  112OSM   H13G11664   3.811   5.279   9.273  0.9039 -0.0693  0.9702
  112OSM   C14F11665   3.935   5.289   9.096 -0.0902 -0.3974 -0.1434
  112OSM   H14F11666   3.900   5.394   9.082  2.4081  1.0880  3.2392
  112OSM   H14G11667   3.878   5.218   9.032  0.7611  0.1088 -1.5057
  112OSM   C15F11668   4.087   5.297   9.057  0.2316  0.1029 -0.1266
  112OSM   H15F11669   4.126   5.199   9.090 -0.7397  0.1784  1.4003
  112OSM   H15G11670   4.143   5.371   9.119  1.7214 -0.3946 -0.8500
  112OSM   C16F11671   4.114   5.332   8.916  0.0436 -0.1795  0.0496
  112OSM   H16F11672   4.067   5.433   8.902 -1.2171 -0.7033  0.3500
  112OSM   H16G11673   4.071   5.254   8.850  1.8781 -0.3122 -1.0313
  112OSM   C17F11674   4.262   5.344   8.887 -0.5310 -0.0786  0.1975
  112OSM   H17F11675   4.317   5.248   8.889  1.2153  0.9083  1.0622
  112OSM   H17G11676   4.310   5.410   8.962 -0.5800 -0.4551  0.5632
  112OSM   C18F11677   4.299   5.405   8.747  0.3747  0.6155  0.1990
  112OSM   H18F11678   4.265   5.511   8.739 -2.1584 -0.0037  1.4189
  112OSM   H18G11679   4.246   5.351   8.666 -1.6656  0.3513  1.6120
  112OSM   H18H11680   4.407   5.407   8.723  0.9308 -0.9999  2.2351
  113OSM      N11681   6.116   3.993  11.015  0.9429  0.1049  0.2121
  113OSM    C1511682   6.072   4.042  11.144 -0.2675  0.3554  0.1506
  113OSM   H15A11683   5.980   4.001  11.183 -0.5274  0.4452 -0.3680
  113OSM   H15B11684   6.060   4.148  11.133 -0.1901  0.1579 -2.4898
  113OSM   H15C11685   6.149   4.014  11.215  0.6395  0.3122 -0.8250
  113OSM    C1411686   6.253   4.054  10.982 -0.1578 -0.3684 -0.2566
  113OSM   H14A11687   6.284   4.040  10.879  0.2770  2.8536 -0.6737
  113OSM   H14B11688   6.338   4.000  11.020  0.3702  0.0975 -0.7496
  113OSM   H14C11689   6.266   4.158  11.008 -0.0054 -0.5949  0.6032
  113OSM    C1311690   6.148   3.845  11.016 -0.1932  0.1541 -0.4325
  113OSM   H13A11691   6.210   3.819  10.931  0.5295  0.0490  0.1171
  113OSM   H13B11692   6.055   3.791  11.001  0.7059 -1.5700 -0.1508
  113OSM   H13C11693   6.195   3.822  11.110 -2.4037  0.0873  0.7304
  113OSM    C1211694   6.017   4.031  10.914  0.7642  0.0795  0.7369
  113OSM   H12A11695   6.057   4.008  10.817 -0.4637  0.7087  0.0532
  113OSM   H12B11696   6.006   4.138  10.910 -1.4862 -0.0984  0.5191
  113OSM    C1111697   5.874   3.983  10.933 -0.0843  0.1695  0.2472
  113OSM   H11A11698   5.809   4.039  10.863 -0.6126  1.2047  1.5402
  113OSM   H11B11699   5.820   4.003  11.028 -1.2132  2.5438 -0.8213
  113OSM      P11700   5.874   3.778  10.765 -0.1339 -0.0298  0.1433
  113OSM    O1311701   5.973   3.664  10.773  0.4922  0.0322  0.0798
  113OSM    O1411702   5.735   3.739  10.728  0.3736  0.1245  0.5229
  113OSM    O1111703   5.934   3.886  10.663  0.0985  0.3248  0.2530
  113OSM    O1211704   5.874   3.848  10.902 -0.0055  0.5762 -0.3112
  113OSM    C1S11705   5.891   3.875  10.526  0.0899  0.4102  0.0577
  113OSM    H1S11706   5.781   3.875  10.515  0.0247  0.2200  0.6396
  113OSM    H1T11707   5.919   3.776  10.483 -0.7109 -0.4981  1.5173
  113OSM     NF11708   5.942   3.981  10.308 -0.1522 -0.4255  0.1325
  113OSM    HNF11709   6.020   3.945  10.257  0.2701 -0.3171  0.7021
  113OSM    C2S11710   5.958   3.995  10.447  0.5540  0.2091  0.8284
  113OSM    H2S11711   5.922   4.093  10.485 -1.4119 -0.2747  0.3334
  113OSM    C3S11712   6.106   4.000  10.476  0.1183 -0.0212 -0.0774
  113OSM    H3S11713   6.133   3.893  10.461 -2.6655 -0.9223  0.7617
  113OSM     O311714   6.139   4.037  10.606 -0.1842  0.2804 -0.4131
  113OSM    HO311715   6.062   4.009  10.656  0.4132  0.4023  0.5990
  113OSM    C4S11716   6.185   4.083  10.379 -0.2976  0.0746  0.3019
  113OSM    H4S11717   6.242   4.019  10.310  0.8837  2.7776 -1.3864
  113OSM    C5S11718   6.211   4.211  10.376 -0.3055 -0.1454 -0.7868
  113OSM    H5S11719   6.168   4.269  10.459 -0.2960 -0.2017 -0.7426
  113OSM    C6S11720   6.289   4.297  10.271  0.0541 -0.0142 -0.7407
  113OSM    H6S11721   6.385   4.347  10.295  2.2327 -4.2775  0.3892
  113OSM    H6T11722   6.205   4.361  10.237 -2.5603 -2.0505  1.4290
  113OSM    C7S11723   6.342   4.230  10.148 -0.6713 -0.5047 -0.1322
  113OSM    H7S11724   6.254   4.185  10.097 -0.8800 -0.0194 -0.1979
  113OSM    H7T11725   6.411   4.145  10.167 -0.8228 -0.9255 -1.3549
  113OSM    C8S11726   6.395   4.320  10.036 -0.5213 -0.0303 -1.1104
  113OSM    H8S11727   6.499   4.347  10.064 -0.4681  0.0052 -1.3351
  113OSM    H8T11728   6.319   4.401  10.025 -1.2350 -0.6301 -0.7102
  113OSM    C9S11729   6.407   4.240   9.904 -0.3745  0.1004 -0.1769
  113OSM    H9S11730   6.303   4.209   9.883 -0.1624 -1.1485  0.5408
  113OSM    H9T11731   6.472   4.150   9.905  1.7410  1.5478 -0.3202
  113OSM   C10S11732   6.456   4.316   9.781  0.0257 -0.1604  0.1489
  113OSM   H10S11733   6.563   4.338   9.799  0.2672 -0.9740 -0.2582
  113OSM   H10T11734   6.400   4.411   9.764 -0.2594 -0.5742 -1.3101
  113OSM   C11S11735   6.464   4.229   9.650  0.6154  0.2633 -0.2082
  113OSM   H11S11736   6.361   4.193   9.628  0.6647  0.5603 -0.9419
  113OSM   H11T11737   6.530   4.146   9.682 -1.1951 -1.5650 -0.9708
  113OSM   C12S11738   6.502   4.314   9.535  0.7356  0.1043  0.2588
  113OSM   H12S11739   6.584   4.381   9.569  1.0302  0.1241 -0.4631
  113OSM   H12T11740   6.418   4.385   9.520 -0.9987 -1.7881  0.6389
  113OSM   C13S11741   6.535   4.233   9.406  0.3112  0.8663 -0.1766
  113OSM   H13S11742   6.447   4.167   9.386  0.0677  0.9275  0.6381
  113OSM   H13T11743   6.606   4.157   9.445 -1.4917 -1.1816 -0.6554
  113OSM   C14S11744   6.593   4.317   9.294  0.0995 -0.3370 -0.1541
  113OSM   H14S11745   6.695   4.356   9.314  1.0015 -1.0655 -2.9545
  113OSM   H14T11746   6.535   4.411   9.279 -1.1777 -1.0001  0.4570
  113OSM   C15S11747   6.588   4.241   9.156 -0.4360 -0.0319  0.1168
  113OSM   H15S11748   6.485   4.213   9.126 -0.2827  0.0881 -0.5394
  113OSM   H15T11749   6.655   4.155   9.174  1.6651  1.6901  1.0588
  113OSM   C16S11750   6.644   4.321   9.042  0.2994 -0.4352  0.0030
  113OSM   H16S11751   6.743   4.357   9.076  0.6073 -0.1983 -1.1164
  113OSM   H16T11752   6.577   4.409   9.030 -1.0242 -1.0741  2.1122
  113OSM   C17S11753   6.657   4.250   8.908  0.5764 -0.2100  0.4199
  113OSM   H17S11754   6.554   4.228   8.873  0.4071  2.3718 -0.8812
  113OSM   H17T11755   6.707   4.153   8.930 -1.6313 -1.5388 -0.1475
  113OSM   C18S11756   6.740   4.309   8.798  0.9998  0.1360 -0.2214
  113OSM   H18S11757   6.709   4.246   8.711  0.4832 -2.1081  1.4764
  113OSM   H18T11758   6.851   4.313   8.807  1.0638 -0.0529 -0.8574
  113OSM   H18U11759   6.697   4.409   8.776  0.1412 -0.6826 -2.6190
  113OSM    C1F11760   5.822   4.008  10.256 -0.4056  0.0463  0.9278
  113OSM     OF11761   5.727   4.042  10.318  0.3679  0.0700  0.3921
  113OSM    C2F11762   5.817   3.987  10.103  0.0625 -0.0357  0.7566
  113OSM    H2F11763   5.863   3.888  10.083  2.8473  1.5032 -1.1307
  113OSM    H2G11764   5.893   4.055  10.058 -0.4481  1.2656  1.8113
  113OSM    C3F11765   5.676   3.989  10.045  0.1201 -0.0084  0.1648
  113OSM    H3F11766   5.650   4.097  10.051 -1.5696 -0.1980 -2.1368
  113OSM    H3G11767   5.602   3.931  10.103 -0.6250  1.0240  0.2871
  113OSM    C4F11768   5.667   3.940   9.894  0.6597 -0.3265 -0.1774
  113OSM    H4F11769   5.569   3.972   9.852  1.0162  1.2413  0.1287
  113OSM    H4G11770   5.675   3.829   9.888 -1.9917 -0.6024  0.1222
  113OSM    C5F11771   5.769   3.999   9.807  0.4481 -0.6472  0.1664
  113OSM    H5F11772   5.871   4.018   9.847  0.4082  0.3858 -0.1917
  113OSM    H5G11773   5.742   4.106   9.793 -1.1260 -1.0151  0.2406
  113OSM    C6F11774   5.780   3.931   9.670 -0.1331 -0.0291 -0.6258
  113OSM    H6F11775   5.677   3.911   9.635  0.0831  0.6822 -1.7262
  113OSM    H6G11776   5.828   3.834   9.693  1.0982  0.7898  0.4508
  113OSM    C7F11777   5.864   4.019   9.571 -0.3890  0.0273  0.2418
  113OSM    H7F11778   5.973   4.025   9.591 -0.2250  0.4899 -0.7211
  113OSM    H7G11779   5.817   4.119   9.575 -1.9314 -0.6384 -0.3671
  113OSM    C8F11780   5.848   3.999   9.418  0.3638  1.0952  0.5241
  113OSM    H8F11781   5.889   4.087   9.363  1.3409  0.7528  0.6838
  113OSM    H8G11782   5.743   4.030   9.399 -0.1382 -0.5802  0.4568
  113OSM    C9F11783   5.893   3.867   9.364  0.6134  0.3596  0.4036
  113OSM    H9F11784   5.879   3.782   9.433 -1.9622  0.3430 -0.0580
  113OSM   C10F11785   5.937   3.848   9.244 -0.6888 -0.3381  0.0779
  113OSM   H10F11786   5.980   3.749   9.224  0.7430 -0.1161  1.8078
  113OSM   C11F11787   5.952   3.954   9.142 -0.7635  0.1652  0.7253
  113OSM   H11F11788   6.059   3.983   9.141  0.0633 -2.4080 -2.7420
  113OSM   H11G11789   5.887   4.042   9.163 -1.3201 -0.2907  0.9454
  113OSM   C12F11790   5.918   3.898   8.997 -0.2004 -0.7007 -1.2312
  113OSM   H12F11791   5.808   3.888   8.982 -0.4252  0.4239 -0.4354
  113OSM   H12G11792   5.977   3.806   8.977  0.3714 -0.2024 -1.8251
  113OSM   C13F11793   5.957   3.998   8.885 -0.1308  0.1002 -0.6410
  113OSM   H13F11794   5.885   4.083   8.895 -0.5444 -0.3624  0.5143
  113OSM   H13G11795   5.941   3.951   8.786 -3.4683  1.8304 -1.0650
  113OSM   C14F11796   6.098   4.064   8.893  0.6847  0.4679  0.2132
  113OSM   H14F11797   6.180   3.993   8.917  0.1481  0.3123  1.6367
  113OSM   H14G11798   6.108   4.147   8.966  1.1274  0.0821  0.5942
  113OSM   C15F11799   6.133   4.129   8.758  0.4412 -0.1612 -0.1521
  113OSM   H15F11800   6.225   4.190   8.753 -0.6074  1.4317 -3.7573
  113OSM   H15G11801   6.045   4.194   8.738  0.6670  0.1045 -0.2925
  113OSM   C16F11802   6.152   4.034   8.637 -0.0838  0.4529 -0.3960
  113OSM   H16F11803   6.053   3.984   8.627 -2.1117  3.0600  3.9768
  113OSM   H16G11804   6.229   3.956   8.659  1.0810  1.2710 -1.4506
  113OSM   C17F11805   6.204   4.109   8.510  0.5790 -0.5884 -0.4473
  113OSM   H17F11806   6.297   4.166   8.529  0.9179 -0.1255 -3.1275
  113OSM   H17G11807   6.143   4.198   8.484  2.7650  0.8150 -1.0496
  113OSM   C18F11808   6.233   4.029   8.384 -0.5104 -0.3036  0.7856
  113OSM   H18F11809   6.149   3.959   8.363  0.1422 -0.6134 -0.8682
  113OSM   H18G11810   6.318   3.960   8.397 -0.4634 -0.2812  0.5940
  113OSM   H18H11811   6.247   4.091   8.293  0.2928 -0.3979  0.8407
  114OSM      N11812   3.044   5.246  10.897 -0.0659 -0.0970 -0.4449
  114OSM    C1511813   2.894   5.260  10.918  0.2088  0.0209  0.4395
  114OSM   H15A11814   2.861   5.319  10.833  1.0103 -0.7170 -0.4075
  114OSM   H15B11815   2.862   5.294  11.015 -1.3620  1.5539 -0.5634
  114OSM   H15C11816   2.855   5.161  10.900  2.5954 -0.7029 -1.3017
  114OSM    C1411817   3.090   5.140  10.990 -0.3223 -0.0852 -0.5021
  114OSM   H14A11818   3.192   5.111  10.972 -0.2549 -0.2206  0.0930
  114OSM   H14B11819   3.038   5.050  10.960  1.4400 -0.7201 -1.8447
  114OSM   H14C11820   3.067   5.160  11.093 -0.2203  1.4009 -0.7371
  114OSM    C1311821   3.076   5.208  10.749 -0.3321  0.5193  0.3621
  114OSM   H13A11822   3.031   5.111  10.730  0.0019  0.2741  0.8153
  114OSM   H13B11823   3.179   5.180  10.738 -1.3135 -3.1640 -1.2056
  114OSM   H13C11824   3.039   5.286  10.684 -1.2950  0.9355  1.3807
  114OSM    C1211825   3.115   5.379  10.933  0.0807  0.0536  0.5496
  114OSM   H12A11826   3.110   5.405  11.038  1.6345 -1.9887  1.1911
  114OSM   H12B11827   3.062   5.462  10.887 -0.6773 -0.5106  0.3846
  114OSM    C1111828   3.271   5.390  10.898  0.3705  0.1486  0.5301
  114OSM   H11A11829   3.295   5.498  10.899 -2.7026  0.9408  0.1974
  114OSM   H11B11830   3.286   5.376  10.789 -0.2798  1.6027  0.2319
  114OSM      P11831   3.410   5.343  11.116  0.4684  0.1819 -0.2918
  114OSM    O1311832   3.350   5.471  11.157 -0.4067 -0.2737 -0.1924
  114OSM    O1411833   3.406   5.224  11.207  0.3561 -0.1790  0.2863
  114OSM    O1111834   3.547   5.377  11.065 -0.0975  0.8255 -0.1804
  114OSM    O1211835   3.355   5.308  10.981 -0.7804  0.0909 -0.2877
  114OSM    C1S11836   3.636   5.275  11.006  0.5306 -0.1990  0.4841
  114OSM    H1S11837   3.639   5.183  11.069 -0.4332 -0.9273 -0.4747
  114OSM    H1T11838   3.734   5.325  11.013 -0.7617  2.8263 -1.2247
  114OSM     NF11839   3.687   5.131  10.799 -0.1672 -0.7942 -0.6273
  114OSM    HNF11840   3.746   5.159  10.724 -0.1257 -1.8898 -1.0248
  114OSM    C2S11841   3.613   5.241  10.854  0.1026  0.0537 -0.2774
  114OSM    H2S11842   3.510   5.204  10.836  0.3282  0.0531 -1.7176
  114OSM    C3S11843   3.631   5.371  10.770  0.4627 -0.3209  0.5142
  114OSM    H3S11844   3.730   5.421  10.782  0.8071 -1.2103  1.5365
  114OSM     O311845   3.551   5.485  10.800 -0.1365  0.1436  0.3769
  114OSM    HO311846   3.515   5.452  10.882 -0.2507 -0.1677  0.2062
  114OSM    C4S11847   3.605   5.348  10.625 -0.9267  0.0912 -0.0771
  114OSM    H4S11848   3.510   5.293  10.623 -0.1693 -1.2207 -1.2645
  114OSM    C5S11849   3.699   5.375  10.531 -0.4749 -0.2855 -0.5874
  114OSM    H5S11850   3.793   5.423  10.562 -2.0687  1.9438  1.1628
  114OSM    C6S11851   3.684   5.337  10.388  0.2789  0.1807 -0.6193
  114OSM    H6S11852   3.708   5.228  10.387  0.5462  0.0062  3.9130
  114OSM    H6T11853   3.760   5.388  10.326  0.0015  0.3575 -0.8145
  114OSM    C7S11854   3.545   5.369  10.321 -0.7778 -0.4011 -0.2922
  114OSM    H7S11855   3.523   5.477  10.329  0.7447 -0.0968  0.0754
  114OSM    H7T11856   3.460   5.314  10.367 -2.1064 -0.1117 -2.2530
  114OSM    C8S11857   3.556   5.328  10.176 -0.1354 -0.6873  0.5482
  114OSM    H8S11858   3.560   5.217  10.167  0.3198 -0.5565 -1.2507
  114OSM    H8T11859   3.647   5.369  10.128 -0.7026 -0.0175  0.0184
  114OSM    C9S11860   3.424   5.369  10.102 -0.4924 -0.2007  0.2385
  114OSM    H9S11861   3.401   5.473  10.134 -1.6349 -0.0455 -0.9948
  114OSM    H9T11862   3.334   5.308  10.124 -0.2099 -0.2805  1.2343
  114OSM   C10S11863   3.436   5.370   9.945 -0.9354 -0.6774  0.0729
  114OSM   H10S11864   3.543   5.392   9.925 -0.8404 -1.7933 -0.7353
  114OSM   H10T11865   3.372   5.449   9.901 -1.1274 -0.4557  0.7398
  114OSM   C11S11866   3.395   5.237   9.880  0.1114 -0.7333  0.1040
  114OSM   H11S11867   3.290   5.223   9.912  0.0759  1.0214  0.8830
  114OSM   H11T11868   3.450   5.148   9.920  0.6470 -0.3663  0.2055
  114OSM   C12S11869   3.404   5.244   9.728 -0.4900 -0.4818  0.3119
  114OSM   H12S11870   3.368   5.345   9.699  1.0436  0.4028  1.3802
  114OSM   H12T11871   3.343   5.174   9.668 -0.8392 -1.4921  1.7962
  114OSM   C13S11872   3.544   5.238   9.665 -0.5018 -0.3762  0.6655
  114OSM   H13S11873   3.576   5.132   9.655 -0.1580 -0.2727  0.6560
  114OSM   H13T11874   3.615   5.296   9.728 -1.8745  0.7697  1.2274
  114OSM   C14S11875   3.553   5.294   9.520 -1.0394 -0.4712 -0.5001
  114OSM   H14S11876   3.659   5.275   9.495 -0.3181  1.5010  0.8596
  114OSM   H14T11877   3.518   5.398   9.531  1.0724  0.0501  2.7488
  114OSM   C15S11878   3.471   5.214   9.418  0.1009  0.5811 -0.0985
  114OSM   H15S11879   3.371   5.262   9.424  0.3821  1.0275  1.5804
  114OSM   H15T11880   3.447   5.110   9.448 -0.8093  0.6680 -0.5008
  114OSM   C16S11881   3.515   5.222   9.273  0.4834 -0.2569  0.2949
  114OSM   H16S11882   3.612   5.173   9.250 -0.1657 -1.8741  0.8360
  114OSM   H16T11883   3.530   5.330   9.256  1.5099 -0.6258 -1.3985
  114OSM   C17S11884   3.405   5.158   9.179 -0.8271 -0.3182  0.4790
  114OSM   H17S11885   3.315   5.221   9.196 -1.7376 -1.3595 -0.3191
  114OSM   H17T11886   3.383   5.053   9.205  1.0288 -1.3117 -1.6156
  114OSM   C18S11887   3.441   5.170   9.029 -0.8953  0.5290  0.3757
  114OSM   H18S11888   3.363   5.133   8.959 -1.5485  1.6263  0.4959
  114OSM   H18T11889   3.537   5.118   9.009  0.1070  1.5309  2.2607
  114OSM   H18U11890   3.476   5.273   9.004  0.0979  0.1914  0.3357
  114OSM    C1F11891   3.686   5.008  10.845 -0.2224 -0.1292  0.6332
  114OSM     OF11892   3.594   4.974  10.921 -0.0981  0.3332 -0.5065
  114OSM    C2F11893   3.804   4.916  10.801 -0.1958  0.1405  0.2182
  114OSM    H2F11894   3.751   4.823  10.772 -3.2529  1.5916  0.7398
  114OSM    H2G11895   3.872   4.897  10.887 -0.6773  2.5378  1.2077
  114OSM    C3F11896   3.886   4.963  10.678 -0.5283  0.0016 -0.5261
  114OSM    H3F11897   3.979   4.903  10.681 -1.9932 -2.3884  1.1175
  114OSM    H3G11898   3.927   5.066  10.681 -0.8493  0.1713 -1.6946
  114OSM    C4F11899   3.810   4.942  10.543 -0.2831 -0.4051 -0.0810
  114OSM    H4F11900   3.724   5.012  10.532  0.2606  0.6358  1.9253
  114OSM    H4G11901   3.764   4.840  10.541 -1.7967  0.2607 -0.6443
  114OSM    C5F11902   3.891   4.976  10.415 -0.2287  0.1017 -0.4364
  114OSM    H5F11903   3.985   4.917  10.420  0.3917  1.1702  3.2847
  114OSM    H5G11904   3.923   5.082  10.409  4.2899 -1.1230 -3.0555
  114OSM    C6F11905   3.815   4.937  10.287 -0.1282 -0.3982 -0.8357
  114OSM    H6F11906   3.714   4.983  10.292 -1.2719 -2.7411 -0.5717
  114OSM    H6G11907   3.802   4.828  10.305 -1.2260 -0.1122  0.2966
  114OSM    C7F11908   3.892   4.971  10.155 -0.1748  0.1896  0.3691
  114OSM    H7F11909   3.920   5.078  10.149  1.0492 -0.1319  0.1106
  114OSM    H7G11910   3.818   4.945  10.077 -0.7153  0.2073  0.8672
  114OSM    C8F11911   4.022   4.894  10.139 -0.0145 -0.1606 -0.6720
  114OSM    H8F11912   4.089   4.917  10.224 -0.5386  0.1599 -0.3432
  114OSM    H8G11913   4.064   4.936  10.045  0.4688  0.4891 -0.1724
  114OSM    C9F11914   3.991   4.746  10.127 -0.8903 -0.3937  0.3484
  114OSM    H9F11915   3.989   4.694  10.224  0.2225 -0.3074  0.4319
  114OSM   C10F11916   3.961   4.675  10.013  0.3505 -0.0787 -0.1316
  114OSM   H10F11917   3.950   4.567  10.025  2.9934 -0.4033 -0.0911
  114OSM   C11F11918   3.939   4.738   9.878  0.3050 -0.2476  0.4742
  114OSM   H11F11919   4.020   4.711   9.807  0.9362 -0.5420  1.2927
  114OSM   H11G11920   3.930   4.848   9.889  1.1289  0.0510 -1.5595
  114OSM   C12F11921   3.806   4.702   9.805 -0.3106  0.0505 -0.7925
  114OSM   H12F11922   3.737   4.783   9.835  1.3163  0.6855  1.4743
  114OSM   H12G11923   3.757   4.613   9.851 -0.0666  0.9245  1.2342
  114OSM   C13F11924   3.821   4.690   9.655 -0.3842 -0.7581  0.0870
  114OSM   H13F11925   3.879   4.596   9.639 -1.5065 -1.2008 -1.6568
  114OSM   H13G11926   3.890   4.764   9.609  0.6835 -1.7080  0.1063
  114OSM   C14F11927   3.685   4.708   9.581  0.0118 -0.1500  0.1590
  114OSM   H14F11928   3.645   4.807   9.612  0.8858  0.9297 -1.9476
  114OSM   H14G11929   3.617   4.631   9.624  0.4431  0.2045  1.5271
  114OSM   C15F11930   3.682   4.709   9.424 -0.3847 -0.1489 -0.3049
  114OSM   H15F11931   3.721   4.617   9.376 -1.6494 -0.0824 -1.5371
  114OSM   H15G11932   3.744   4.795   9.394 -2.3574  2.0889  1.5969
  114OSM   C16F11933   3.542   4.728   9.367 -0.2923 -0.7395  0.2503
  114OSM   H16F11934   3.498   4.825   9.398  0.8734 -0.3225  0.6636
  114OSM   H16G11935   3.476   4.647   9.404 -1.1454  0.0192  0.4192
  114OSM   C17F11936   3.553   4.732   9.212  1.0950  0.4353  0.4577
  114OSM   H17F11937   3.630   4.808   9.189  1.0162  0.5612  0.6082
  114OSM   H17G11938   3.453   4.771   9.181  1.6630  1.9147  0.4318
  114OSM   C18F11939   3.568   4.592   9.150 -0.4709 -0.5219 -0.5448
  114OSM   H18F11940   3.472   4.536   9.159 -1.5769  1.5873  2.2346
  114OSM   H18G11941   3.654   4.530   9.183  0.3384  1.1609  0.6443
  114OSM   H18H11942   3.592   4.604   9.042  0.3940  0.8697 -0.2165
  115OSM      N11943   5.800   0.256   5.918  0.2359  0.0830  0.4097
  115OSM    C1511944   5.665   0.261   5.980  0.7261 -0.3782 -0.1077
  115OSM   H15A11945   5.586   0.232   5.912 -0.6370 -0.4254  1.4330
  115OSM   H15B11946   5.655   0.364   6.012 -1.1083  0.1250 -2.0406
  115OSM   H15C11947   5.652   0.197   6.065 -1.9184  1.1095  0.7407
  115OSM    C1411948   5.832   0.120   5.880 -0.5001 -0.4128 -0.0457
  115OSM   H14A11949   5.830   0.061   5.971 -0.3758  1.1285  0.9990
  115OSM   H14B11950   5.926   0.123   5.826 -1.0151  2.3797 -0.9752
  115OSM   H14C11951   5.760   0.071   5.817  2.8577 -3.2526 -2.0663
  115OSM    C1311952   5.810   0.344   5.799  0.0982 -0.1327  0.0670
  115OSM   H13A11953   5.776   0.442   5.827  0.3977 -0.2689  0.9511
  115OSM   H13B11954   5.747   0.315   5.717  0.1714  1.8438 -0.7243
  115OSM   H13C11955   5.910   0.359   5.761 -0.3028 -0.0553 -0.9785
  115OSM    C1211956   5.907   0.304   6.019 -0.0425 -0.3676  0.5498
  115OSM   H12A11957   5.998   0.324   5.965  0.4556 -0.8888  1.1913
  115OSM   H12B11958   5.925   0.225   6.090 -1.5935 -1.3191 -0.0531
  115OSM    C1111959   5.887   0.438   6.092  0.4538 -0.3291  0.1951
  115OSM   H11A11960   5.958   0.435   6.177  1.5840  1.4565 -0.6201
  115OSM   H11B11961   5.795   0.447   6.153  1.0231  0.0698  1.0184
  115OSM      P11962   5.871   0.690   5.997  0.2088  0.2237  0.1824
  115OSM    O1311963   5.969   0.779   5.940 -0.0968 -0.7107 -0.0638
  115OSM    O1411964   5.739   0.687   5.933  0.2963 -0.3096 -0.3426
  115OSM    O1111965   5.852   0.739   6.148 -0.7644  0.1976 -0.4307
  115OSM    O1211966   5.931   0.543   6.010  0.5970 -0.1176 -0.3324
  115OSM    C1S11967   5.951   0.715   6.256 -0.4843 -0.4006 -0.0550
  115OSM    H1S11968   6.053   0.735   6.219  0.6717 -1.5858  2.3048
  115OSM    H1T11969   5.942   0.609   6.289 -2.1790  0.1587  1.4529
  115OSM     NF11970   6.065   0.799   6.458  0.2932  0.3664  0.8410
  115OSM    HNF11971   6.048   0.739   6.536 -1.3859  1.8889  1.7396
  115OSM    C2S11972   5.942   0.817   6.380  1.0330 -0.7828  0.4125
  115OSM    H2S11973   5.931   0.920   6.341  0.5484 -0.8935  0.2490
  115OSM    C3S11974   5.806   0.787   6.447  0.1575  0.1730 -0.4056
  115OSM    H3S11975   5.813   0.684   6.486  0.4179 -0.0702 -1.0778
  115OSM     O311976   5.702   0.776   6.352 -0.1710 -0.7163 -0.1759
  115OSM    HO311977   5.749   0.762   6.269 -0.3406  1.0886 -0.6226
  115OSM    C4S11978   5.775   0.886   6.559  0.1971  0.1190 -0.3571
  115OSM    H4S11979   5.766   0.992   6.532 -1.6221  0.1275  0.1087
  115OSM    C5S11980   5.755   0.846   6.686 -0.8753 -0.1382 -0.3931
  115OSM    H5S11981   5.777   0.739   6.704  0.4504 -0.0116 -1.0905
  115OSM    C6S11982   5.720   0.932   6.803  0.4013 -0.7137 -0.0319
  115OSM    H6S11983   5.770   1.030   6.786 -1.2027 -0.0905 -1.4609
  115OSM    H6T11984   5.761   0.890   6.897  1.5922  1.0266  0.2725
  115OSM    C7S11985   5.566   0.965   6.812 -0.1748  0.4152 -0.4235
  115OSM    H7S11986   5.497   0.878   6.823  0.3480  0.1857  1.3507
  115OSM    H7T11987   5.543   1.033   6.727 -2.4420  0.9203  0.5361
  115OSM    C8S11988   5.535   1.050   6.942 -0.2561  0.1781 -0.4082
  115OSM    H8S11989   5.431   1.087   6.950  0.6200  2.3970  2.4230
  115OSM    H8T11990   5.602   1.138   6.948  0.9111 -0.5851 -1.6883
  115OSM    C9S11991   5.547   0.962   7.068 -0.4695 -0.4420 -0.0368
  115OSM    H9S11992   5.647   0.916   7.076  0.1427  0.1713 -3.1242
  115OSM    H9T11993   5.479   0.875   7.082 -1.1525  0.4647  3.1935
  115OSM   C10S11994   5.519   1.049   7.186 -0.0788 -0.8045 -0.0160
  115OSM   H10S11995   5.419   1.096   7.181 -0.7966 -1.6522  3.3774
  115OSM   H10T11996   5.588   1.137   7.182 -1.4670  0.2807 -2.7908
  115OSM   C11S11997   5.524   0.980   7.322 -0.1877 -0.5762 -1.1372
  115OSM   H11S11998   5.626   0.976   7.367 -1.1333  0.3811  1.2170
  115OSM   H11T11999   5.497   0.874   7.301 -0.0272 -0.6392 -1.0310
  115OSM   C12S12000   5.430   1.040   7.429  0.8992 -0.5076 -0.3461
  115OSM   H12S12001   5.325   1.041   7.394  0.8607 -0.0481 -0.2228
  115OSM   H12T12002   5.451   1.149   7.438 -0.4447  0.0333 -2.7834
  115OSM   C13S12003   5.418   0.977   7.568 -0.6277  0.4546  0.1749
  115OSM   H13S12004   5.437   0.867   7.561  1.6801  0.9129 -2.6149
  115OSM   H13T12005   5.320   0.999   7.614 -1.2398  0.6028 -1.1545
  115OSM   C14S12006   5.512   1.046   7.677  0.7909  1.1103 -0.3848
  115OSM   H14S12007   5.499   1.156   7.676  1.8033  1.2454  0.0678
  115OSM   H14T12008   5.615   1.024   7.644  1.0608 -0.2013  1.2255
  115OSM   C15S12009   5.495   0.984   7.812  0.1996  0.6165  0.7841
  115OSM   H15S12010   5.513   0.875   7.829  0.9247  0.9931  2.6479
  115OSM   H15T12011   5.385   0.992   7.827  0.6290  3.5144  3.5152
  115OSM   C16S12012   5.562   1.059   7.919 -0.4635  0.0871 -0.3479
  115OSM   H16S12013   5.535   1.166   7.909 -1.1217  0.0471  0.8502
  115OSM   H16T12014   5.673   1.058   7.916 -0.4346  0.8336  0.1061
  115OSM   C17S12015   5.518   1.018   8.062  0.1508 -0.7772  0.1544
  115OSM   H17S12016   5.527   0.908   8.074  1.2285 -0.6630  0.5303
  115OSM   H17T12017   5.411   1.049   8.066  0.7439  1.5803 -0.7496
  115OSM   C18S12018   5.601   1.101   8.161  0.2435 -0.1415  0.3447
  115OSM   H18S12019   5.607   1.207   8.128  2.1160 -0.0742  0.7648
  115OSM   H18T12020   5.704   1.060   8.172 -0.2696 -1.1572  1.7258
  115OSM   H18U12021   5.541   1.106   8.255 -0.2427 -0.7935  0.0744
  115OSM    C1F12022   6.184   0.850   6.420 -0.2378  0.5063 -0.5082
  115OSM     OF12023   6.206   0.908   6.316 -0.8968 -0.0831 -0.0333
  115OSM    C2F12024   6.296   0.823   6.521 -0.1905  0.2931 -0.4875
  115OSM    H2F12025   6.395   0.820   6.471 -1.3319 -1.4989 -2.7731
  115OSM    H2G12026   6.272   0.724   6.564  0.1354  1.4959  2.7656
  115OSM    C3F12027   6.292   0.927   6.634  0.7928  0.0960  0.1393
  115OSM    H3F12028   6.266   1.025   6.589 -1.9125 -1.0565 -1.0181
  115OSM    H3G12029   6.394   0.930   6.678  0.8275 -0.3530  0.0949
  115OSM    C4F12030   6.197   0.885   6.744  0.4976  0.6374  0.0488
  115OSM    H4F12031   6.219   0.782   6.780 -3.2596  0.4350  2.3651
  115OSM    H4G12032   6.091   0.882   6.711  0.5609 -1.3262 -0.0524
  115OSM    C5F12033   6.193   0.983   6.863  0.0933  0.2219 -0.1052
  115OSM    H5F12034   6.138   1.072   6.825 -0.3809 -0.2627 -0.5722
  115OSM    H5G12035   6.295   0.999   6.905 -0.1435 -3.2972  2.2377
  115OSM    C6F12036   6.115   0.929   6.987 -0.2096 -0.1184 -0.1232
  115OSM    H6F12037   6.172   0.878   7.067 -0.0743  0.6458  0.2802
  115OSM    H6G12038   6.033   0.861   6.958  1.5541 -1.9982 -0.9182
  115OSM    C7F12039   6.051   1.048   7.061  0.0039  0.3610 -0.3015
  115OSM    H7F12040   5.978   1.099   6.995 -1.0296  0.1290  0.6308
  115OSM    H7G12041   6.117   1.124   7.108 -0.2922  1.1463 -1.1380
  115OSM    C8F12042   5.969   0.991   7.183 -0.1289 -0.1658  0.4803
  115OSM    H8F12043   6.042   0.936   7.247 -0.2493 -0.4926  0.3388
  115OSM    H8G12044   5.903   0.915   7.136  0.5683  0.3586 -1.4205
  115OSM    C9F12045   5.892   1.101   7.258 -0.0750 -0.5271  0.1927
  115OSM    H9F12046   5.827   1.161   7.191 -0.3907 -1.7988 -0.6741
  115OSM   C10F12047   5.906   1.142   7.384 -0.2098 -0.3888  0.1351
  115OSM   H10F12048   5.856   1.234   7.419 -1.1429 -1.4842  1.8238
  115OSM   C11F12049   5.993   1.079   7.492  0.2696 -0.1637 -0.2330
  115OSM   H11F12050   6.023   1.155   7.567  2.5087 -1.5512  0.3622
  115OSM   H11G12051   6.083   1.020   7.463 -0.2703 -1.1935  0.1343
  115OSM   C12F12052   5.917   0.980   7.586 -0.1864 -0.3198 -0.0849
  115OSM   H12F12053   5.908   0.881   7.535  0.0188 -0.7738  0.7328
  115OSM   H12G12054   5.818   1.021   7.614  0.6550  0.6298  1.7122
  115OSM   C13F12055   5.996   0.960   7.719 -0.4972  0.1084  0.0676
  115OSM   H13F12056   6.020   1.056   7.769  0.3769  1.5833 -2.9318
  115OSM   H13G12057   6.097   0.917   7.697  0.5754  2.2663  0.4925
  115OSM   C14F12058   5.911   0.880   7.822  0.4214  0.2128  0.5489
  115OSM   H14F12059   5.885   0.782   7.778  4.3239 -0.1440 -1.3670
  115OSM   H14G12060   5.816   0.939   7.826  0.2050 -0.0750 -0.1918
  115OSM   C15F12061   5.975   0.876   7.964 -0.7722 -0.0534  0.2612
  115OSM   H15F12062   6.001   0.983   7.981 -1.4647  0.5060 -1.8164
  115OSM   H15G12063   6.067   0.814   7.957  0.3175  1.4719  0.5221
  115OSM   C16F12064   5.872   0.827   8.061  0.4750 -0.0495 -0.2759
  115OSM   H16F12065   5.872   0.715   8.064 -1.0771 -0.0509  1.2004
  115OSM   H16G12066   5.770   0.862   8.035 -1.3210 -3.5642  1.3104
  115OSM   C17F12067   5.905   0.875   8.206 -0.5355 -0.1292  0.1645
  115OSM   H17F12068   5.825   0.840   8.275  0.3218 -3.4353 -0.3741
  115OSM   H17G12069   5.911   0.986   8.199  2.1574 -0.1526  0.8522
  115OSM   C18F12070   6.043   0.838   8.262  0.3400  0.1425 -0.3870
  115OSM   H18F12071   6.132   0.860   8.199  1.4033  1.5664  1.5057
  115OSM   H18G12072   6.051   0.728   8.273  1.3585  0.2155 -0.2699
  115OSM   H18H12073   6.062   0.896   8.355 -1.3399 -0.3214  0.2818
  116OSM      N12074   4.618   5.571   5.824 -0.1825 -0.2372  0.1458
  116OSM    C1512075   4.598   5.430   5.792 -0.1746  0.1487 -0.4683
  116OSM   H15A12076   4.519   5.425   5.720 -1.5945  1.6723  0.8876
  116OSM   H15B12077   4.572   5.369   5.877  0.9541  2.0118  1.3385
  116OSM   H15C12078   4.689   5.395   5.745 -0.2997 -0.8411  0.0054
  116OSM    C1412079   4.709   5.573   5.944 -0.3875  0.2454  0.0586
  116OSM   H14A12080   4.806   5.533   5.917 -1.8424 -2.7134 -1.2403
  116OSM   H14B12081   4.672   5.512   6.025  1.0023 -1.6632 -0.6511
  116OSM   H14C12082   4.715   5.676   5.976 -0.0944  0.6076 -1.1176
  116OSM    C1312083   4.685   5.638   5.702  0.1328 -0.0087 -0.8359
  116OSM   H13A12084   4.623   5.608   5.618 -1.0544  0.3267 -0.1021
  116OSM   H13B12085   4.788   5.610   5.691 -0.3310 -2.8214  1.0802
  116OSM   H13C12086   4.681   5.745   5.716  1.1555 -0.3571  3.2774
  116OSM    C1212087   4.482   5.634   5.866 -0.0277  0.4283  0.1784
  116OSM   H12A12088   4.414   5.634   5.782 -0.0500 -1.2396  0.1683
  116OSM   H12B12089   4.494   5.740   5.884 -5.1500  1.7107 -2.1347
  116OSM    C1112090   4.413   5.568   5.990  0.4242  0.4664  0.0165
  116OSM   H11A12091   4.406   5.458   5.973  0.3758 -0.1431  3.3526
  116OSM   H11B12092   4.309   5.606   5.991 -1.0024 -3.0488  1.8474
  116OSM      P12093   4.498   5.737   6.177 -0.0927 -0.4217  0.3419
  116OSM    O1312094   4.640   5.776   6.174  0.3169 -0.1528  0.2544
  116OSM    O1412095   4.394   5.826   6.120  0.6685  0.0743  0.4060
  116OSM    O1112096   4.460   5.726   6.332  0.4817  0.2131 -0.1216
  116OSM    O1212097   4.480   5.596   6.117  0.0504  1.0890  0.3719
  116OSM    C1S12098   4.523   5.634   6.426  0.4200 -0.1636  0.6152
  116OSM    H1S12099   4.632   5.632   6.405  0.6601  1.8693  1.3855
  116OSM    H1T12100   4.472   5.536   6.428 -0.3099  0.1782  3.3473
  116OSM     NF12101   4.627   5.654   6.651  0.2782  0.0067  0.5308
  116OSM    HNF12102   4.603   5.588   6.722  0.6182 -0.9330 -0.1969
  116OSM    C2S12103   4.513   5.692   6.574  0.2107 -0.1831  0.0959
  116OSM    H2S12104   4.512   5.803   6.569  0.4984 -0.1299  1.0112
  116OSM    C3S12105   4.370   5.643   6.621 -0.3059  0.3893 -0.6844
  116OSM    H3S12106   4.380   5.533   6.626  1.5458  0.5698  1.3712
  116OSM     O312107   4.262   5.697   6.548  0.3756 -0.2440  0.5186
  116OSM    HO312108   4.308   5.758   6.489 -0.0904 -1.0056 -0.6663
  116OSM    C4S12109   4.364   5.685   6.768  0.8308 -0.8541  0.3928
  116OSM    H4S12110   4.408   5.613   6.838  1.0987 -1.2725 -0.1902
  116OSM    C5S12111   4.319   5.798   6.822  0.1572 -0.5323  0.8656
  116OSM    H5S12112   4.292   5.888   6.765  2.4267  0.0623  0.6089
  116OSM    C6S12113   4.326   5.828   6.973 -0.1947 -1.0768  0.2353
  116OSM    H6S12114   4.223   5.834   7.014 -0.3320  2.9078 -0.3285
  116OSM    H6T12115   4.378   5.926   6.978 -2.4983  0.2324  0.2171
  116OSM    C7S12116   4.401   5.723   7.051  0.2001 -0.0837 -0.2917
  116OSM    H7S12117   4.508   5.729   7.023 -0.2844  2.5379 -1.8766
  116OSM    H7T12118   4.375   5.616   7.037 -0.3935  0.0071  0.0825
  116OSM    C8S12119   4.398   5.740   7.207 -0.2433 -0.2502  0.4584
  116OSM    H8S12120   4.394   5.849   7.228 -1.5846 -0.1454 -0.2585
  116OSM    H8T12121   4.494   5.698   7.245 -0.5878  1.0905  2.9799
  116OSM    C9S12122   4.284   5.672   7.280 -0.7814  0.5344 -0.0229
  116OSM    H9S12123   4.293   5.562   7.270  0.1249  0.5913  0.1410
  116OSM    H9T12124   4.191   5.698   7.224 -0.9082 -0.1344 -0.1338
  116OSM   C10S12125   4.272   5.723   7.421 -0.2455  0.0526  0.0267
  116OSM   H10S12126   4.257   5.833   7.417  1.3792  0.2629 -0.8478
  116OSM   H10T12127   4.370   5.706   7.471 -0.2492  0.0719  0.0414
  116OSM   C11S12128   4.160   5.662   7.505  0.8193 -0.0607  0.7324
  116OSM   H11S12129   4.167   5.551   7.501  0.9537 -0.1935  3.0623
  116OSM   H11T12130   4.059   5.687   7.466  2.2466  0.3090 -3.0944
  116OSM   C12S12131   4.162   5.705   7.655 -0.1410 -0.2439 -0.0495
  116OSM   H12S12132   4.104   5.633   7.716  1.9935 -1.7873  0.2894
  116OSM   H12T12133   4.113   5.805   7.662  1.5494  0.5317  1.6566
  116OSM   C13S12134   4.296   5.717   7.724 -0.6513  0.1387 -0.1764
  116OSM   H13S12135   4.354   5.792   7.665  0.2128 -0.0740  0.3832
  116OSM   H13T12136   4.348   5.619   7.722  1.9390  1.3561 -3.2917
  116OSM   C14S12137   4.289   5.765   7.861  0.9373  1.1622 -0.8853
  116OSM   H14S12138   4.233   5.860   7.877  1.3722  1.2197  0.4175
  116OSM   H14T12139   4.390   5.807   7.882  0.4427  0.9675  2.3284
  116OSM   C15S12140   4.242   5.661   7.972 -0.3162  0.3067 -0.3519
  116OSM   H15S12141   4.298   5.566   7.961  0.1278  0.4756  0.3517
  116OSM   H15T12142   4.137   5.633   7.949  0.3742 -2.0428 -0.8738
  116OSM   C16S12143   4.249   5.715   8.115  0.1895  0.3466 -0.0183
  116OSM   H16S12144   4.228   5.823   8.134 -1.4717 -0.0753  0.7727
  116OSM   H16T12145   4.353   5.694   8.148  0.0647  1.4744  1.1729
  116OSM   C17S12146   4.155   5.628   8.207  0.4335  0.1833  0.5552
  116OSM   H17S12147   4.166   5.519   8.192 -0.4284 -0.1403  2.0951
  116OSM   H17T12148   4.053   5.670   8.195  0.8796  1.5337  1.1625
  116OSM   C18S12149   4.193   5.655   8.352 -0.2181  0.4471  0.3628
  116OSM   H18S12150   4.128   5.597   8.421 -0.9103 -0.7748 -1.2475
  116OSM   H18T12151   4.181   5.764   8.374 -0.2938  0.5351 -0.1059
  116OSM   H18U12152   4.296   5.617   8.365 -0.4055 -0.7940 -1.4925
  116OSM    C1F12153   4.750   5.698   6.633  0.3804 -0.1705  0.2773
  116OSM     OF12154   4.772   5.774   6.535  0.3982  0.3176  0.2629
  116OSM    C2F12155   4.865   5.651   6.724 -0.1874  0.2156 -0.3181
  116OSM    H2F12156   4.949   5.613   6.662  0.1019  0.3066  0.0132
  116OSM    H2G12157   4.825   5.564   6.780 -0.0752  0.0963 -0.4233
  116OSM    C3F12158   4.917   5.767   6.816 -0.4982 -0.0771 -0.2112
  116OSM    H3F12159   4.835   5.813   6.875  1.4229  2.7481  0.4535
  116OSM    H3G12160   4.960   5.851   6.758 -1.1685  1.6264  1.6510
  116OSM    C4F12161   5.020   5.730   6.922 -0.0928 -0.0957 -0.2252
  116OSM    H4F12162   5.098   5.669   6.872 -0.9588 -1.4709  0.0553
  116OSM    H4G12163   4.986   5.654   6.995  1.5999  1.6415  2.5429
  116OSM    C5F12164   5.078   5.847   6.994 -0.1104  0.5890  0.1580
  116OSM    H5F12165   4.998   5.891   7.057 -0.3774 -0.2742  0.4373
  116OSM    H5G12166   5.108   5.918   6.914  2.6381 -1.3458 -0.6739
  116OSM    C6F12167   5.197   5.801   7.080 -0.0822  0.3145 -0.3460
  116OSM    H6F12168   5.290   5.784   7.022  1.1823  1.7604  1.1432
  116OSM    H6G12169   5.170   5.706   7.131 -0.6375  0.2904 -0.6817
  116OSM    C7F12170   5.233   5.905   7.186 -0.0872  0.7879  0.2473
  116OSM    H7F12171   5.150   5.926   7.257  1.0878 -0.4449  2.0677
  116OSM    H7G12172   5.257   5.994   7.124  1.7662 -1.0694 -1.8703
  116OSM    C8F12173   5.363   5.878   7.258  0.4278  0.3366 -0.5109
  116OSM    H8F12174   5.397   5.977   7.296  0.1108  0.0332  0.6030
  116OSM    H8G12175   5.451   5.856   7.193  3.1178  3.6243  1.6999
  116OSM    C9F12176   5.365   5.770   7.366  0.8433 -0.4012 -0.1331
  116OSM    H9F12177   5.381   5.667   7.330  1.7505 -1.0582  2.0205
  116OSM   C10F12178   5.358   5.790   7.500  0.2940 -1.3693  0.4487
  116OSM   H10F12179   5.372   5.707   7.571  1.2119 -0.7125  1.0391
  116OSM   C11F12180   5.334   5.931   7.553 -0.3146  0.0337 -0.1390
  116OSM   H11F12181   5.270   5.991   7.486  1.3764 -0.5962 -2.4315
  116OSM   H11G12182   5.432   5.984   7.555  0.9277 -2.1588  0.2356
  116OSM   C12F12183   5.279   5.922   7.692  0.2271  0.6397 -0.2875
  116OSM   H12F12184   5.284   6.025   7.734  0.8200  1.7512 -2.8883
  116OSM   H12G12185   5.345   5.858   7.755  0.4409 -0.6737 -1.7753
  116OSM   C13F12186   5.134   5.868   7.709 -0.5227  0.9268 -0.8489
  116OSM   H13F12187   5.128   5.763   7.673  2.2108  0.1903  0.5609
  116OSM   H13G12188   5.062   5.931   7.652 -0.3300  0.6129 -1.4512
  116OSM   C14F12189   5.090   5.855   7.854 -0.5997  0.4550 -0.1236
  116OSM   H14F12190   5.161   5.790   7.910 -0.3065 -0.4957 -1.5480
  116OSM   H14G12191   4.988   5.811   7.853 -0.3754 -0.0768 -1.1780
  116OSM   C15F12192   5.091   5.986   7.938  0.1939 -0.2800 -0.0981
  116OSM   H15F12193   5.007   6.041   7.892  1.2439  0.8141 -0.7800
  116OSM   H15G12194   5.179   6.050   7.915  0.5315 -0.7785 -0.2142
  116OSM   C16F12195   5.050   5.952   8.086  0.5916 -0.5343  0.0334
  116OSM   H16F12196   5.127   5.877   8.113 -0.4916 -2.6621 -2.3190
  116OSM   H16G12197   4.943   5.926   8.099  0.3498  1.0520  1.5775
  116OSM   C17F12198   5.064   6.082   8.174 -0.1358 -0.7226 -0.4794
  116OSM   H17F12199   5.148   6.146   8.142  0.0801 -0.9615 -0.3911
  116OSM   H17G12200   5.086   6.057   8.280 -0.9146  1.3097  0.2014
  116OSM   C18F12201   4.937   6.164   8.162  0.3825 -0.9573  0.3093
  116OSM   H18F12202   4.928   6.258   8.221 -0.9803 -1.0378  0.2669
  116OSM   H18G12203   4.850   6.101   8.190 -0.5588  0.2774  0.2926
  116OSM   H18H12204   4.930   6.196   8.056  1.6630  0.8939  0.7342
  117OSM      N12205   3.028   1.773   6.276  0.0161 -0.3493  0.8027
  117OSM    C1512206   2.945   1.897   6.279 -0.3495  0.2100  0.2504
  117OSM   H15A12207   2.988   1.963   6.205  0.7844 -1.4340 -0.6085
  117OSM   H15B12208   2.940   1.945   6.376  0.4261 -0.6886  0.7553
  117OSM   H15C12209   2.845   1.869   6.251 -0.7660 -0.4350  2.2430
  117OSM    C1412210   3.041   1.707   6.141  0.2187  0.7907  0.0537
  117OSM   H14A12211   2.946   1.686   6.095  0.1241  0.9269  0.1866
  117OSM   H14B12212   3.092   1.613   6.157  0.1294  0.9584  1.4601
  117OSM   H14C12213   3.104   1.761   6.072 -1.4397  1.2552 -1.1590
  117OSM    C1312214   3.157   1.820   6.322  0.1537 -0.1384 -0.4327
  117OSM   H13A12215   3.226   1.738   6.312  0.8267  0.4794 -0.9480
  117OSM   H13B12216   3.149   1.835   6.428 -0.9672  1.4123 -0.6967
  117OSM   H13C12217   3.196   1.904   6.266 -0.5135  0.1882 -0.4214
  117OSM    C1212218   2.964   1.678   6.373  0.4712 -0.4834  0.7528
  117OSM   H12A12219   2.856   1.686   6.377  0.5141 -0.2650  1.5426
  117OSM   H12B12220   3.003   1.709   6.468  0.4677  2.4589 -0.0912
  117OSM    C1112221   3.002   1.523   6.367 -0.1388 -0.4082 -0.2201
  117OSM   H11A12222   2.969   1.479   6.271 -0.0355  0.7348 -0.8022
  117OSM   H11B12223   2.949   1.477   6.452 -0.6018  0.9644  0.2582
  117OSM      P12224   3.227   1.419   6.307  0.0646  0.1325  0.1808
  117OSM    O1312225   3.158   1.389   6.186  0.1345  0.3051 -0.1542
  117OSM    O1412226   3.366   1.474   6.293  0.2055  0.6373 -0.2511
  117OSM    O1112227   3.227   1.284   6.391 -0.0211 -0.5777  0.0733
  117OSM    O1212228   3.144   1.516   6.400 -0.0913  0.1107  0.1562
  117OSM    C1S12229   3.275   1.292   6.529  0.6294  0.3399 -0.0306
  117OSM    H1S12230   3.227   1.381   6.575 -1.1254  0.0148 -1.1187
  117OSM    H1T12231   3.386   1.290   6.529  0.7068 -2.8461 -1.4136
  117OSM     NF12232   3.298   1.185   6.753 -0.1965 -0.4909 -0.2649
  117OSM    HNF12233   3.388   1.142   6.760  1.0437  2.1856  1.8955
  117OSM    C2S12234   3.228   1.168   6.624  0.5661 -0.7318 -0.0607
  117OSM    H2S12235   3.121   1.192   6.643  0.2400  0.1092 -2.6047
  117OSM    C3S12236   3.254   1.031   6.564  0.7360  0.6210 -0.3246
  117OSM    H3S12237   3.361   1.002   6.557  0.9546  1.6040 -1.4850
  117OSM     O312238   3.226   1.010   6.425  0.0731 -0.2055 -0.1546
  117OSM    HO312239   3.177   1.089   6.401  0.1161  0.0099  0.4336
  117OSM    C4S12240   3.188   0.926   6.650 -0.2267 -0.2033 -0.2370
  117OSM    H4S12241   3.247   0.892   6.736 -0.7664  0.1178  0.2648
  117OSM    C5S12242   3.070   0.863   6.626  0.0578  0.1335  0.3673
  117OSM    H5S12243   3.013   0.898   6.539  0.9592  1.4604  0.2800
  117OSM    C6S12244   3.009   0.757   6.706 -0.1213 -0.0431 -0.0902
  117OSM    H6S12245   3.066   0.662   6.703  2.0567  1.0679  2.4224
  117OSM    H6T12246   2.904   0.743   6.674  0.3546  0.7086 -2.2135
  117OSM    C7S12247   3.013   0.788   6.855 -0.2363 -0.1261 -0.1745
  117OSM    H7S12248   2.955   0.879   6.882  0.3797  0.3090 -0.3022
  117OSM    H7T12249   3.116   0.804   6.895 -0.3841 -0.4422  0.3464
  117OSM    C8S12250   2.959   0.674   6.945  0.2397 -0.3102 -0.3602
  117OSM    H8S12251   3.039   0.598   6.960  1.2641  0.5263 -1.3990
  117OSM    H8T12252   2.879   0.620   6.890  1.2570 -2.8517  0.4981
  117OSM    C9S12253   2.905   0.709   7.093 -0.1198  0.5902  0.3275
  117OSM    H9S12254   2.817   0.772   7.070  0.6885  1.1817 -1.2489
  117OSM    H9T12255   2.979   0.763   7.156  0.6124 -0.4754  0.4000
  117OSM   C10S12256   2.864   0.580   7.166  0.3596 -0.3336  0.5179
  117OSM   H10S12257   2.953   0.524   7.202 -0.3712  0.0528  3.0899
  117OSM   H10T12258   2.798   0.521   7.098 -0.5177  0.9077  0.2469
  117OSM   C11S12259   2.775   0.599   7.295 -0.2085 -0.0270 -0.0998
  117OSM   H11S12260   2.732   0.499   7.314  1.2065 -0.8893 -1.2429
  117OSM   H11T12261   2.694   0.668   7.264 -3.5970 -3.7347 -0.2096
  117OSM   C12S12262   2.864   0.654   7.414 -0.1506  0.3912 -1.1139
  117OSM   H12S12263   2.900   0.754   7.383  0.0270  0.9402  0.7353
  117OSM   H12T12264   2.954   0.588   7.418  0.6135  1.4759  0.1163
  117OSM   C13S12265   2.802   0.639   7.553  0.2059  0.2953  0.4906
  117OSM   H13S12266   2.770   0.541   7.593 -1.1038  1.0477  1.3754
  117OSM   H13T12267   2.712   0.703   7.548 -0.6995 -1.0163 -0.8129
  117OSM   C14S12268   2.893   0.701   7.654  0.0165 -0.0955 -0.1420
  117OSM   H14S12269   2.927   0.804   7.630  0.4744 -0.2441 -0.1570
  117OSM   H14T12270   2.990   0.647   7.652 -0.6581 -1.3712  0.5191
  117OSM   C15S12271   2.836   0.692   7.792 -0.5234  0.2424 -0.5125
  117OSM   H15S12272   2.823   0.583   7.808  0.7280  0.1769  0.1814
  117OSM   H15T12273   2.738   0.744   7.800 -1.0150 -0.7166 -0.2027
  117OSM   C16S12274   2.931   0.749   7.897 -0.8260 -0.0890 -0.2656
  117OSM   H16S12275   2.865   0.788   7.977 -0.0035 -0.0091  0.3954
  117OSM   H16T12276   2.986   0.836   7.856 -0.9593  0.0638 -0.1175
  117OSM   C17S12277   3.038   0.660   7.957  0.1614  0.2530  0.1327
  117OSM   H17S12278   3.101   0.604   7.886  0.7784  0.8433  0.2079
  117OSM   H17T12279   2.984   0.581   8.014 -1.5173  0.4979 -1.0360
  117OSM   C18S12280   3.129   0.731   8.059  0.1052 -0.0473 -0.0908
  117OSM   H18S12281   3.069   0.751   8.151 -0.8071 -1.2028 -0.4163
  117OSM   H18T12282   3.159   0.831   8.023 -0.8333  0.2255 -0.1533
  117OSM   H18U12283   3.222   0.685   8.098 -0.2646 -0.3369  0.4794
  117OSM    C1F12284   3.260   1.285   6.836 -0.0654  0.8065  0.2429
  117OSM     OF12285   3.168   1.360   6.804 -0.7483 -0.0374  0.3339
  117OSM    C2F12286   3.341   1.292   6.960 -0.6259  0.6539  0.3269
  117OSM    H2F12287   3.411   1.375   6.939  1.4505 -1.6397 -2.7494
  117OSM    H2G12288   3.406   1.203   6.973  1.2110  1.4025 -2.6706
  117OSM    C3F12289   3.265   1.307   7.094  0.1231 -0.1485  0.5522
  117OSM    H3F12290   3.207   1.219   7.130  1.1728 -1.2627 -0.3992
  117OSM    H3G12291   3.195   1.394   7.091  0.0607 -0.2171 -1.1177
  117OSM    C4F12292   3.362   1.323   7.212  0.1109  0.3249 -0.3191
  117OSM    H4F12293   3.440   1.400   7.193  0.2282  0.2601 -0.1119
  117OSM    H4G12294   3.423   1.231   7.225 -0.2474  0.0337 -0.6779
  117OSM    C5F12295   3.298   1.365   7.339  0.9066 -0.2741 -0.7547
  117OSM    H5F12296   3.377   1.366   7.418  1.3888  2.8276 -1.1295
  117OSM    H5G12297   3.236   1.280   7.374  0.7168  0.0504 -0.2915
  117OSM    C6F12298   3.216   1.497   7.329  0.2127 -0.0321  0.5263
  117OSM    H6F12299   3.124   1.467   7.274  0.5419  1.7580 -1.0679
  117OSM    H6G12300   3.273   1.565   7.263  0.7564 -1.5016 -0.5714
  117OSM    C7F12301   3.180   1.562   7.457  0.3298  0.5986  0.0763
  117OSM    H7F12302   3.124   1.657   7.440  0.8657  1.0091  0.5308
  117OSM    H7G12303   3.272   1.587   7.515 -0.9132 -0.1746  2.5283
  117OSM    C8F12304   3.101   1.469   7.552 -1.2537  0.2676  1.4231
  117OSM    H8F12305   3.170   1.387   7.581 -2.0084  0.1222  2.9232
  117OSM    H8G12306   3.019   1.423   7.493  0.5264  0.7237 -1.6183
  117OSM    C9F12307   3.042   1.540   7.675 -0.4421  0.5341 -0.0039
  117OSM    H9F12308   2.970   1.618   7.645 -1.0893 -0.0029  0.1268
  117OSM   C10F12309   3.090   1.544   7.803  0.0558  0.4909  0.8408
  117OSM   H10F12310   3.022   1.599   7.870 -1.6378 -0.2235 -0.2374
  117OSM   C11F12311   3.213   1.476   7.861 -0.4162  0.4105  0.4637
  117OSM   H11F12312   3.254   1.413   7.779 -2.0492  2.7481 -2.3231
  117OSM   H11G12313   3.178   1.411   7.944  0.7874 -0.1242  0.5659
  117OSM   C12F12314   3.322   1.559   7.923 -0.4803  0.9021  0.8037
  117OSM   H12F12315   3.375   1.617   7.845 -1.6805 -0.3139 -0.9945
  117OSM   H12G12316   3.399   1.488   7.961 -1.7134 -0.5584  0.6838
  117OSM   C13F12317   3.286   1.650   8.045  0.5915 -0.3482  0.2136
  117OSM   H13F12318   3.223   1.734   8.009 -0.9885 -1.3919  0.4305
  117OSM   H13G12319   3.373   1.698   8.096  1.6030  0.9141 -2.4916
  117OSM   C14F12320   3.203   1.593   8.166  0.2309  0.7229  0.1801
  117OSM   H14F12321   3.265   1.501   8.172 -1.2312 -0.2049  2.7962
  117OSM   H14G12322   3.099   1.560   8.148  0.7082  0.2587 -1.9588
  117OSM   C15F12323   3.225   1.663   8.302 -0.9400 -0.0049 -0.3885
  117OSM   H15F12324   3.198   1.771   8.296  0.3994  0.5657  2.1421
  117OSM   H15G12325   3.331   1.669   8.334 -0.8573 -2.1152 -0.1403
  117OSM   C16F12326   3.156   1.590   8.424  0.2373  0.3868  0.1191
  117OSM   H16F12327   3.049   1.580   8.395  0.8108 -1.0394 -1.7595
  117OSM   H16G12328   3.157   1.647   8.519  0.2024 -3.3210  2.5429
  117OSM   C17F12329   3.212   1.454   8.462 -0.6296  0.6572 -0.3509
  117OSM   H17F12330   3.223   1.391   8.372  1.3438  0.9420 -0.3450
  117OSM   H17G12331   3.311   1.450   8.512  0.3438  0.8592 -2.1538
  117OSM   C18F12332   3.118   1.379   8.554 -0.4610 -0.0809 -0.3821
  117OSM   H18F12333   3.167   1.291   8.601  2.9379  1.4229 -0.8047
  117OSM   H18G12334   3.020   1.348   8.512 -1.2880  0.8623  0.7898
  117OSM   H18H12335   3.100   1.452   8.636  3.2342  0.0822  0.4678
  118OSM      N12336   5.831   1.166   5.982 -0.3968 -0.6398  0.5187
  118OSM    C1512337   5.768   1.095   5.862 -0.2793 -0.0381 -0.2036
  118OSM   H15A12338   5.839   1.055   5.791 -1.6178 -0.0796 -1.5838
  118OSM   H15B12339   5.691   1.158   5.819 -0.6371  0.5919  1.3053
  118OSM   H15C12340   5.710   1.010   5.894 -0.6395  0.1719 -0.2924
  118OSM    C1412341   5.915   1.066   6.054 -0.4054  0.1011  0.2982
  118OSM   H14A12342   5.864   1.003   6.125  0.4076 -0.0816  0.7237
  118OSM   H14B12343   5.986   1.124   6.112  1.3248 -1.2088 -0.4433
  118OSM   H14C12344   5.968   0.996   5.993 -0.5279  1.4334 -1.4101
  118OSM    C1312345   5.917   1.278   5.935  0.1192  0.5611  0.0595
  118OSM   H13A12346   5.997   1.252   5.868 -0.6528 -1.6904 -0.0702
  118OSM   H13B12347   5.974   1.326   6.014  1.2764 -2.1502  0.9900
  118OSM   H13C12348   5.870   1.369   5.900  2.5641  1.2897 -1.5576
  118OSM    C1212349   5.721   1.218   6.072  0.0945 -0.1156 -0.2478
  118OSM   H12A12350   5.656   1.139   6.106  0.9571  0.4018  3.0029
  118OSM   H12B12351   5.668   1.288   6.009  1.2595  0.1541 -0.9685
  118OSM    C1112352   5.767   1.292   6.198  0.2009  0.2638 -0.2481
  118OSM   H11A12353   5.837   1.375   6.176 -0.3541  0.2492 -2.2673
  118OSM   H11B12354   5.798   1.221   6.278 -0.5004 -1.1280 -1.1785
  118OSM      P12355   5.603   1.490   6.197  0.0882  0.0533 -0.1581
  118OSM    O1312356   5.619   1.495   6.053 -0.1228 -0.3645 -0.8239
  118OSM    O1412357   5.465   1.510   6.253  0.3223  0.0727  0.0252
  118OSM    O1112358   5.705   1.594   6.262 -0.3412  0.1630  0.5023
  118OSM    O1212359   5.653   1.356   6.251 -0.0599 -0.5874  0.1174
  118OSM    C1S12360   5.720   1.607   6.406  0.0781  0.1272 -0.1449
  118OSM    H1S12361   5.680   1.516   6.455 -0.2009  0.7690  0.8408
  118OSM    H1T12362   5.668   1.700   6.437  0.4077  0.8375 -1.6437
  118OSM     NF12363   5.865   1.634   6.595  0.1413 -0.0585  0.0893
  118OSM    HNF12364   5.854   1.727   6.631  2.2681 -0.1840  1.2667
  118OSM    C2S12365   5.864   1.617   6.451 -0.1397  0.4139  1.0233
  118OSM    H2S12366   5.916   1.525   6.418  0.7787  1.3022 -0.0940
  118OSM    C3S12367   5.942   1.733   6.383  0.0777  0.0141 -0.2680
  118OSM    H3S12368   5.901   1.825   6.430 -1.5537 -0.0764 -1.4287
  118OSM     O312369   5.914   1.737   6.244  0.1969  0.3836  0.3307
  118OSM    HO312370   5.840   1.675   6.244  0.2817  0.2782 -0.1569
  118OSM    C4S12371   6.092   1.726   6.402  0.3661 -0.5520 -0.3988
  118OSM    H4S12372   6.143   1.635   6.367  0.3105 -0.4988 -0.6197
  118OSM    C5S12373   6.171   1.810   6.472 -0.7406  0.1050  0.5314
  118OSM    H5S12374   6.127   1.902   6.513  1.0453  1.2431  0.0005
  118OSM    C6S12375   6.320   1.800   6.481  0.4665 -0.0483  0.3932
  118OSM    H6S12376   6.369   1.818   6.383  1.4067 -0.9764  0.6760
  118OSM    H6T12377   6.334   1.694   6.511  0.5873 -0.2463 -0.3560
  118OSM    C7S12378   6.389   1.885   6.591  0.9150  0.3101  0.6808
  118OSM    H7S12379   6.401   1.990   6.557  1.2201 -0.5275 -1.9644
  118OSM    H7T12380   6.493   1.848   6.589  1.2947  1.3596 -1.4558
  118OSM    C8S12381   6.317   1.884   6.728 -0.0068 -0.4820  0.5759
  118OSM    H8S12382   6.286   1.782   6.758 -2.2993 -0.0635 -0.1701
  118OSM    H8T12383   6.225   1.946   6.730  0.5532  0.3558  1.9936
  118OSM    C9S12384   6.402   1.949   6.841 -0.0408  0.7430  1.1323
  118OSM    H9S12385   6.383   2.058   6.829  1.2673  1.0335  1.5065
  118OSM    H9T12386   6.508   1.941   6.807 -0.2162  0.1138  0.7208
  118OSM   C10S12387   6.377   1.883   6.979  0.2967  0.2688  0.3651
  118OSM   H10S12388   6.398   1.774   6.973  1.0984  0.4961 -2.1732
  118OSM   H10T12389   6.271   1.914   6.993 -0.2560 -0.8855 -0.9552
  118OSM   C11S12390   6.455   1.948   7.091 -0.0874  0.4503 -0.3427
  118OSM   H11S12391   6.562   1.954   7.061  0.9226 -3.2574  1.9213
  118OSM   H11T12392   6.469   1.882   7.179  3.6225  1.8734  0.2989
  118OSM   C12S12393   6.403   2.081   7.138  0.1093  0.0860 -1.1053
  118OSM   H12S12394   6.305   2.069   7.189  1.4896 -0.1651  1.6912
  118OSM   H12T12395   6.373   2.145   7.052 -0.5318 -0.1249 -1.0442
  118OSM   C13S12396   6.512   2.159   7.215  0.8580 -0.3982  0.3715
  118OSM   H13S12397   6.468   2.261   7.222  2.8657  0.5895 -0.6068
  118OSM   H13T12398   6.603   2.167   7.152 -0.0857 -0.7833 -1.0818
  118OSM   C14S12399   6.537   2.116   7.366  0.1254 -0.6026  0.4444
  118OSM   H14S12400   6.598   2.192   7.418 -1.9112  0.8881  0.7997
  118OSM   H14T12401   6.589   2.018   7.366  1.0154 -0.1483 -0.5360
  118OSM   C15S12402   6.406   2.101   7.456  0.2122  0.2120 -0.1084
  118OSM   H15S12403   6.357   2.005   7.427  0.9272 -0.3732  0.5724
  118OSM   H15T12404   6.342   2.190   7.439 -0.5568 -0.4976 -1.0510
  118OSM   C16S12405   6.440   2.081   7.604 -0.2803 -0.6219 -0.8488
  118OSM   H16S12406   6.489   2.172   7.645 -0.4366  0.2584 -2.5104
  118OSM   H16T12407   6.505   1.993   7.623 -0.5646 -0.4462  1.1844
  118OSM   C17S12408   6.321   2.055   7.698  0.2250  0.5600  0.2958
  118OSM   H17S12409   6.301   1.946   7.691 -1.1066  0.7463  0.8960
  118OSM   H17T12410   6.236   2.114   7.657  1.7712  1.2550 -2.1704
  118OSM   C18S12411   6.351   2.086   7.846  0.6049 -0.7974 -0.4640
  118OSM   H18S12412   6.299   2.012   7.910 -1.1160  2.9721  2.9300
  118OSM   H18T12413   6.336   2.194   7.866  0.3342 -0.8553 -0.3559
  118OSM   H18U12414   6.460   2.067   7.855  1.0241  2.0211  1.7862
  118OSM    C1F12415   5.874   1.528   6.671  0.3616  0.3940  0.2045
  118OSM     OF12416   5.894   1.417   6.627 -0.3459  0.4694 -0.5284
  118OSM    C2F12417   5.863   1.547   6.817  0.3757 -0.2240  0.2421
  118OSM    H2F12418   5.758   1.562   6.850  0.7542  2.4225  0.4918
  118OSM    H2G12419   5.922   1.640   6.834  1.1919 -0.4034 -1.4559
  118OSM    C3F12420   5.911   1.437   6.897  0.0403  0.2170 -0.2251
  118OSM    H3F12421   6.020   1.424   6.878 -0.0010  0.3339 -0.5502
  118OSM    H3G12422   5.862   1.340   6.873 -1.0979  0.3669  1.3343
  118OSM    C4F12423   5.877   1.457   7.045 -0.5045 -0.2693 -0.3861
  118OSM    H4F12424   5.903   1.559   7.078 -0.6453 -0.6627  1.0056
  118OSM    H4G12425   5.940   1.390   7.108 -1.5897 -0.5318  0.4372
  118OSM    C5F12426   5.733   1.433   7.092  0.0227  0.3984  0.1560
  118OSM    H5F12427   5.698   1.329   7.075  1.3318 -0.2217  1.0210
  118OSM    H5G12428   5.665   1.499   7.034 -0.3264  0.7409  0.9409
  118OSM    C6F12429   5.727   1.469   7.239  0.4032  0.5330  0.3552
  118OSM    H6F12430   5.753   1.574   7.265 -1.3346  0.7545  1.3308
  118OSM    H6G12431   5.800   1.403   7.291 -0.0397 -0.7396 -0.5670
  118OSM    C7F12432   5.589   1.443   7.310 -0.2550 -0.8435 -0.2897
  118OSM    H7F12433   5.552   1.339   7.295  0.3583 -1.2287  0.7349
  118OSM    H7G12434   5.509   1.509   7.271  0.4507 -0.3342 -0.8891
  118OSM    C8F12435   5.587   1.471   7.467 -0.2717  0.3094  0.3072
  118OSM    H8F12436   5.479   1.490   7.486 -0.7786 -1.3634 -0.7420
  118OSM    H8G12437   5.638   1.565   7.499  1.7841 -0.4900 -0.4367
  118OSM    C9F12438   5.648   1.357   7.548 -0.0958  0.9025  0.5233
  118OSM    H9F12439   5.650   1.268   7.485  1.9964  1.3104 -0.0507
  118OSM   C10F12440   5.698   1.353   7.670  0.2358 -0.1714 -0.0894
  118OSM   H10F12441   5.741   1.260   7.709  2.4979  0.6664 -0.4205
  118OSM   C11F12442   5.704   1.473   7.767 -0.0654  0.3646  0.6627
  118OSM   H11F12443   5.722   1.575   7.726 -1.2558  0.1359 -0.4993
  118OSM   H11G12444   5.794   1.455   7.829  1.2441 -0.7600 -1.4333
  118OSM   C12F12445   5.581   1.488   7.862 -0.3067  0.1140  0.4675
  118OSM   H12F12446   5.615   1.543   7.953 -0.3995 -0.4890  0.8680
  118OSM   H12G12447   5.545   1.388   7.893  0.7635 -0.2922  0.4354
  118OSM   C13F12448   5.468   1.568   7.795  0.3247  0.1751 -0.2315
  118OSM   H13F12449   5.427   1.513   7.707  3.3380 -2.3159 -0.2597
  118OSM   H13G12450   5.509   1.663   7.755  0.4745 -0.7406 -2.4303
  118OSM   C14F12451   5.349   1.602   7.891 -0.1539  0.5982  0.0698
  118OSM   H14F12452   5.386   1.667   7.974  1.5999  1.2640 -1.1799
  118OSM   H14G12453   5.323   1.502   7.931  2.5008  0.4154  1.5620
  118OSM   C15F12454   5.224   1.667   7.827  0.1213  0.0949 -0.0694
  118OSM   H15F12455   5.196   1.621   7.730  1.0741  0.4252 -0.5167
  118OSM   H15G12456   5.250   1.774   7.812 -1.3315  0.6281  0.9605
  118OSM   C16F12457   5.105   1.678   7.916  0.6838 -0.0677 -1.4343
  118OSM   H16F12458   5.080   1.573   7.938 -3.5267  1.0064 -0.1899
  118OSM   H16G12459   5.007   1.710   7.874  0.4688  0.4555 -0.5642
  118OSM   C17F12460   5.106   1.749   8.056  0.1719  0.3870  0.0663
  118OSM   H17F12461   5.160   1.841   8.024  2.4186 -0.0446  2.3199
  118OSM   H17G12462   5.162   1.694   8.134 -0.0445  1.5892  1.1006
  118OSM   C18F12463   4.977   1.801   8.105  0.6162  0.2716  0.1471
  118OSM   H18F12464   4.913   1.719   8.143  0.2784  0.4969  0.0645
  118OSM   H18G12465   4.926   1.851   8.020 -0.4856 -3.5958 -1.7535
  118OSM   H18H12466   4.994   1.870   8.190 -0.4996  0.8959 -0.1236
  119OSM      N12467   0.369   1.811   5.494  0.3692 -0.1022 -0.1937
  119OSM    C1512468   0.248   1.902   5.513 -0.7903 -0.2454 -0.4916
  119OSM   H15A12469   0.219   1.892   5.616  2.1657 -1.9451  0.2955
  119OSM   H15B12470   0.171   1.874   5.443  0.3048 -2.6619 -0.8331
  119OSM   H15C12471   0.280   2.003   5.494  1.2571 -0.5194  1.1721
  119OSM    C1412472   0.413   1.827   5.355 -0.6573 -1.0520 -0.0027
  119OSM   H14A12473   0.474   1.746   5.317  0.3066  0.1572 -1.1371
  119OSM   H14B12474   0.497   1.894   5.346 -1.3435 -0.1170  0.4919
  119OSM   H14C12475   0.336   1.852   5.284  0.5617  2.6398 -0.2087
  119OSM    C1312476   0.478   1.868   5.583  0.0359  0.4754 -0.1110
  119OSM   H13A12477   0.462   1.857   5.689  1.2147 -0.3038  0.0020
  119OSM   H13B12478   0.501   1.973   5.569  2.1999  0.0124 -0.4548
  119OSM   H13C12479   0.557   1.796   5.572 -0.5762 -0.4395  1.2343
  119OSM    C1212480   0.336   1.670   5.525  0.2743  0.2460 -0.3821
  119OSM   H12A12481   0.396   1.599   5.470 -0.5740 -0.9388  0.1822
  119OSM   H12B12482   0.239   1.646   5.483 -0.2281 -0.2540  1.0204
  119OSM    C1112483   0.334   1.640   5.677  0.0420 -0.2204  0.0630
  119OSM   H11A12484   0.439   1.656   5.712 -0.3391  0.2691  1.0421
  119OSM   H11B12485   0.320   1.530   5.684  2.0648 -0.5441 -0.4347
  119OSM      P12486   0.103   1.679   5.776 -0.2775  0.0476  0.0940
  119OSM    O1312487   0.035   1.799   5.831 -0.2486  0.4912 -0.2134
  119OSM    O1412488   0.033   1.621   5.662  0.1615  0.2084 -0.1589
  119OSM    O1112489   0.114   1.577   5.895  0.6313 -0.4528 -0.2408
  119OSM    O1212490   0.246   1.720   5.740 -0.0434 -0.8823  0.2410
  119OSM    C1S12491   0.224   1.571   5.991  0.8304  0.5291 -0.0212
  119OSM    H1S12492   0.310   1.636   5.964  1.7514 -0.4619  0.4718
  119OSM    H1T12493   0.265   1.469   6.002 -2.5841 -0.8066  1.7971
  119OSM     NF12494   0.289   1.607   6.228 -0.0537 -0.1688  0.4132
  119OSM    HNF12495   0.299   1.519   6.276 -1.3513  0.7785  2.5906
  119OSM    C2S12496   0.176   1.602   6.135 -0.3449 -0.1711  0.4454
  119OSM    H2S12497   0.118   1.697   6.134  0.0876  0.0925 -0.5621
  119OSM    C3S12498   0.068   1.495   6.177  0.7077  0.6564  0.0187
  119OSM    H3S12499   0.123   1.399   6.180  0.7886  0.6359 -1.6076
  119OSM     O312500  -0.041   1.467   6.078 -0.4995  0.7184 -0.8192
  119OSM    HO312501  -0.026   1.514   5.995 -0.8024  0.4519 -1.0265
  119OSM    C4S12502   0.012   1.517   6.316 -0.5424  0.1705  0.6504
  119OSM    H4S12503   0.068   1.464   6.394  1.4166 -0.9872 -1.4334
  119OSM    C5S12504  -0.093   1.600   6.340 -0.1895 -0.8108 -1.2952
  119OSM    H5S12505  -0.154   1.647   6.262 -1.4978  0.0403  0.1920
  119OSM    C6S12506  -0.162   1.621   6.471 -0.3506 -0.0230  0.3287
  119OSM    H6S12507  -0.258   1.565   6.472 -0.5909  0.3927  1.0405
  119OSM    H6T12508  -0.183   1.730   6.479  0.0617 -0.0431  1.9935
  119OSM    C7S12509  -0.077   1.582   6.591 -0.0282 -0.2229  0.0291
  119OSM    H7S12510   0.027   1.619   6.598  0.5308 -1.7682  0.1717
  119OSM    H7T12511  -0.066   1.473   6.608  0.3227 -0.4333 -1.3916
  119OSM    C8S12512  -0.147   1.637   6.716  0.3153  0.0873  0.1802
  119OSM    H8S12513  -0.257   1.636   6.700  0.2660  0.0873  0.5126
  119OSM    H8T12514  -0.120   1.743   6.734  2.1301 -0.1054 -1.1365
  119OSM    C9S12515  -0.113   1.551   6.841  0.0220 -0.0789 -0.2893
  119OSM    H9S12516  -0.003   1.551   6.850 -0.1367 -0.9404  2.3207
  119OSM    H9T12517  -0.142   1.447   6.814  0.1825  0.4864 -3.0230
  119OSM   C10S12518  -0.166   1.599   6.983 -0.5145 -0.0742  0.0353
  119OSM   H10S12519  -0.275   1.581   6.990 -0.6851  1.5218  2.8515
  119OSM   H10T12520  -0.140   1.707   6.991  3.0938 -0.6879 -1.1557
  119OSM   C11S12521  -0.097   1.541   7.106  0.5022 -0.2561  0.2932
  119OSM   H11S12522   0.007   1.578   7.119  1.2141 -2.1016  0.0362
  119OSM   H11T12523  -0.103   1.431   7.097 -1.1812 -0.2269  0.7315
  119OSM   C12S12524  -0.173   1.585   7.237 -0.7212 -0.8681 -0.1048
  119OSM   H12S12525  -0.284   1.574   7.239 -1.0894  2.0388  0.0149
  119OSM   H12T12526  -0.149   1.693   7.242  2.0220 -1.3318 -1.3516
  119OSM   C13S12527  -0.118   1.503   7.353  0.2996 -0.0167 -0.4430
  119OSM   H13S12528  -0.007   1.506   7.346  0.4832 -3.3533 -0.4619
  119OSM   H13T12529  -0.160   1.401   7.340 -0.9802  0.2074  1.5034
  119OSM   C14S12530  -0.151   1.576   7.478 -0.3292  0.4064 -0.7669
  119OSM   H14S12531  -0.125   1.684   7.468 -1.8254  0.8839  0.1739
  119OSM   H14T12532  -0.091   1.537   7.564  0.3906 -1.4878 -2.0813
  119OSM   C15S12533  -0.296   1.554   7.521  0.4536  0.2432  0.2395
  119OSM   H15S12534  -0.327   1.448   7.507 -0.4183  0.5132  0.0431
  119OSM   H15T12535  -0.355   1.611   7.447 -0.7284 -1.1490  0.0585
  119OSM   C16S12536  -0.304   1.591   7.670  0.2177  0.5380  0.8812
  119OSM   H16S12537  -0.283   1.698   7.690  1.2578  0.7935 -1.3496
  119OSM   H16T12538  -0.232   1.526   7.724 -0.6535 -1.9189 -0.7619
  119OSM   C17S12539  -0.448   1.578   7.732  0.4263 -0.3588  0.4096
  119OSM   H17S12540  -0.497   1.479   7.719  0.0108 -0.1516  0.3922
  119OSM   H17T12541  -0.518   1.647   7.682 -0.1097 -2.4492 -1.9136
  119OSM   C18S12542  -0.465   1.615   7.877 -0.5167  0.2567 -0.2783
  119OSM   H18S12543  -0.461   1.721   7.911  1.7149 -0.1153  0.8062
  119OSM   H18T12544  -0.392   1.554   7.935 -3.2368 -1.6636  1.3849
  119OSM   H18U12545  -0.561   1.573   7.915 -0.1644 -1.4437 -1.1656
  119OSM    C1F12546   0.384   1.697   6.229 -0.4300  0.2070  0.4126
  119OSM     OF12547   0.373   1.802   6.161  0.5625  0.3476 -0.0547
  119OSM    C2F12548   0.506   1.652   6.307 -0.2413  0.1314  0.2514
  119OSM    H2F12549   0.557   1.574   6.248  0.4255  2.5065 -2.5626
  119OSM    H2G12550   0.475   1.609   6.405  1.4411  1.4237  1.4053
  119OSM    C3F12551   0.591   1.773   6.338  0.0767 -0.9304 -0.2939
  119OSM    H3F12552   0.532   1.855   6.384  0.5958 -0.2141 -0.8860
  119OSM    H3G12553   0.645   1.820   6.253  0.9641  0.1990  0.8532
  119OSM    C4F12554   0.703   1.750   6.441 -0.0384 -0.5023  0.2706
  119OSM    H4F12555   0.773   1.836   6.427 -1.6162  0.5992 -1.2786
  119OSM    H4G12556   0.771   1.664   6.421 -0.9452 -2.1218  3.4512
  119OSM    C5F12557   0.668   1.744   6.591  0.4747  0.1874 -0.6595
  119OSM    H5F12558   0.619   1.649   6.623  1.0121  0.1778  0.1777
  119OSM    H5G12559   0.593   1.820   6.622  0.5036  0.4525 -1.2412
  119OSM    C6F12560   0.786   1.794   6.689 -0.7106 -0.5634  0.0044
  119OSM    H6F12561   0.787   1.901   6.659  1.4599 -1.1641 -2.4506
  119OSM    H6G12562   0.875   1.745   6.644 -0.6131 -1.8702  1.5154
  119OSM    C7F12563   0.769   1.759   6.839 -0.2062 -0.2332  0.3289
  119OSM    H7F12564   0.851   1.800   6.901 -0.6204 -0.2924  0.9245
  119OSM    H7G12565   0.764   1.648   6.844 -0.0420 -0.1966  1.3641
  119OSM    C8F12566   0.635   1.808   6.899  0.7441  0.1599  0.2277
  119OSM    H8F12567   0.615   1.752   6.993 -1.5471  0.3917 -0.0684
  119OSM    H8G12568   0.555   1.786   6.826  1.5237  0.7042 -0.8099
  119OSM    C9F12569   0.658   1.955   6.926 -0.1901  0.7956 -0.3489
  119OSM    H9F12570   0.680   2.009   6.832  1.1693  0.0578 -0.4847
  119OSM   C10F12571   0.678   2.006   7.039  0.1646 -0.1086 -0.0919
  119OSM   H10F12572   0.686   2.116   7.034 -0.3202 -0.0271  0.7673
  119OSM   C11F12573   0.682   1.938   7.172  0.0049  0.4868 -0.8159
  119OSM   H11F12574   0.694   1.828   7.163 -1.4935  0.3234 -1.0213
  119OSM   H11G12575   0.580   1.937   7.216 -0.8379 -0.5047 -2.6646
  119OSM   C12F12576   0.782   1.997   7.278  0.3238 -0.9443  0.7258
  119OSM   H12F12577   0.780   2.107   7.265 -0.0340 -0.8337  1.6706
  119OSM   H12G12578   0.880   1.954   7.247  1.2523  0.8734  1.0609
  119OSM   C13F12579   0.759   1.951   7.424  0.0543 -0.3896  0.3686
  119OSM   H13F12580   0.763   1.840   7.421 -1.1003 -0.4369 -0.6580
  119OSM   H13G12581   0.652   1.967   7.449 -0.7314 -1.4349 -2.0366
  119OSM   C14F12582   0.858   2.016   7.521  0.5589  0.8863 -0.4774
  119OSM   H14F12583   0.841   2.125   7.537 -0.2608  0.3965  2.6378
  119OSM   H14G12584   0.960   2.009   7.478  1.8508  0.1159  2.4530
  119OSM   C15F12585   0.867   1.952   7.662  0.3744 -0.8121 -0.8265
  119OSM   H15F12586   0.773   1.978   7.717  0.3958  1.9399 -1.9155
  119OSM   H15G12587   0.960   1.991   7.707  0.4194  0.5406 -2.0316
  119OSM   C16F12588   0.887   1.797   7.656 -0.0203  0.2793 -0.3050
  119OSM   H16F12589   0.985   1.769   7.611 -0.2213 -0.9432 -0.0200
  119OSM   H16G12590   0.803   1.751   7.600 -0.1061  0.3446 -0.2286
  119OSM   C17F12591   0.885   1.745   7.799  0.0882  0.0874 -0.4067
  119OSM   H17F12592   0.803   1.774   7.868  0.1749 -3.4857  1.4048
  119OSM   H17G12593   0.977   1.790   7.843  0.1666  0.5921 -1.0657
  119OSM   C18F12594   0.889   1.592   7.819  0.3544 -1.1284  0.1088
  119OSM   H18F12595   0.801   1.543   7.772 -0.1181 -2.1032  1.9092
  119OSM   H18G12596   0.880   1.565   7.926  0.7873 -2.1765 -0.1089
  119OSM   H18H12597   0.982   1.541   7.789  0.4268 -0.8403 -0.1639
  120OSM      N12598   4.496   6.238   6.093 -0.0593 -0.2072  0.6379
  120OSM    C1512599   4.402   6.213   5.982  0.5195  0.1247 -0.2378
  120OSM   H15A12600   4.445   6.159   5.900  3.0768 -1.4730  1.9734
  120OSM   H15B12601   4.364   6.308   5.948  0.2975  0.1719  0.1382
  120OSM   H15C12602   4.317   6.169   6.031  0.9094  1.6445  1.9834
  120OSM    C1412603   4.560   6.111   6.125  0.1929 -0.1498  0.1728
  120OSM   H14A12604   4.650   6.131   6.183  0.0647 -0.8409  0.6180
  120OSM   H14B12605   4.615   6.069   6.042  0.9720 -0.3543  0.7822
  120OSM   H14C12606   4.498   6.038   6.173  2.2406 -1.0996  1.5305
  120OSM    C1312607   4.601   6.334   6.045  0.3374 -0.6512 -0.0827
  120OSM   H13A12608   4.680   6.364   6.112  0.1564 -0.5914  0.1061
  120OSM   H13B12609   4.541   6.420   6.022  0.6080 -0.2927  0.5320
  120OSM   H13C12610   4.639   6.288   5.955  0.4058  0.8276 -0.8220
  120OSM    C1212611   4.430   6.291   6.218 -0.5077  0.5885  0.2637
  120OSM   H12A12612   4.367   6.208   6.247 -2.1638  0.7907 -2.4072
  120OSM   H12B12613   4.361   6.372   6.202 -1.6920 -0.9483 -3.7020
  120OSM    C1112614   4.523   6.339   6.328  0.3328  0.0418  0.1685
  120OSM   H11A12615   4.604   6.263   6.335  0.9831  0.7699  0.6486
  120OSM   H11B12616   4.478   6.330   6.428  0.1418  0.4076  0.1148
  120OSM      P12617   4.496   6.600   6.294 -0.2638  0.3191 -0.1970
  120OSM    O1312618   4.582   6.691   6.214  0.9414 -0.4114 -0.4497
  120OSM    O1412619   4.364   6.576   6.231 -0.0604 -0.0391  0.0311
  120OSM    O1112620   4.483   6.652   6.445 -0.0106  0.2563  0.2808
  120OSM    O1212621   4.579   6.467   6.308 -0.3377 -0.2441 -0.2991
  120OSM    C1S12622   4.404   6.596   6.547 -0.5669  0.3458 -0.5868
  120OSM    H1S12623   4.347   6.510   6.506 -1.1032  0.0045  0.8304
  120OSM    H1T12624   4.330   6.668   6.587  2.3866  3.0393  0.4426
  120OSM     NF12625   4.404   6.483   6.758  0.0617 -0.1425 -0.5236
  120OSM    HNF12626   4.346   6.533   6.822 -1.0583  1.3072 -2.5624
  120OSM    C2S12627   4.489   6.551   6.666 -0.5567 -0.0247 -0.0648
  120OSM    H2S12628   4.563   6.473   6.640 -0.7497  0.4593 -2.2136
  120OSM    C3S12629   4.564   6.673   6.731 -0.1127 -0.0284 -0.1785
  120OSM    H3S12630   4.485   6.750   6.747 -1.3256 -1.0851 -0.8571
  120OSM     O312631   4.667   6.739   6.654  0.1837 -0.3997 -0.6031
  120OSM    HO312632   4.654   6.705   6.566 -2.4554  1.1483 -0.9192
  120OSM    C4S12633   4.620   6.635   6.866 -0.7279 -0.0456  0.8728
  120OSM    H4S12634   4.549   6.619   6.948  0.0477 -0.8361  1.4038
  120OSM    C5S12635   4.752   6.595   6.878  0.2468 -0.1065 -0.1660
  120OSM    H5S12636   4.811   6.588   6.786  0.9230 -1.6135  0.3403
  120OSM    C6S12637   4.812   6.544   7.001 -0.3331 -0.6342 -0.0667
  120OSM    H6S12638   4.902   6.606   7.020  1.6155 -3.4674  0.6883
  120OSM    H6T12639   4.853   6.441   6.989  1.3698  0.0910 -0.6986
  120OSM    C7S12640   4.706   6.534   7.115  0.3924  0.4750  0.3781
  120OSM    H7S12641   4.621   6.465   7.096 -1.5339  2.4101  1.5300
  120OSM    H7T12642   4.663   6.636   7.122 -2.8957 -0.7794  0.1760
  120OSM    C8S12643   4.770   6.489   7.250  0.2940 -0.6904 -0.1751
  120OSM    H8S12644   4.850   6.561   7.280 -0.8701  0.4583  0.2596
  120OSM    H8T12645   4.827   6.395   7.232  0.4712 -0.4086 -1.1976
  120OSM    C9S12646   4.675   6.481   7.366 -0.0475  0.5419 -0.2079
  120OSM    H9S12647   4.655   6.373   7.383  4.5806 -0.5764 -0.5613
  120OSM    H9T12648   4.580   6.532   7.340  1.4783  3.2307 -0.9286
  120OSM   C10S12649   4.731   6.530   7.500 -0.8704  0.6478 -0.5186
  120OSM   H10S12650   4.724   6.641   7.503  2.1738  0.9328 -0.5252
  120OSM   H10T12651   4.840   6.508   7.511 -0.9453  0.8339  0.7795
  120OSM   C11S12652   4.661   6.480   7.626 -0.3449  0.3490  0.7155
  120OSM   H11S12653   4.677   6.371   7.617  0.3322  0.5421 -0.7400
  120OSM   H11T12654   4.551   6.492   7.621 -0.8508 -3.5586 -1.8701
  120OSM   C12S12655   4.712   6.526   7.759 -0.4753 -1.0381  0.1587
  120OSM   H12S12656   4.686   6.634   7.768  2.2896 -0.2029 -0.7040
  120OSM   H12T12657   4.823   6.521   7.749 -0.5080 -1.5835  0.0337
  120OSM   C13S12658   4.656   6.457   7.875  0.5954 -0.2051  0.8755
  120OSM   H13S12659   4.549   6.484   7.881  0.4918  0.9564 -3.3130
  120OSM   H13T12660   4.696   6.484   7.975 -2.4170  1.9041  1.6480
  120OSM   C14S12661   4.691   6.303   7.882 -0.5434 -0.2245  0.2369
  120OSM   H14S12662   4.800   6.283   7.876 -0.3776  0.8605 -0.7052
  120OSM   H14T12663   4.646   6.247   7.797  3.0350 -0.7861 -1.4376
  120OSM   C15S12664   4.633   6.243   8.014  0.4859  0.2861 -0.2998
  120OSM   H15S12665   4.531   6.286   8.021 -0.3176 -1.3038 -1.4974
  120OSM   H15T12666   4.689   6.281   8.102  1.2465 -0.9574 -0.2302
  120OSM   C16S12667   4.627   6.085   8.001 -0.4840 -0.2772 -0.0418
  120OSM   H16S12668   4.732   6.051   8.012 -0.8833 -1.5466  0.1329
  120OSM   H16T12669   4.586   6.044   7.906  0.9871  2.4642 -1.9590
  120OSM   C17S12670   4.544   6.027   8.125 -0.8838 -0.0833 -0.2894
  120OSM   H17S12671   4.436   6.034   8.098 -1.3194  3.9216  1.7711
  120OSM   H17T12672   4.552   6.092   8.215 -1.2195 -0.6548  0.1622
  120OSM   C18S12673   4.596   5.885   8.157  0.8784  0.2658 -0.7941
  120OSM   H18S12674   4.548   5.842   8.247  0.1879  0.1950 -1.1842
  120OSM   H18T12675   4.704   5.888   8.181  0.8575 -0.4516 -0.6162
  120OSM   H18U12676   4.570   5.813   8.076 -0.1055 -2.1518  1.5211
  120OSM    C1F12677   4.361   6.357   6.750  0.0044 -0.2648  0.9449
  120OSM     OF12678   4.390   6.289   6.653  0.3472  0.6740  0.2844
  120OSM    C2F12679   4.283   6.291   6.871 -0.1997 -0.3136  0.7445
  120OSM    H2F12680   4.309   6.183   6.867  0.2898 -0.2868  2.4739
  120OSM    H2G12681   4.178   6.306   6.838  0.4453  3.2422 -0.1054
  120OSM    C3F12682   4.318   6.356   7.003  0.5641 -0.1886  0.1214
  120OSM    H3F12683   4.262   6.453   7.008  0.4941 -0.2722  1.2135
  120OSM    H3G12684   4.425   6.381   7.021  0.4362  0.7286 -0.3109
  120OSM    C4F12685   4.257   6.274   7.119 -0.4036 -0.4481 -0.1371
  120OSM    H4F12686   4.260   6.167   7.091  1.4488 -0.3578 -0.3758
  120OSM    H4G12687   4.148   6.294   7.126 -0.2600 -0.3086  2.7546
  120OSM    C5F12688   4.319   6.297   7.257  0.6448  0.5063 -0.3105
  120OSM    H5F12689   4.308   6.406   7.277 -0.7732  0.5386 -1.1130
  120OSM    H5G12690   4.428   6.276   7.254  0.2140 -1.9212 -1.0046
  120OSM    C6F12691   4.241   6.222   7.364  0.5143 -0.3735  0.4381
  120OSM    H6F12692   4.237   6.112   7.346  1.8445 -0.9146  2.9372
  120OSM    H6G12693   4.139   6.263   7.351  0.6992  0.2153  0.8396
  120OSM    C7F12694   4.294   6.242   7.507 -0.0980 -0.2647 -0.3755
  120OSM    H7F12695   4.306   6.347   7.540  1.4671 -0.3254 -0.6700
  120OSM    H7G12696   4.400   6.209   7.505  0.4850  1.5282 -0.8754
  120OSM    C8F12697   4.215   6.170   7.613 -0.3041 -0.1815 -0.3907
  120OSM    H8F12698   4.194   6.071   7.569 -0.8410  0.4449 -1.6012
  120OSM    H8G12699   4.121   6.226   7.631  0.4355  0.8397  0.5107
  120OSM    C9F12700   4.276   6.147   7.750  0.2372 -0.6623 -0.6837
  120OSM    H9F12701   4.377   6.102   7.746  0.2465 -0.8125  0.7577
  120OSM   C10F12702   4.206   6.174   7.864 -0.4471  0.3078 -0.1237
  120OSM   H10F12703   4.251   6.134   7.956 -2.0979 -0.1159  0.5281
  120OSM   C11F12704   4.064   6.228   7.878  0.1202  0.2933  0.2604
  120OSM   H11F12705   4.001   6.162   7.941 -0.6214  0.8166  0.0778
  120OSM   H11G12706   4.006   6.241   7.784  0.8019  1.1725 -0.0480
  120OSM   C12F12707   4.057   6.370   7.943 -0.1302 -0.1106  0.0880
  120OSM   H12F12708   4.084   6.367   8.051 -0.1492 -0.0464  0.0945
  120OSM   H12G12709   3.948   6.390   7.937 -0.0828  0.2203  0.3185
  120OSM   C13F12710   4.133   6.476   7.862 -0.4075  0.5370  0.8699
  120OSM   H13F12711   4.133   6.463   7.751  0.4728  2.0372  0.6658
  120OSM   H13G12712   4.238   6.472   7.899 -0.1403 -0.4770  0.0510
  120OSM   C14F12713   4.076   6.617   7.875  0.1104 -0.3636 -0.5461
  120OSM   H14F12714   3.967   6.604   7.859  0.0556 -3.5417  1.4781
  120OSM   H14G12715   4.135   6.686   7.810  1.8999 -1.7891 -0.5334
  120OSM   C15F12716   4.096   6.673   8.013 -0.8468  0.1939  0.9145
  120OSM   H15F12717   4.205   6.687   8.031 -0.9592 -0.5823  2.4271
  120OSM   H15G12718   4.077   6.589   8.083  1.2738 -0.9472  0.2130
  120OSM   C16F12719   4.020   6.801   8.045  0.5849 -0.3050 -0.0109
  120OSM   H16F12720   3.909   6.796   8.050  0.5276  1.6112  2.1531
  120OSM   H16G12721   4.043   6.872   7.963  0.1591  0.3336  0.4214
  120OSM   C17F12722   4.063   6.861   8.180 -0.0978 -0.0050  0.7695
  120OSM   H17F12723   4.000   6.953   8.188  0.2250  0.1617  1.4448
  120OSM   H17G12724   4.165   6.901   8.163 -0.6354  0.4351 -1.9053
  120OSM   C18F12725   4.051   6.757   8.296 -0.6327 -0.8179 -0.0053
  120OSM   H18F12726   3.955   6.707   8.321 -0.3872  0.1154  3.1829
  120OSM   H18G12727   4.073   6.808   8.392  0.4916 -0.0740 -0.6415
  120OSM   H18H12728   4.128   6.677   8.282 -0.7771 -0.9852  0.1466
  121OSM      N12729   0.596   1.174   5.721 -0.3163 -0.6954 -0.3119
  121OSM    C1512730   0.622   1.320   5.714 -0.0471  0.8829 -0.4710
  121OSM   H15A12731   0.624   1.357   5.815 -2.0969  0.1518 -0.1220
  121OSM   H15B12732   0.546   1.375   5.662  0.9253  1.5155 -1.2596
  121OSM   H15C12733   0.715   1.344   5.664  0.0584  0.2471 -0.5873
  121OSM    C1412734   0.616   1.107   5.586  0.4859 -0.3207 -1.3866
  121OSM   H14A12735   0.609   0.999   5.593  0.5815 -0.2762 -0.4510
  121OSM   H14B12736   0.712   1.135   5.545  0.2319 -0.3371 -2.0075
  121OSM   H14C12737   0.529   1.134   5.527  0.4445 -0.1179 -1.2318
  121OSM    C1312738   0.692   1.113   5.812  0.5261  0.7302 -0.4066
  121OSM   H13A12739   0.671   1.149   5.912  4.4714  2.7303 -0.0795
  121OSM   H13B12740   0.789   1.156   5.792  0.4704  1.0346 -0.0435
  121OSM   H13C12741   0.682   1.005   5.812 -3.0202  0.9102  1.7594
  121OSM    C1212742   0.454   1.143   5.771 -0.4869  0.2373  0.1958
  121OSM   H12A12743   0.439   1.037   5.787  2.2805 -0.2992 -0.3106
  121OSM   H12B12744   0.375   1.169   5.702  0.8827  2.1784 -0.7083
  121OSM    C1112745   0.420   1.190   5.916 -0.1426  1.3834 -0.5705
  121OSM   H11A12746   0.312   1.195   5.942  0.0481 -0.0412  0.5985
  121OSM   H11B12747   0.460   1.293   5.932 -0.1758  1.3721 -0.4133
  121OSM      P12748   0.464   0.958   6.043  0.0850 -0.1773  0.2326
  121OSM    O1312749   0.458   0.885   5.916 -0.1193  0.0978 -0.1763
  121OSM    O1412750   0.567   0.924   6.145  0.6619  0.1342 -0.5211
  121OSM    O1112751   0.321   0.970   6.104  0.3574  0.0793 -0.2119
  121OSM    O1212752   0.486   1.107   6.011  0.0092  0.5284  0.4899
  121OSM    C1S12753   0.300   0.994   6.244 -0.3053  0.2659  0.0668
  121OSM    H1S12754   0.389   1.042   6.291  0.2315 -0.5286 -0.1116
  121OSM    H1T12755   0.274   0.903   6.303 -0.8395  0.3582 -0.0245
  121OSM     NF12756   0.184   1.147   6.395  0.0682  0.3723 -0.2723
  121OSM    HNF12757   0.123   1.098   6.457  0.8373 -0.7352 -0.3535
  121OSM    C2S12758   0.179   1.090   6.260 -0.9888  0.2901  0.3809
  121OSM    H2S12759   0.195   1.168   6.182 -1.6732  0.2533  0.2023
  121OSM    C3S12760   0.042   1.026   6.228 -0.0726 -0.8196  0.2637
  121OSM    H3S12761   0.030   0.931   6.285 -2.8180  0.3515  1.7743
  121OSM     O312762   0.036   0.972   6.094  0.1417 -0.1157  0.5713
  121OSM    HO312763   0.126   0.969   6.062  0.0629 -1.2177  0.4194
  121OSM    C4S12764  -0.073   1.123   6.251  0.4097 -0.7174  0.0741
  121OSM    H4S12765  -0.053   1.226   6.218 -0.8803 -1.0373 -1.8878
  121OSM    C5S12766  -0.188   1.091   6.314 -0.7024 -0.1609  0.0949
  121OSM    H5S12767  -0.195   0.990   6.357  2.0163  0.8598  3.4782
  121OSM    C6S12768  -0.307   1.186   6.334 -0.3041 -0.2306 -0.6736
  121OSM    H6S12769  -0.400   1.143   6.292 -0.3369 -0.0772 -0.7583
  121OSM    H6T12770  -0.290   1.284   6.285  0.8203  0.0606  0.2608
  121OSM    C7S12771  -0.317   1.222   6.484  0.8135 -0.2968  0.0400
  121OSM    H7S12772  -0.235   1.289   6.519  0.9920 -0.6929  0.3949
  121OSM    H7T12773  -0.316   1.130   6.547 -0.3521 -0.3312  0.0249
  121OSM    C8S12774  -0.441   1.308   6.519  0.2715  0.4906  0.4148
  121OSM    H8S12775  -0.537   1.258   6.496  0.1914 -0.1894  2.1036
  121OSM    H8T12776  -0.438   1.398   6.455  3.7445 -1.1227 -2.0252
  121OSM    C9S12777  -0.438   1.347   6.666  0.0607  0.0975 -0.2969
  121OSM    H9S12778  -0.341   1.396   6.692 -0.9827  2.1970 -0.1472
  121OSM    H9T12779  -0.450   1.254   6.726  1.0322  0.5326  0.6073
  121OSM   C10S12780  -0.564   1.428   6.704 -1.0289 -0.0637  0.0206
  121OSM   H10S12781  -0.655   1.370   6.682 -0.1218 -1.0521 -1.2962
  121OSM   H10T12782  -0.565   1.510   6.629 -0.0839 -0.8005 -0.8389
  121OSM   C11S12783  -0.573   1.500   6.842 -0.5564  0.4390 -0.1393
  121OSM   H11S12784  -0.673   1.549   6.849 -0.8244  0.0562 -1.1851
  121OSM   H11T12785  -0.496   1.580   6.850 -1.0584  0.7806  2.1265
  121OSM   C12S12786  -0.553   1.419   6.971 -0.1356  0.1097 -0.0868
  121OSM   H12S12787  -0.448   1.386   6.976 -0.3399 -0.5171  0.1655
  121OSM   H12T12788  -0.610   1.324   6.971 -0.3226  0.1484  2.2988
  121OSM   C13S12789  -0.572   1.504   7.100  0.0474  0.6699  0.1816
  121OSM   H13S12790  -0.667   1.561   7.087 -0.0628  0.3253 -0.5858
  121OSM   H13T12791  -0.486   1.572   7.115  0.7108 -0.4536  1.7096
  121OSM   C14S12792  -0.589   1.415   7.224  0.0552 -0.0347  0.3281
  121OSM   H14S12793  -0.502   1.347   7.234 -0.9175 -1.0743  2.3577
  121OSM   H14T12794  -0.673   1.344   7.215 -1.9962  2.1330  1.1675
  121OSM   C15S12795  -0.623   1.490   7.355  1.2810 -0.0748 -0.8189
  121OSM   H15S12796  -0.557   1.577   7.376  1.1720 -0.3030  0.5824
  121OSM   H15T12797  -0.617   1.421   7.441 -0.2777  0.0690 -0.5732
  121OSM   C16S12798  -0.762   1.547   7.348  0.2769 -0.7287 -0.2246
  121OSM   H16S12799  -0.835   1.472   7.312  0.2716 -0.1336 -1.4865
  121OSM   H16T12800  -0.756   1.639   7.286  0.6181 -1.0808 -0.7173
  121OSM   C17S12801  -0.822   1.588   7.488  0.0895 -0.8397  0.6618
  121OSM   H17S12802  -0.927   1.619   7.472  0.8358  0.5297 -2.3237
  121OSM   H17T12803  -0.771   1.683   7.515  0.6781  0.4473 -4.0880
  121OSM   C18S12804  -0.816   1.496   7.605  0.5147  0.6815 -0.3139
  121OSM   H18S12805  -0.883   1.536   7.684  0.0241 -1.1282  0.2304
  121OSM   H18T12806  -0.720   1.490   7.660 -0.5567  1.0428  1.6662
  121OSM   H18U12807  -0.851   1.394   7.577 -0.5196  0.2952  2.1764
  121OSM    C1F12808   0.263   1.244   6.435  0.1912  0.3935 -0.2464
  121OSM     OF12809   0.331   1.310   6.359 -0.0835 -0.7329 -0.3395
  121OSM    C2F12810   0.274   1.253   6.581 -0.4311  0.9183 -0.4605
  121OSM    H2F12811   0.345   1.169   6.597 -1.5050  0.0597  0.0339
  121OSM    H2G12812   0.178   1.216   6.624  0.4433 -0.8305  0.0713
  121OSM    C3F12813   0.338   1.385   6.620 -0.1786 -0.1432 -0.4500
  121OSM    H3F12814   0.281   1.476   6.591  0.2674  0.5112  0.6481
  121OSM    H3G12815   0.434   1.407   6.570  0.2724  2.1573  1.2595
  121OSM    C4F12816   0.326   1.388   6.774 -0.6578 -0.5420  0.6118
  121OSM    H4F12817   0.406   1.335   6.829  0.2054  1.2263  1.1406
  121OSM    H4G12818   0.231   1.334   6.793 -1.0400 -0.4514 -0.8809
  121OSM    C5F12819   0.310   1.530   6.834 -1.1196  0.5363 -0.4805
  121OSM    H5F12820   0.240   1.586   6.768 -0.8558  1.5370  0.0513
  121OSM    H5G12821   0.409   1.582   6.831 -0.8146  0.5025  3.3636
  121OSM    C6F12822   0.264   1.529   6.979 -0.2324  0.1065 -0.1463
  121OSM    H6F12823   0.190   1.450   7.007  0.4904  0.3868  2.8953
  121OSM    H6G12824   0.229   1.634   6.990  0.4277  1.2008 -5.6826
  121OSM    C7F12825   0.386   1.501   7.080 -0.0449  0.4560 -0.3605
  121OSM    H7F12826   0.481   1.532   7.033  0.6749  1.7506  1.8187
  121OSM    H7G12827   0.387   1.390   7.079 -1.8433  0.3526  1.5521
  121OSM    C8F12828   0.369   1.543   7.222  0.2335 -0.7965  0.8142
  121OSM    H8F12829   0.265   1.518   7.252 -0.6365 -0.0345 -1.3496
  121OSM    H8G12830   0.366   1.654   7.232  1.5336 -0.7266  0.6070
  121OSM    C9F12831   0.465   1.486   7.321  0.1798 -0.0730 -0.0207
  121OSM    H9F12832   0.543   1.421   7.278 -0.6958 -1.8032  0.9134
  121OSM   C10F12833   0.464   1.507   7.455 -0.8596  0.2307 -0.0929
  121OSM   H10F12834   0.547   1.470   7.516 -1.7944  0.3612  1.3124
  121OSM   C11F12835   0.366   1.595   7.535 -0.0030 -0.6507 -0.3593
  121OSM   H11F12836   0.331   1.547   7.629 -1.3981  0.7501 -0.1120
  121OSM   H11G12837   0.273   1.619   7.479  0.3395 -1.8957 -1.5077
  121OSM   C12F12838   0.440   1.724   7.566 -0.4010 -0.1853  0.0039
  121OSM   H12F12839   0.360   1.802   7.571 -0.7925 -0.5821 -0.0213
  121OSM   H12G12840   0.513   1.752   7.487 -0.8909 -0.8277 -0.6957
  121OSM   C13F12841   0.535   1.709   7.696  0.0648 -0.2447 -0.9642
  121OSM   H13F12842   0.611   1.789   7.684  1.6248 -1.3435  1.0147
  121OSM   H13G12843   0.602   1.621   7.682 -0.5546 -0.9132  0.1176
  121OSM   C14F12844   0.463   1.718   7.832 -0.1708  0.5325  0.4587
  121OSM   H14F12845   0.537   1.683   7.908 -0.6748 -0.6409  0.4234
  121OSM   H14G12846   0.374   1.654   7.846 -0.2412  1.1731  3.8377
  121OSM   C15F12847   0.429   1.863   7.871 -0.5988 -0.4979 -0.7686
  121OSM   H15F12848   0.361   1.903   7.793 -2.1681 -0.2258  0.6760
  121OSM   H15G12849   0.521   1.926   7.879 -0.3422 -0.7813 -1.4029
  121OSM   C16F12850   0.338   1.865   7.999 -0.1620 -0.2750  0.1237
  121OSM   H16F12851   0.394   1.816   8.082 -0.9234 -1.1334  0.1403
  121OSM   H16G12852   0.257   1.791   7.982 -0.7817  0.2873  0.5776
  121OSM   C17F12853   0.263   2.001   8.035  0.2112 -0.7544 -0.2284
  121OSM   H17F12854   0.163   1.972   8.073  0.0683 -2.4902 -1.7969
  121OSM   H17G12855   0.247   2.061   7.943 -1.6636  1.9125  1.7155
  121OSM   C18F12856   0.328   2.085   8.147 -0.3201 -0.0866  0.6398
  121OSM   H18F12857   0.317   2.192   8.120  3.1660 -0.0310 -1.0289
  121OSM   H18G12858   0.438   2.071   8.155 -0.0791 -0.1248 -1.9182
  121OSM   H18H12859   0.286   2.064   8.248  0.0558 -2.4102  0.3759
  122OSM      N12860   0.316   3.322   6.148  0.0441  0.4884  0.0319
  122OSM    C1512861   0.184   3.389   6.173  0.0449 -0.0882  0.0068
  122OSM   H15A12862   0.123   3.415   6.088 -1.2161 -0.1719  0.8653
  122OSM   H15B12863   0.208   3.472   6.238 -0.6607  1.2453 -1.3656
  122OSM   H15C12864   0.120   3.332   6.238  0.2969  2.0432  2.2957
  122OSM    C1412865   0.418   3.408   6.084  0.1649 -0.8976 -0.0761
  122OSM   H14A12866   0.373   3.426   5.988 -1.6297 -0.8738  0.7173
  122OSM   H14B12867   0.516   3.364   6.074  0.6688  0.0841  0.4267
  122OSM   H14C12868   0.428   3.505   6.132 -0.2841 -0.3319 -1.1106
  122OSM    C1312869   0.370   3.293   6.288  0.0362  0.0215 -0.6993
  122OSM   H13A12870   0.369   3.380   6.352  2.2806 -0.5614  0.2283
  122OSM   H13B12871   0.474   3.264   6.277 -0.3526 -1.6809 -0.2282
  122OSM   H13C12872   0.315   3.209   6.328 -1.0738  0.9766 -0.1644
  122OSM    C1212873   0.295   3.199   6.062 -0.0156  0.8305 -0.3096
  122OSM   H12A12874   0.378   3.131   6.055 -0.7426 -0.1216  0.0832
  122OSM   H12B12875   0.285   3.222   5.957 -0.1300 -1.9212 -0.9717
  122OSM    C1112876   0.187   3.097   6.110 -0.4504  0.5006 -0.3965
  122OSM   H11A12877   0.087   3.135   6.141 -0.6518 -2.0698  2.4908
  122OSM   H11B12878   0.220   3.040   6.199 -1.2866  0.5065 -0.0754
  122OSM      P12879   0.072   2.890   5.989 -0.1810 -0.4238  0.2132
  122OSM    O1312880  -0.071   2.923   5.999 -0.2093  0.3500  0.7335
  122OSM    O1412881   0.116   2.813   5.868 -0.0353 -0.0369  0.5277
  122OSM    O1112882   0.115   2.801   6.112 -0.2355  0.3999  0.2793
  122OSM    O1212883   0.164   3.021   5.994  0.5546  0.4288 -0.5143
  122OSM    C1S12884   0.210   2.696   6.114 -0.4977 -0.1483 -0.2390
  122OSM    H1S12885   0.304   2.729   6.065 -0.4624  0.8265  0.4683
  122OSM    H1T12886   0.185   2.616   6.041  1.8031 -0.1992 -1.0593
  122OSM     NF12887   0.357   2.565   6.265  0.2448  0.0676 -0.2189
  122OSM    HNF12888   0.352   2.467   6.246 -0.4033  0.0683 -0.0754
  122OSM    C2S12889   0.241   2.641   6.257  0.1428 -0.6073  0.0184
  122OSM    H2S12890   0.257   2.732   6.319  0.1545 -1.3187  1.0850
  122OSM    C3S12891   0.114   2.575   6.317 -0.4238 -0.3909  0.7421
  122OSM    H3S12892   0.125   2.466   6.297 -0.1072  0.0531 -1.8209
  122OSM     O312893  -0.011   2.622   6.256 -0.1278 -0.2981  0.1060
  122OSM    HO312894   0.022   2.707   6.225  0.7213 -1.0723 -1.2221
  122OSM    C4S12895   0.105   2.595   6.470  0.1611 -0.4707  0.1445
  122OSM    H4S12896   0.100   2.699   6.506 -0.1686 -0.3668 -0.1927
  122OSM    C5S12897   0.095   2.498   6.566 -0.5900  0.0186  0.0090
  122OSM    H5S12898   0.082   2.392   6.540  1.2043 -0.0731 -0.6426
  122OSM    C6S12899   0.095   2.525   6.715  0.3698  0.1041 -0.5549
  122OSM    H6S12900   0.087   2.635   6.720 -1.3686  0.0912 -2.1580
  122OSM    H6T12901   0.195   2.494   6.755  0.0320  0.5537  0.6752
  122OSM    C7S12902  -0.016   2.448   6.792 -1.0363 -0.1868 -0.0990
  122OSM    H7S12903  -0.001   2.344   6.757  1.5964  0.4401 -1.1043
  122OSM    H7T12904  -0.114   2.490   6.763 -1.5238 -1.4584 -0.3408
  122OSM    C8S12905  -0.001   2.451   6.949 -0.7152  0.2596  0.4569
  122OSM    H8S12906   0.027   2.555   6.979 -0.5969  0.9120 -1.7635
  122OSM    H8T12907   0.088   2.388   6.973 -1.2834 -0.6725  0.1393
  122OSM    C9S12908  -0.122   2.400   7.024 -0.0693 -0.2777 -0.8404
  122OSM    H9S12909  -0.131   2.290   7.033 -0.0851 -0.4149 -2.3345
  122OSM    H9T12910  -0.213   2.430   6.966 -1.4149 -2.4972 -0.0023
  122OSM   C10S12911  -0.138   2.455   7.166 -0.5190  0.3961 -0.3025
  122OSM   H10S12912  -0.247   2.454   7.185 -0.4484  1.1753  0.1955
  122OSM   H10T12913  -0.093   2.556   7.165  0.2208  0.1435  1.7105
  122OSM   C11S12914  -0.071   2.373   7.281 -0.2105  0.3236 -0.3262
  122OSM   H11S12915   0.037   2.351   7.273 -0.1547 -1.7861  3.6525
  122OSM   H11T12916  -0.114   2.271   7.291  0.5919 -0.4782 -3.8288
  122OSM   C12S12917  -0.101   2.456   7.415  0.7010 -0.0902 -0.0561
  122OSM   H12S12918  -0.211   2.469   7.426  0.4519 -0.3171 -1.8727
  122OSM   H12T12919  -0.052   2.555   7.399  1.4828 -0.6796 -1.5263
  122OSM   C13S12920  -0.035   2.396   7.539 -0.1834 -0.0930 -0.5928
  122OSM   H13S12921   0.075   2.405   7.529 -0.0735 -0.6810  0.0464
  122OSM   H13T12922  -0.061   2.288   7.544  1.1332 -0.4336 -0.8936
  122OSM   C14S12923  -0.069   2.474   7.672 -0.5555 -0.3576 -0.0546
  122OSM   H14S12924  -0.174   2.449   7.697 -0.2136 -1.9089 -0.0921
  122OSM   H14T12925  -0.055   2.584   7.665 -2.0258 -0.1270  0.3309
  122OSM   C15S12926   0.012   2.433   7.800  0.5268 -0.3944  0.2669
  122OSM   H15S12927   0.121   2.445   7.782  0.8058 -0.3319  1.9091
  122OSM   H15T12928   0.003   2.323   7.814 -1.9210 -0.0646  1.8179
  122OSM   C16S12929  -0.020   2.505   7.928 -0.4608 -0.1953 -0.0190
  122OSM   H16S12930   0.060   2.473   7.998 -0.6748 -0.1845  0.2343
  122OSM   H16T12931  -0.118   2.465   7.962 -0.2394  0.4310  1.4471
  122OSM   C17S12932  -0.025   2.662   7.922 -0.1663  0.5339 -0.5728
  122OSM   H17S12933  -0.045   2.699   8.025  2.1086  0.0488  0.1034
  122OSM   H17T12934  -0.102   2.689   7.847  0.0042 -0.7039 -1.2139
  122OSM   C18S12935   0.108   2.720   7.882  0.4061 -0.6133 -0.2405
  122OSM   H18S12936   0.098   2.829   7.860  0.7774 -0.5115  0.0869
  122OSM   H18T12937   0.138   2.673   7.785 -0.3451 -1.9804  0.1733
  122OSM   H18U12938   0.170   2.704   7.972  1.1904 -1.0436 -0.8425
  122OSM    C1F12939   0.476   2.619   6.258 -0.1810  0.3499 -0.1273
  122OSM     OF12940   0.493   2.740   6.258 -0.4015 -0.3393 -0.0557
  122OSM    C2F12941   0.575   2.515   6.222 -0.7454  0.2404 -0.1916
  122OSM    H2F12942   0.601   2.534   6.116  0.3140 -2.6656 -0.5655
  122OSM    H2G12943   0.529   2.414   6.232 -1.6044  0.8745  3.7889
  122OSM    C3F12944   0.713   2.529   6.288  0.5861 -0.7541 -0.2306
  122OSM    H3F12945   0.753   2.631   6.272  0.2223 -0.3514  1.2082
  122OSM    H3G12946   0.781   2.450   6.249 -0.4229 -2.0100  0.4499
  122OSM    C4F12947   0.701   2.511   6.442 -0.1848  0.0743 -0.4818
  122OSM    H4F12948   0.657   2.412   6.469 -1.4359  1.3576  2.6044
  122OSM    H4G12949   0.628   2.588   6.472  0.5830  0.7909 -0.4293
  122OSM    C5F12950   0.835   2.531   6.511 -0.5358 -0.2920  0.6737
  122OSM    H5F12951   0.883   2.630   6.491  0.9218 -1.0746  0.1469
  122OSM    H5G12952   0.906   2.460   6.465 -0.4055 -1.3698  2.4856
  122OSM    C6F12953   0.826   2.507   6.658  0.0845 -0.1383 -0.4614
  122OSM    H6F12954   0.787   2.404   6.673  1.6595 -0.7375 -0.3109
  122OSM    H6G12955   0.747   2.573   6.701  1.0001  1.0197 -0.5047
  122OSM    C7F12956   0.950   2.527   6.748  1.2374  0.5800 -0.1302
  122OSM    H7F12957   1.011   2.617   6.725 -0.4645  1.7060 -0.4432
  122OSM    H7G12958   1.020   2.443   6.729 -0.8595 -1.2287 -0.2351
  122OSM    C8F12959   0.908   2.529   6.898 -0.0314  0.5964 -1.5082
  122OSM    H8F12960   0.812   2.584   6.909 -0.2234 -0.0700  0.5286
  122OSM    H8G12961   0.988   2.573   6.961 -0.3986 -0.8104 -0.0001
  122OSM    C9F12962   0.884   2.389   6.953 -0.4258 -0.1433  0.0596
  122OSM    H9F12963   0.894   2.313   6.874  1.0695 -0.1697  0.2564
  122OSM   C10F12964   0.850   2.355   7.077 -0.0277  0.4071  0.4393
  122OSM   H10F12965   0.857   2.247   7.099  1.3951  0.6713  1.4802
  122OSM   C11F12966   0.844   2.450   7.191 -0.2632 -0.4221  0.2336
  122OSM   H11F12967   0.739   2.485   7.184  0.3444  1.4875  0.0931
  122OSM   H11G12968   0.901   2.545   7.179  0.3457 -0.3612  2.8395
  122OSM   C12F12969   0.882   2.395   7.328 -0.2227  0.4615 -0.9107
  122OSM   H12F12970   0.965   2.321   7.332  0.2707  1.0346 -0.2203
  122OSM   H12G12971   0.792   2.339   7.359  0.4746  0.0368  0.4177
  122OSM   C13F12972   0.904   2.514   7.428  0.5048 -0.0136  0.8907
  122OSM   H13F12973   0.807   2.567   7.434 -0.4324 -1.7195  1.7937
  122OSM   H13G12974   0.979   2.581   7.380  1.3020 -0.9345  0.8103
  122OSM   C14F12975   0.945   2.471   7.563  0.6570  0.0978 -0.0594
  122OSM   H14F12976   1.018   2.388   7.560 -0.4649 -1.0516  2.1112
  122OSM   H14G12977   0.856   2.445   7.624 -0.1460  2.3996 -0.1628
  122OSM   C15F12978   1.005   2.596   7.636 -0.2706 -0.1262  0.6172
  122OSM   H15F12979   0.973   2.687   7.581  0.3187 -0.8473 -1.0023
  122OSM   H15G12980   1.113   2.589   7.612 -0.8179 -0.0606 -2.2154
  122OSM   C16F12981   0.973   2.622   7.778 -0.4953 -0.2379 -0.4405
  122OSM   H16F12982   0.863   2.631   7.793 -0.6540  1.4605 -2.2061
  122OSM   H16G12983   1.026   2.714   7.812 -1.1370 -0.5259  1.4902
  122OSM   C17F12984   1.013   2.510   7.881 -0.3510 -0.0976 -0.6671
  122OSM   H17F12985   0.965   2.410   7.871 -0.8986  0.1552 -0.6002
  122OSM   H17G12986   0.982   2.533   7.986 -1.0465  0.0545 -0.8985
  122OSM   C18F12987   1.164   2.477   7.897  0.4753 -0.2547  0.0713
  122OSM   H18F12988   1.219   2.562   7.943 -0.9153  0.4852  0.4390
  122OSM   H18G12989   1.207   2.440   7.802  0.2852  2.5858 -1.2137
  122OSM   H18H12990   1.181   2.404   7.979  0.6760  1.6980  1.8585
  123OSM      N12991   4.064   5.667   6.249  0.0881 -0.0469 -0.3257
  123OSM    C1512992   3.955   5.631   6.347 -0.3234 -0.9730 -0.7086
  123OSM   H15A12993   3.874   5.702   6.338  1.7291  1.3800 -1.8446
  123OSM   H15B12994   3.997   5.621   6.446  1.7865 -1.0041 -1.5651
  123OSM   H15C12995   3.900   5.538   6.335 -2.3665 -0.2620  2.0934
  123OSM    C1412996   4.018   5.680   6.105 -0.1977  0.3723 -0.5358
  123OSM   H14A12997   3.987   5.580   6.081 -0.1395  0.4749 -1.0621
  123OSM   H14B12998   4.099   5.709   6.039 -0.2500  0.7978 -0.4183
  123OSM   H14C12999   3.934   5.747   6.095 -0.7095 -0.2673 -0.5958
  123OSM    C1313000   4.109   5.805   6.288  0.0328  0.2868  0.0487
  123OSM   H13A13001   4.028   5.875   6.295  0.3187  0.6179  0.0522
  123OSM   H13B13002   4.182   5.841   6.217  0.4716 -2.5240 -1.0522
  123OSM   H13C13003   4.165   5.799   6.381  3.1911 -2.5524 -1.8207
  123OSM    C1213004   4.185   5.568   6.263  0.5015 -0.9979  0.7385
  123OSM   H12A13005   4.223   5.579   6.364  0.0862 -0.8993  0.8852
  123OSM   H12B13006   4.263   5.610   6.202  0.1113  0.5251  1.2397
  123OSM    C1113007   4.158   5.414   6.230  0.4164 -0.9054 -0.6081
  123OSM   H11A13008   4.144   5.387   6.123  1.4589 -0.6393 -0.8215
  123OSM   H11B13009   4.054   5.403   6.268  0.0786  2.4671 -0.2417
  123OSM      P13010   4.238   5.252   6.410 -0.7035  0.0621 -0.2036
  123OSM    O1313011   4.199   5.116   6.369  0.2926  0.2089  0.0446
  123OSM    O1413012   4.367   5.253   6.484 -0.4786 -0.7255 -0.0006
  123OSM    O1113013   4.121   5.325   6.482  0.3498 -0.7516 -0.3796
  123OSM    O1213014   4.257   5.332   6.290  0.0229 -0.3675 -0.6142
  123OSM    C1S13015   4.131   5.377   6.610  0.4292  0.1374 -0.7752
  123OSM    H1S13016   4.118   5.487   6.615  1.2058  0.1931  1.6945
  123OSM    H1T13017   4.228   5.359   6.662 -0.5601  0.3781  1.2634
  123OSM     NF13018   4.039   5.361   6.841 -0.0607  0.2386 -0.4704
  123OSM    HNF13019   4.105   5.308   6.892  0.4005  0.6202 -0.6579
  123OSM    C2S13020   4.017   5.318   6.703 -0.3564  0.1455 -0.0217
  123OSM    H2S13021   3.923   5.370   6.676 -0.5767 -0.4621 -0.4417
  123OSM    C3S13022   4.002   5.162   6.681  0.1167  0.4124 -0.5626
  123OSM    H3S13023   4.092   5.109   6.718 -1.4142 -0.8831  1.5236
  123OSM     O313024   3.968   5.120   6.549 -0.6097  0.1495 -0.2884
  123OSM    HO313025   3.985   5.200   6.498  0.1570  0.4436  0.4165
  123OSM    C4S13026   3.886   5.126   6.761  0.9291  0.2499  0.1188
  123OSM    H4S13027   3.795   5.158   6.709  0.8705 -3.8101 -2.6882
  123OSM    C5S13028   3.876   5.062   6.882  0.5610  1.2739 -0.0215
  123OSM    H5S13029   3.968   5.036   6.937 -0.6965 -1.2051  1.0375
  123OSM    C6S13030   3.754   5.022   6.963 -0.2043  0.1185  0.3561
  123OSM    H6S13031   3.786   4.918   6.984 -0.3349  0.1119  0.5257
  123OSM    H6T13032   3.664   5.009   6.899 -0.4276 -0.6966  0.8181
  123OSM    C7S13033   3.740   5.111   7.083 -1.1241  0.2567 -0.0210
  123OSM    H7S13034   3.728   5.219   7.060 -0.8466  0.0543 -1.2073
  123OSM    H7T13035   3.842   5.115   7.127 -0.4275  0.3134 -1.5627
  123OSM    C8S13036   3.638   5.048   7.178  0.5862 -0.3793 -0.3286
  123OSM    H8S13037   3.677   4.958   7.231  1.7052 -0.3473 -1.0783
  123OSM    H8T13038   3.546   5.025   7.121  2.4348 -2.6428 -2.6428
  123OSM    C9S13039   3.611   5.143   7.294  0.3227  0.2484 -0.1738
  123OSM    H9S13040   3.577   5.247   7.273  3.2482  1.5260  0.9261
  123OSM    H9T13041   3.701   5.156   7.357 -0.9449  3.8628  1.1559
  123OSM   C10S13042   3.502   5.076   7.393 -0.2429 -1.4557 -0.3663
  123OSM   H10S13043   3.546   4.976   7.412  0.2722 -1.3790 -1.1051
  123OSM   H10T13044   3.410   5.048   7.338 -1.1068  1.7409 -0.7793
  123OSM   C11S13045   3.489   5.162   7.518 -1.1697  0.1997 -0.5425
  123OSM   H11S13046   3.431   5.256   7.503 -1.8800 -0.2822 -0.9028
  123OSM   H11T13047   3.588   5.175   7.566 -0.3614 -1.1607 -1.7636
  123OSM   C12S13048   3.397   5.092   7.618  0.2865  0.1417 -0.1079
  123OSM   H12S13049   3.443   4.995   7.648  0.3541 -0.1780 -1.2035
  123OSM   H12T13050   3.299   5.067   7.572  0.4375 -2.3958  0.7975
  123OSM   C13S13051   3.366   5.169   7.751 -0.7414  0.0405 -0.4624
  123OSM   H13S13052   3.315   5.266   7.735 -3.4715 -1.2401 -0.0051
  123OSM   H13T13053   3.463   5.188   7.802 -0.9953  0.5392 -0.1564
  123OSM   C14S13054   3.274   5.100   7.845  0.2407 -0.5536 -0.9538
  123OSM   H14S13055   3.327   5.006   7.872 -1.1870 -1.4579 -1.1886
  123OSM   H14T13056   3.174   5.079   7.803  0.6784 -1.7259 -1.4287
  123OSM   C15S13057   3.261   5.186   7.972  0.3392  0.5991 -0.0359
  123OSM   H15S13058   3.211   5.276   7.930 -2.7805 -1.3158 -0.7459
  123OSM   H15T13059   3.358   5.203   8.022  0.0867 -2.0047  1.4987
  123OSM   C16S13060   3.171   5.124   8.080 -0.5407  0.6002  0.6942
  123OSM   H16S13061   3.197   5.017   8.094  2.6770  1.0054 -1.1866
  123OSM   H16T13062   3.066   5.125   8.043 -1.8248 -1.1335  3.8798
  123OSM   C17S13063   3.167   5.200   8.213 -0.0650 -0.7544 -0.5953
  123OSM   H17S13064   3.138   5.306   8.194 -2.3323 -1.4788 -1.4909
  123OSM   H17T13065   3.272   5.199   8.250 -0.9608 -0.6812  2.1641
  123OSM   C18S13066   3.071   5.141   8.310 -0.6444  0.3963 -0.0680
  123OSM   H18S13067   3.083   5.031   8.310  1.8716  0.5906 -2.0232
  123OSM   H18T13068   2.966   5.166   8.283 -1.7063  1.3838  4.1376
  123OSM   H18U13069   3.077   5.177   8.415 -1.7514  1.0004 -0.1893
  123OSM    C1F13070   4.015   5.487   6.882 -0.1010 -0.0443  0.4793
  123OSM     OF13071   3.969   5.570   6.806 -0.6423  0.2442 -0.3450
  123OSM    C2F13072   4.052   5.518   7.022  0.1887  0.0038  0.0883
  123OSM    H2F13073   4.145   5.579   7.028  0.4851 -0.5858  3.8494
  123OSM    H2G13074   4.069   5.421   7.074 -1.1916 -0.5900 -0.5210
  123OSM    C3F13075   3.933   5.587   7.095 -0.0085 -0.0139  0.8868
  123OSM    H3F13076   3.836   5.567   7.043 -0.1159  0.2769  0.9725
  123OSM    H3G13077   3.946   5.696   7.082 -0.6988  0.1383  1.4063
  123OSM    C4F13078   3.924   5.554   7.240  0.5924  0.0476  0.3445
  123OSM    H4F13079   3.867   5.634   7.292 -0.0431 -0.0402 -0.1990
  123OSM    H4G13080   4.024   5.549   7.288  2.5674  0.6592 -3.3314
  123OSM    C5F13081   3.859   5.423   7.273  0.0063 -0.0954 -0.4167
  123OSM    H5F13082   3.898   5.336   7.217  0.3691 -1.7911  2.3074
  123OSM    H5G13083   3.751   5.432   7.251 -0.6985 -3.3636  1.1143
  123OSM    C6F13084   3.861   5.405   7.426 -0.0017 -0.9471 -0.2902
  123OSM    H6F13085   3.947   5.462   7.467  0.7432 -0.3301 -2.5663
  123OSM    H6G13086   3.887   5.301   7.452  1.7366 -0.7031 -0.9330
  123OSM    C7F13087   3.732   5.460   7.493 -0.2198  0.5375 -0.9530
  123OSM    H7F13088   3.658   5.387   7.453 -0.0276 -1.5025  2.1318
  123OSM    H7G13089   3.709   5.566   7.468 -1.0441  0.6883  0.3401
  123OSM    C8F13090   3.724   5.452   7.649 -0.3678 -0.1080 -0.0690
  123OSM    H8F13091   3.806   5.514   7.691 -0.6763  0.6020 -0.5064
  123OSM    H8G13092   3.760   5.349   7.670  0.4091 -0.1041 -1.2810
  123OSM    C9F13093   3.598   5.457   7.724 -0.0477  0.2897  0.4160
  123OSM    H9F13094   3.512   5.433   7.659  0.3071 -1.4178  0.5266
  123OSM   C10F13095   3.579   5.461   7.856  0.2504  0.1615 -0.1146
  123OSM   H10F13096   3.483   5.480   7.906  0.7964  2.0085  0.3019
  123OSM   C11F13097   3.695   5.470   7.951 -0.0494  0.1768  0.3128
  123OSM   H11F13098   3.756   5.561   7.931 -1.7862  1.6957  1.6149
  123OSM   H11G13099   3.758   5.382   7.927  0.1960 -0.0020  1.5835
  123OSM   C12F13100   3.649   5.475   8.102 -0.1345  0.0955 -0.5325
  123OSM   H12F13101   3.583   5.389   8.126 -1.1129  0.9180 -0.2586
  123OSM   H12G13102   3.606   5.576   8.118  0.8329  0.3398  0.6441
  123OSM   C13F13103   3.776   5.473   8.188 -0.3365  0.1699  0.0750
  123OSM   H13F13104   3.828   5.571   8.195  0.4053 -0.3325  2.4638
  123OSM   H13G13105   3.844   5.402   8.136 -1.8432 -2.0988  1.0349
  123OSM   C14F13106   3.743   5.432   8.330  0.2057 -0.1908 -0.4451
  123OSM   H14F13107   3.688   5.336   8.333 -2.0424  0.9808  3.6693
  123OSM   H14G13108   3.663   5.501   8.363  0.2384 -0.7924  0.9777
  123OSM   C15F13109   3.867   5.419   8.429 -0.5521 -0.5621 -0.6038
  123OSM   H15F13110   3.907   5.521   8.445  1.1224 -0.8602 -2.4760
  123OSM   H15G13111   3.957   5.373   8.384  0.8952  0.1336  1.4422
  123OSM   C16F13112   3.843   5.360   8.562 -0.3218 -0.3616 -0.3230
  123OSM   H16F13113   3.928   5.380   8.630  0.3755 -2.9994 -0.3058
  123OSM   H16G13114   3.827   5.251   8.546 -4.7157 -0.2015  1.4784
  123OSM   C17F13115   3.724   5.415   8.645 -0.4305  0.4944 -0.3249
  123OSM   H17F13116   3.626   5.388   8.601 -0.3268 -1.5170  0.5399
  123OSM   H17G13117   3.739   5.524   8.656  0.6390  0.4249 -0.9228
  123OSM   C18F13118   3.729   5.345   8.782 -0.4640  0.2123 -0.5074
  123OSM   H18F13119   3.700   5.239   8.771 -2.9916  0.6857  0.6542
  123OSM   H18G13120   3.645   5.393   8.837  0.6391 -0.4724  1.9303
  123OSM   H18H13121   3.823   5.362   8.839 -2.1834 -1.2526  3.0934
  124OSM      N13122   2.224   1.569   6.061  0.2769  0.4010 -0.0578
  124OSM    C1513123   2.090   1.580   5.993 -0.5436 -0.3776 -0.3429
  124OSM   H15A13124   2.021   1.512   6.039 -0.5618 -0.5247 -0.5850
  124OSM   H15B13125   2.088   1.546   5.890  0.6831  1.5501 -1.0818
  124OSM   H15C13126   2.047   1.679   6.002  1.6637  0.4626  1.8367
  124OSM    C1413127   2.197   1.573   6.209  0.4989  0.5267 -0.4664
  124OSM   H14A13128   2.156   1.670   6.233  1.4833  0.3399  2.3567
  124OSM   H14B13129   2.287   1.559   6.268 -0.4028  0.8855  1.0430
  124OSM   H14C13130   2.121   1.502   6.238  1.5401 -0.8536 -1.0031
  124OSM    C1313131   2.299   1.444   6.026  0.2688 -0.3640  0.0396
  124OSM   H13A13132   2.400   1.448   6.065  0.1402 -2.7196  0.7926
  124OSM   H13B13133   2.321   1.441   5.920  0.4042  3.5832 -0.1750
  124OSM   H13C13134   2.257   1.353   6.066 -1.9296 -0.0461 -1.3593
  124OSM    C1213135   2.312   1.685   6.023 -0.5324 -0.0636  1.3786
  124OSM   H12A13136   2.253   1.775   6.021 -0.2407  0.1165  0.2818
  124OSM   H12B13137   2.354   1.661   5.926 -0.2355 -0.0646  1.5038
  124OSM    C1113138   2.438   1.709   6.106  0.6362 -0.5211  0.5625
  124OSM   H11A13139   2.411   1.730   6.212 -1.5299  0.6742 -0.1709
  124OSM   H11B13140   2.475   1.807   6.068 -1.9947  1.2066  2.1398
  124OSM      P13141   2.676   1.627   6.159  0.1498 -0.3031 -0.3169
  124OSM    O1313142   2.763   1.536   6.083 -0.4207 -0.9589  0.3260
  124OSM    O1413143   2.698   1.770   6.147 -0.1336 -0.3982  0.5466
  124OSM    O1113144   2.659   1.590   6.316  0.4807  0.5505  0.4473
  124OSM    O1213145   2.528   1.598   6.111 -0.9239 -0.1211 -0.1915
  124OSM    C1S13146   2.635   1.455   6.346  0.4054  0.7608 -0.3523
  124OSM    H1S13147   2.723   1.390   6.328 -0.7544 -0.9050 -0.2122
  124OSM    H1T13148   2.544   1.412   6.298 -0.0453 -1.4998  2.2885
  124OSM     NF13149   2.567   1.287   6.532 -0.5356  0.1451 -0.1335
  124OSM    HNF13150   2.482   1.236   6.518 -0.3616  0.2451 -1.7735
  124OSM    C2S13151   2.574   1.425   6.494 -0.0561  0.1264  0.0770
  124OSM    H2S13152   2.637   1.473   6.573 -0.3089 -1.4625  1.2936
  124OSM    C3S13153   2.433   1.492   6.508 -0.0519 -0.3493  0.1725
  124OSM    H3S13154   2.349   1.432   6.468 -0.9509  1.8383 -1.4563
  124OSM     O313155   2.419   1.619   6.442 -0.2827 -0.9008 -0.0726
  124OSM    HO313156   2.502   1.638   6.399  1.6039  0.4236  3.7248
  124OSM    C4S13157   2.402   1.502   6.654  0.1266 -0.1394 -1.0250
  124OSM    H4S13158   2.361   1.407   6.690 -0.2445  0.0398 -0.9664
  124OSM    C5S13159   2.404   1.609   6.737 -0.5055 -0.5295  0.3131
  124OSM    H5S13160   2.436   1.703   6.691 -0.4449 -0.0036  1.4199
  124OSM    C6S13161   2.362   1.616   6.883  0.5126 -0.3260  0.5534
  124OSM    H6S13162   2.253   1.616   6.904  0.3777 -0.4861 -0.1278
  124OSM    H6T13163   2.413   1.704   6.928 -1.0774  1.9182 -1.7820
  124OSM    C7S13164   2.397   1.497   6.964 -0.8885  0.5350 -0.0599
  124OSM    H7S13165   2.507   1.481   6.964 -0.9033  0.2704 -1.7192
  124OSM    H7T13166   2.348   1.401   6.934  0.9457 -0.6794  0.6684
  124OSM    C8S13167   2.353   1.503   7.108 -0.1641  0.0389 -0.1467
  124OSM    H8S13168   2.243   1.504   7.122 -0.2001 -0.9653 -0.2720
  124OSM    H8T13169   2.394   1.598   7.149  1.1652 -1.0501  1.1754
  124OSM    C9S13170   2.417   1.394   7.197  0.1445 -0.3712  0.0163
  124OSM    H9S13171   2.525   1.383   7.171  0.1537  2.5192 -1.6460
  124OSM    H9T13172   2.366   1.301   7.167  0.1509  0.2871 -2.2456
  124OSM   C10S13173   2.395   1.434   7.343 -0.7974 -0.1177 -0.2178
  124OSM   H10S13174   2.294   1.411   7.383 -0.4227  1.7835  2.0605
  124OSM   H10T13175   2.415   1.543   7.352  0.6655 -0.2125 -1.7555
  124OSM   C11S13176   2.486   1.363   7.442 -0.7772  0.0977  0.3763
  124OSM   H11S13177   2.590   1.372   7.403 -1.1033  0.2610 -0.4802
  124OSM   H11T13178   2.470   1.253   7.446 -1.4614  0.1130 -1.1874
  124OSM   C12S13179   2.486   1.418   7.587  0.1983 -0.5642  0.4637
  124OSM   H12S13180   2.475   1.528   7.580  0.4010 -0.6555 -2.1298
  124OSM   H12T13181   2.581   1.401   7.643  0.5276 -0.4441 -0.0458
  124OSM   C13S13182   2.382   1.361   7.676 -0.4093  0.3017 -0.0330
  124OSM   H13S13183   2.364   1.254   7.655 -4.2787  0.8740 -0.4678
  124OSM   H13T13184   2.292   1.414   7.637 -0.6246 -0.5776 -0.7495
  124OSM   C14S13185   2.400   1.386   7.822  0.6601 -0.3679 -0.2227
  124OSM   H14S13186   2.430   1.492   7.838 -2.6466  0.4856  1.3968
  124OSM   H14T13187   2.479   1.314   7.851 -0.1305 -0.9276  0.6276
  124OSM   C15S13188   2.282   1.331   7.904  0.2374  0.7983 -0.3452
  124OSM   H15S13189   2.316   1.277   7.995  1.6590  1.1035 -0.6645
  124OSM   H15T13190   2.237   1.246   7.849 -1.8240  1.1452  0.7059
  124OSM   C16S13191   2.171   1.429   7.947  0.4115 -0.0197  0.5143
  124OSM   H16S13192   2.128   1.467   7.852  1.3291 -3.5313 -1.5116
  124OSM   H16T13193   2.210   1.512   8.010 -0.6820  1.7984 -1.0903
  124OSM   C17S13194   2.060   1.364   8.031  0.9484 -0.3133  0.6636
  124OSM   H17S13195   1.993   1.307   7.964 -1.2863  3.6020 -0.7722
  124OSM   H17T13196   1.998   1.454   8.051 -0.1300 -0.4687 -1.7258
  124OSM   C18S13197   2.100   1.287   8.153  0.8953  0.4309 -0.0698
  124OSM   H18S13198   2.154   1.198   8.115  0.8436  1.0796 -1.7376
  124OSM   H18T13199   2.010   1.253   8.209  1.8666 -2.4501 -0.0851
  124OSM   H18U13200   2.164   1.351   8.218 -1.5661  1.3550  1.6181
  124OSM    C1F13201   2.677   1.213   6.554  0.5702 -0.1145 -0.1342
  124OSM     OF13202   2.783   1.273   6.554  0.1074  0.2350  0.2220
  124OSM    C2F13203   2.663   1.065   6.593 -0.3214  0.0738  0.4028
  124OSM    H2F13204   2.700   1.003   6.508 -0.7808  0.4323 -0.0693
  124OSM    H2G13205   2.556   1.046   6.617 -0.3930 -2.4123 -1.3862
  124OSM    C3F13206   2.750   1.045   6.717 -0.4190  0.4620 -0.3550
  124OSM    H3F13207   2.857   1.070   6.699 -0.0394 -2.2204 -2.4007
  124OSM    H3G13208   2.742   0.939   6.750 -0.7724  0.9029  1.0325
  124OSM    C4F13209   2.714   1.148   6.832  0.3340 -0.1568 -0.1902
  124OSM    H4F13210   2.627   1.119   6.895  0.8013 -0.3495  0.3773
  124OSM    H4G13211   2.724   1.254   6.801  0.5632 -0.1425 -0.0712
  124OSM    C5F13212   2.828   1.155   6.941  0.1527 -0.5364  0.2721
  124OSM    H5F13213   2.913   1.204   6.889  0.3599 -0.8814  0.2882
  124OSM    H5G13214   2.865   1.052   6.957  0.6966 -0.5531 -0.9684
  124OSM    C6F13215   2.782   1.232   7.070 -0.3666 -0.6920 -0.5504
  124OSM    H6F13216   2.700   1.178   7.122 -1.4132  0.4293 -1.0022
  124OSM    H6G13217   2.736   1.328   7.039  3.0897  1.3551  0.1157
  124OSM    C7F13218   2.900   1.271   7.172 -0.3315 -0.0316  0.0792
  124OSM    H7F13219   2.865   1.331   7.259  0.9348  0.2480  0.4163
  124OSM    H7G13220   2.984   1.313   7.113 -0.8604 -1.6430 -1.9540
  124OSM    C8F13221   2.961   1.136   7.237  0.3191 -0.0234  0.1810
  124OSM    H8F13222   3.033   1.163   7.318 -0.4655 -1.3060  1.3440
  124OSM    H8G13223   3.022   1.094   7.154  0.1073  2.2203 -1.1921
  124OSM    C9F13224   2.878   1.027   7.304 -0.2641  0.4284 -0.3003
  124OSM    H9F13225   2.838   0.939   7.252 -1.3392 -1.2135  2.9819
  124OSM   C10F13226   2.847   1.034   7.429  0.0278 -0.5714 -0.1847
  124OSM   H10F13227   2.793   0.949   7.474  0.9684  0.1019  2.4348
  124OSM   C11F13228   2.891   1.139   7.538 -0.0103 -0.3228  0.1792
  124OSM   H11F13229   2.808   1.211   7.549  0.1372  0.2749 -2.1049
  124OSM   H11G13230   2.986   1.189   7.510  0.6421 -1.9002 -0.5835
  124OSM   C12F13231   2.907   1.078   7.683 -0.6326  0.7692 -0.2734
  124OSM   H12F13232   2.988   1.003   7.674 -0.4654  1.1337 -2.6326
  124OSM   H12G13233   2.806   1.033   7.701  1.0218 -3.2466  0.0225
  124OSM   C13F13234   2.942   1.173   7.797  0.1933  0.0069 -1.0340
  124OSM   H13F13235   2.872   1.260   7.798  1.9613  1.4791  0.3730
  124OSM   H13G13236   3.038   1.223   7.775 -0.0001  1.3370  0.8973
  124OSM   C14F13237   2.934   1.119   7.942  0.4385  0.0954 -0.0373
  124OSM   H14F13238   3.011   1.040   7.953 -0.2562 -0.4275  1.1781
  124OSM   H14G13239   2.833   1.076   7.953  1.0657 -2.1228 -2.0382
  124OSM   C15F13240   2.957   1.227   8.053  0.3762 -0.7508 -0.0832
  124OSM   H15F13241   2.870   1.294   8.074  2.2911  1.3898  1.4498
  124OSM   H15G13242   3.029   1.309   8.034 -1.3539  0.8810  0.0886
  124OSM   C16F13243   3.003   1.163   8.182  0.5578  0.5533 -0.2002
  124OSM   H16F13244   2.952   1.064   8.187  0.3629  0.5920 -1.2105
  124OSM   H16G13245   2.966   1.226   8.266  2.3146  0.0885  0.9739
  124OSM   C17F13246   3.153   1.140   8.184 -0.6794 -0.2252  0.3831
  124OSM   H17F13247   3.216   1.230   8.194  2.9191 -2.5558  0.3917
  124OSM   H17G13248   3.172   1.092   8.085 -1.5566  1.1789 -0.5046
  124OSM   C18F13249   3.213   1.033   8.272 -0.2617 -0.1049 -1.0032
  124OSM   H18F13250   3.314   0.997   8.242  0.2052 -0.8620  1.2617
  124OSM   H18G13251   3.147   0.944   8.269 -0.6107  0.1135 -0.1289
  124OSM   H18H13252   3.215   1.062   8.379  0.0010  3.1419 -1.7844
  125OSM      N13253   0.431   4.996   5.737 -0.2945  0.0198  0.4507
  125OSM    C1513254   0.280   5.027   5.732  0.0887  0.0961 -0.0285
  125OSM   H15A13255   0.235   4.999   5.638  1.3685 -0.3996 -0.5243
  125OSM   H15B13256   0.266   5.133   5.748  0.7809  0.0726  0.8151
  125OSM   H15C13257   0.226   4.974   5.809  1.2465  0.8227  1.3324
  125OSM    C1413258   0.448   4.844   5.719 -0.0674  0.3864  0.2925
  125OSM   H14A13259   0.411   4.794   5.807 -1.7605 -1.7522 -1.4973
  125OSM   H14B13260   0.552   4.815   5.717  0.3827  1.9426 -0.1764
  125OSM   H14C13261   0.397   4.813   5.629 -0.1745 -0.7427  0.7258
  125OSM    C1313262   0.497   5.065   5.625 -0.2373  0.0432  0.0310
  125OSM   H13A13263   0.604   5.049   5.625 -0.5742 -3.4356 -2.6182
  125OSM   H13B13264   0.480   5.172   5.623  2.1399  0.4655 -1.1645
  125OSM   H13C13265   0.461   5.027   5.530  2.3614 -0.9285 -0.6562
  125OSM    C1213266   0.496   5.038   5.869  0.3346  0.6641  0.3871
  125OSM   H12A13267   0.519   5.143   5.867  0.5355  0.6211 -0.7803
  125OSM   H12B13268   0.588   4.983   5.884 -0.6688 -0.5664  2.5174
  125OSM    C1113269   0.417   4.996   5.990 -1.3746 -0.1416  0.4638
  125OSM   H11A13270   0.310   5.022   5.989 -1.5587 -0.6805 -2.1522
  125OSM   H11B13271   0.454   5.048   6.080  1.9599  1.2348 -1.5024
  125OSM      P13272   0.533   4.785   6.093  0.1111  0.0679 -0.0211
  125OSM    O1313273   0.508   4.642   6.092  0.5545  0.6720  0.8533
  125OSM    O1413274   0.664   4.835   6.034  0.2561  0.2156  0.0015
  125OSM    O1113275   0.524   4.834   6.247 -0.0165  0.9418  0.2894
  125OSM    O1213276   0.425   4.856   6.013  0.1742  0.2251 -0.3590
  125OSM    C1S13277   0.398   4.809   6.320 -0.1897 -0.2333  0.9305
  125OSM    H1S13278   0.368   4.703   6.309 -0.8285  0.1705 -2.2039
  125OSM    H1T13279   0.318   4.873   6.277  1.1671 -0.6537 -2.5607
  125OSM     NF13280   0.298   4.796   6.547  0.0442  0.3132 -0.3489
  125OSM    HNF13281   0.232   4.861   6.583  0.2577 -0.7696  2.1736
  125OSM    C2S13282   0.406   4.855   6.466 -0.0737  0.2656 -0.1382
  125OSM    H2S13283   0.494   4.801   6.507 -0.5270 -0.9771 -0.7602
  125OSM    C3S13284   0.420   5.009   6.479 -0.5171 -0.2224 -0.5056
  125OSM    H3S13285   0.337   5.067   6.434 -0.8512  0.2168  0.6288
  125OSM     O313286   0.536   5.057   6.410  0.0801  0.5067 -0.1839
  125OSM    HO313287   0.578   4.979   6.372  0.8192  0.3164  0.9774
  125OSM    C4S13288   0.438   5.044   6.622  0.5093  0.8684 -0.6277
  125OSM    H4S13289   0.349   5.102   6.648  0.3191 -0.1304  1.1263
  125OSM    C5S13290   0.530   5.015   6.713 -0.5024  0.6221 -0.0328
  125OSM    H5S13291   0.613   4.951   6.680 -0.3352  0.7670  0.1091
  125OSM    C6S13292   0.529   5.055   6.857 -0.0295 -0.0551  0.2578
  125OSM    H6S13293   0.460   5.132   6.894  0.5070 -0.3638  1.9695
  125OSM    H6T13294   0.632   5.093   6.875  0.3428 -0.7898 -0.2148
  125OSM    C7S13295   0.518   4.930   6.947 -0.2514 -0.0108  0.0804
  125OSM    H7S13296   0.617   4.880   6.947 -0.6267 -0.7736 -0.5209
  125OSM    H7T13297   0.423   4.879   6.919 -2.1983  2.3860  1.8319
  125OSM    C8S13298   0.490   4.978   7.092  0.5909  0.9579  0.2769
  125OSM    H8S13299   0.387   5.020   7.100  0.2443 -0.0411  1.5452
  125OSM    H8T13300   0.569   5.038   7.142  0.6532 -0.4877  2.0059
  125OSM    C9S13301   0.490   4.854   7.180 -0.4261  0.4045 -0.3711
  125OSM    H9S13302   0.592   4.810   7.170  0.1539  1.6018  0.0941
  125OSM    H9T13303   0.419   4.778   7.140 -1.1052 -0.1604  1.7573
  125OSM   C10S13304   0.467   4.894   7.327  0.1316 -0.1520  1.0527
  125OSM   H10S13305   0.366   4.934   7.352  0.0654 -0.0261  0.5931
  125OSM   H10T13306   0.551   4.957   7.363  0.3550 -1.2181  2.5172
  125OSM   C11S13307   0.475   4.772   7.416 -0.9772 -0.6020 -0.4063
  125OSM   H11S13308   0.571   4.721   7.395 -1.7440 -1.2461 -2.7193
  125OSM   H11T13309   0.398   4.696   7.391 -1.6702  0.4260 -1.5363
  125OSM   C12S13310   0.462   4.809   7.566 -0.1719  0.4830  0.2371
  125OSM   H12S13311   0.365   4.858   7.584 -0.0983  0.6623  0.1523
  125OSM   H12T13312   0.540   4.886   7.583  0.0651  0.4668 -0.6973
  125OSM   C13S13313   0.484   4.694   7.666  0.0329 -0.8047  0.0540
  125OSM   H13S13314   0.588   4.657   7.652 -0.0092 -1.2942  0.9414
  125OSM   H13T13315   0.420   4.604   7.661 -0.8940 -0.1420 -0.2800
  125OSM   C14S13316   0.470   4.752   7.811 -0.0991 -0.0159  0.3625
  125OSM   H14S13317   0.366   4.776   7.841 -0.0548 -2.4270  2.7964
  125OSM   H14T13318   0.534   4.842   7.823  0.0344 -0.0033 -0.3731
  125OSM   C15S13319   0.522   4.658   7.923  0.6407  0.8007 -0.0692
  125OSM   H15S13320   0.629   4.630   7.912  0.5325  0.5067 -0.4047
  125OSM   H15T13321   0.464   4.563   7.914  0.3075  0.9523  0.4261
  125OSM   C16S13322   0.501   4.717   8.063 -0.1077  0.5204 -0.4235
  125OSM   H16S13323   0.391   4.714   8.074 -0.2176 -2.0964 -1.4884
  125OSM   H16T13324   0.544   4.819   8.059  2.8216 -0.6217 -1.1626
  125OSM   C17S13325   0.580   4.648   8.175  0.2519  0.0357 -0.0942
  125OSM   H17S13326   0.689   4.649   8.153  0.2478  1.7192 -0.1309
  125OSM   H17T13327   0.561   4.539   8.170  0.1851 -0.0426  1.3531
  125OSM   C18S13328   0.550   4.695   8.319  0.0301 -0.4115 -0.5004
  125OSM   H18S13329   0.575   4.802   8.329 -0.4715 -0.4071  0.7987
  125OSM   H18T13330   0.611   4.629   8.385 -0.9385  1.0373  1.9814
  125OSM   H18U13331   0.441   4.686   8.334 -0.2258 -0.8245 -2.3079
  125OSM    C1F13332   0.288   4.660   6.566 -0.1631  0.0077  0.3193
  125OSM     OF13333   0.385   4.583   6.558  0.7832  0.3804  0.3771
  125OSM    C2F13334   0.151   4.607   6.590  0.0665  0.1137  1.1515
  125OSM    H2F13335   0.121   4.556   6.495  0.8462  1.4101  0.1704
  125OSM    H2G13336   0.079   4.690   6.605  0.1873  0.7851 -1.4755
  125OSM    C3F13337   0.142   4.504   6.701  0.3727 -0.7787  0.8716
  125OSM    H3F13338   0.208   4.415   6.692  0.4480 -0.6840  0.4615
  125OSM    H3G13339   0.039   4.461   6.702  0.3225 -0.7348 -0.3532
  125OSM    C4F13340   0.171   4.568   6.838 -0.6460 -0.0804 -0.1084
  125OSM    H4F13341   0.268   4.618   6.856 -0.6708 -0.2894  0.6410
  125OSM    H4G13342   0.172   4.484   6.911 -1.5947 -0.0706 -0.0712
  125OSM    C5F13343   0.072   4.663   6.898  0.1861 -0.1680 -0.0274
  125OSM    H5F13344  -0.037   4.642   6.892  0.1974 -0.4781  0.7500
  125OSM    H5G13345   0.089   4.754   6.836  0.6877  0.0462  0.4144
  125OSM    C6F13346   0.110   4.701   7.045 -0.0023  0.6692  0.0190
  125OSM    H6F13347   0.219   4.691   7.066 -0.0016 -0.5765 -0.4965
  125OSM    H6G13348   0.063   4.629   7.115  1.1388  2.1683  2.4693
  125OSM    C7F13349   0.064   4.842   7.088 -0.0910 -0.0344  0.2535
  125OSM    H7F13350  -0.041   4.850   7.054  0.1015 -2.5438 -1.1670
  125OSM    H7G13351   0.132   4.914   7.037 -0.8925  0.2912 -0.3632
  125OSM    C8F13352   0.093   4.884   7.235 -0.4105  0.4089 -0.0482
  125OSM    H8F13353   0.128   4.989   7.228 -1.7875  0.9425  0.6302
  125OSM    H8G13354   0.185   4.825   7.255 -0.6705 -0.5571 -1.5264
  125OSM    C9F13355  -0.029   4.856   7.330 -0.8230  0.5247  0.1521
  125OSM    H9F13356  -0.122   4.913   7.316 -1.2627 -0.7037 -2.4299
  125OSM   C10F13357  -0.016   4.770   7.429 -0.0319 -0.1145 -0.2669
  125OSM   H10F13358  -0.108   4.742   7.483 -0.1099  3.8781  2.0579
  125OSM   C11F13359   0.108   4.684   7.457  0.5693 -0.3683 -0.7778
  125OSM   H11F13360   0.198   4.750   7.462  0.7533 -0.5634 -1.4439
  125OSM   H11G13361   0.123   4.616   7.371 -0.0154 -0.9485 -0.4263
  125OSM   C12F13362   0.108   4.603   7.584 -0.3613  0.3249 -0.3809
  125OSM   H12F13363   0.195   4.535   7.572  0.4880  0.9960  1.5254
  125OSM   H12G13364   0.017   4.542   7.595  0.7989 -1.6772 -1.3175
  125OSM   C13F13365   0.131   4.676   7.718  0.2750 -0.1533 -0.1693
  125OSM   H13F13366   0.042   4.737   7.748  0.8590 -0.1654  1.6990
  125OSM   H13G13367   0.217   4.746   7.713 -0.0200  0.2173 -0.0832
  125OSM   C14F13368   0.148   4.579   7.835 -0.0331  0.7752  0.5212
  125OSM   H14F13369   0.248   4.530   7.839 -0.1248  0.6513  1.4381
  125OSM   H14G13370   0.077   4.494   7.825  1.4894 -0.8854  2.7253
  125OSM   C15F13371   0.114   4.648   7.964  0.2665  0.2059 -0.1622
  125OSM   H15F13372   0.009   4.683   7.970 -0.5824 -1.7852 -2.0283
  125OSM   H15G13373   0.190   4.728   7.974 -1.4651  2.2842 -2.4440
  125OSM   C16F13374   0.132   4.565   8.094  0.4630  0.3130 -0.0528
  125OSM   H16F13375   0.241   4.559   8.118  0.5099  0.6337 -0.1823
  125OSM   H16G13376   0.090   4.462   8.093  0.2508  0.3909 -1.3830
  125OSM   C17F13377   0.077   4.631   8.222 -0.4891 -0.4426  0.6942
  125OSM   H17F13378   0.105   4.561   8.303  1.5563 -0.8071 -0.2662
  125OSM   H17G13379  -0.033   4.640   8.211 -0.2518  1.3969 -0.7651
  125OSM   C18F13380   0.135   4.774   8.250 -0.0029 -0.4607  0.3518
  125OSM   H18F13381   0.239   4.790   8.214 -0.2402 -1.5627 -0.9361
  125OSM   H18G13382   0.135   4.785   8.360  2.8761  0.1219  0.3854
  125OSM   H18H13383   0.064   4.847   8.206 -0.4306  0.3421  2.2789
  126OSM      N13384   4.317   3.277   6.223  0.9327 -0.0570  0.0301
  126OSM    C1513385   4.292   3.422   6.211 -0.7222 -0.5729 -0.1689
  126OSM   H15A13386   4.208   3.431   6.144  0.2796  0.7892 -1.2903
  126OSM   H15B13387   4.380   3.468   6.169 -0.3871 -0.7416  0.3445
  126OSM   H15C13388   4.267   3.464   6.307  1.8361 -0.5603  0.5732
  126OSM    C1413389   4.204   3.215   6.307 -0.1670  0.0692 -0.1896
  126OSM   H14A13390   4.221   3.108   6.306  0.8181  0.2176 -1.2339
  126OSM   H14B13391   4.102   3.229   6.276 -0.6986  3.2821  2.4310
  126OSM   H14C13392   4.197   3.257   6.406 -0.3437 -1.0118  0.2700
  126OSM    C1313393   4.309   3.213   6.087 -0.4552  0.2961 -0.1579
  126OSM   H13A13394   4.370   3.262   6.013 -1.3534 -0.5939 -1.5274
  126OSM   H13B13395   4.209   3.212   6.047 -0.8338  0.6432  0.7367
  126OSM   H13C13396   4.340   3.111   6.102  1.9146  0.7219 -1.6903
  126OSM    C1213397   4.450   3.261   6.292  0.2974 -0.0430 -0.4830
  126OSM   H12A13398   4.517   3.333   6.247 -0.1760  0.8238  0.1845
  126OSM   H12B13399   4.487   3.165   6.259  0.5047 -0.5022  1.0243
  126OSM    C1113400   4.465   3.270   6.443  0.8616 -0.1564  0.2387
  126OSM   H11A13401   4.567   3.238   6.475  0.5184  0.2698  1.8906
  126OSM   H11B13402   4.405   3.189   6.491 -0.6195 -0.0086 -1.3123
  126OSM      P13403   4.538   3.515   6.491  0.0088  0.0166 -0.1140
  126OSM    O1313404   4.622   3.504   6.370 -0.5635 -0.1967 -0.1517
  126OSM    O1413405   4.464   3.647   6.505 -0.5399 -0.2086 -0.1161
  126OSM    O1113406   4.634   3.493   6.610  0.1707 -0.0096 -0.1436
  126OSM    O1213407   4.437   3.395   6.501  0.0455  0.1256  0.3984
  126OSM    C1S13408   4.588   3.501   6.745  0.3211 -0.6608 -0.4964
  126OSM    H1S13409   4.573   3.403   6.795 -1.3308 -0.2993 -0.2078
  126OSM    H1T13410   4.490   3.555   6.751  1.0146  0.7143 -1.1500
  126OSM     NF13411   4.616   3.634   6.955  0.4739  0.8617 -0.6461
  126OSM    HNF13412   4.584   3.728   6.971 -1.9594 -0.0155  0.1300
  126OSM    C2S13413   4.687   3.594   6.833  0.0458  0.9312 -0.1591
  126OSM    H2S13414   4.780   3.536   6.848  0.9372  1.8329 -1.9113
  126OSM    C3S13415   4.735   3.719   6.752 -0.0615 -0.5312 -0.0755
  126OSM    H3S13416   4.650   3.778   6.711  1.3967  2.9671  1.5492
  126OSM     O313417   4.818   3.684   6.643 -0.2822  0.2682  0.1101
  126OSM    HO313418   4.804   3.592   6.620 -0.9519  0.5850 -0.8213
  126OSM    C4S13419   4.811   3.807   6.848 -0.1210 -0.3098  0.0858
  126OSM    H4S13420   4.739   3.852   6.918  0.3898 -0.8204  0.9573
  126OSM    C5S13421   4.949   3.825   6.847  0.2099 -0.3657 -0.6045
  126OSM    H5S13422   5.011   3.767   6.777  0.1970 -2.0339  0.6980
  126OSM    C6S13423   5.021   3.916   6.947 -0.7433  0.1595  0.6605
  126OSM    H6S13424   4.975   4.016   6.959 -2.3694 -0.5955  1.1066
  126OSM    H6T13425   5.122   3.940   6.909 -1.7215  0.3886 -2.0658
  126OSM    C7S13426   5.013   3.857   7.094 -0.1635  0.0017 -0.4364
  126OSM    H7S13427   5.094   3.906   7.151  1.4000 -2.3167 -0.5684
  126OSM    H7T13428   5.042   3.750   7.096 -1.6267 -0.4176 -0.1094
  126OSM    C8S13429   4.878   3.880   7.165  0.2543  1.0974 -0.4067
  126OSM    H8S13430   4.802   3.815   7.117  1.2271 -0.0735 -0.4063
  126OSM    H8T13431   4.834   3.979   7.140  0.4758  0.7086 -2.5207
  126OSM    C9S13432   4.876   3.863   7.318  0.1600  0.1220  0.1760
  126OSM    H9S13433   4.938   3.939   7.370  2.0950 -0.0435 -1.7375
  126OSM    H9T13434   4.908   3.758   7.336  3.1821  0.2905 -3.2363
  126OSM   C10S13435   4.731   3.881   7.379  0.0397  0.3124  0.1103
  126OSM   H10S13436   4.672   3.799   7.334 -0.1759  0.1661  0.6481
  126OSM   H10T13437   4.692   3.978   7.342 -2.0286 -0.0924  1.0565
  126OSM   C11S13438   4.739   3.895   7.537  0.3435  0.1930  0.1177
  126OSM   H11S13439   4.807   3.980   7.557  2.7288 -2.0847  2.5367
  126OSM   H11T13440   4.800   3.814   7.582  0.5028  0.0853 -0.2868
  126OSM   C12S13441   4.601   3.908   7.610  0.2635 -0.3258 -0.5695
  126OSM   H12S13442   4.556   3.813   7.574  2.5222 -1.7076  0.1028
  126OSM   H12T13443   4.538   3.993   7.574 -0.9425 -1.3802 -1.0279
  126OSM   C13S13444   4.611   3.903   7.764  0.1535  0.0667  0.4977
  126OSM   H13S13445   4.641   3.797   7.781  1.2225 -0.1127 -2.0452
  126OSM   H13T13446   4.510   3.908   7.809  0.8631  1.1872  2.0729
  126OSM   C14S13447   4.699   4.023   7.839 -0.3859  0.6982  0.2738
  126OSM   H14S13448   4.620   4.099   7.859 -0.4177  0.5470  0.7242
  126OSM   H14T13449   4.766   4.057   7.757  0.9021 -0.1126  0.9572
  126OSM   C15S13450   4.773   3.971   7.961 -1.1149 -0.1856  0.1076
  126OSM   H15S13451   4.854   3.898   7.940 -2.3273 -1.1520 -1.4083
  126OSM   H15T13452   4.694   3.909   8.008  0.5891 -3.6299 -1.2504
  126OSM   C16S13453   4.812   4.091   8.046 -0.1926  0.1510  0.7936
  126OSM   H16S13454   4.717   4.148   8.058  0.4322  1.6006 -0.7319
  126OSM   H16T13455   4.878   4.165   7.996  1.0863 -0.7624  1.0702
  126OSM   C17S13456   4.885   4.059   8.179 -0.0570 -0.4948  0.4987
  126OSM   H17S13457   4.964   3.983   8.157  2.1788  1.3212  1.7834
  126OSM   H17T13458   4.817   4.012   8.253  1.5379 -0.8518  1.8049
  126OSM   C18S13459   4.954   4.182   8.248 -0.6854 -0.4139 -0.4016
  126OSM   H18S13460   5.007   4.257   8.185  3.6787  0.2824  3.5521
  126OSM   H18T13461   5.030   4.148   8.321 -1.9578  0.6319  1.4716
  126OSM   H18U13462   4.878   4.234   8.309 -0.4021  2.2242 -2.1326
  126OSM    C1F13463   4.594   3.549   7.057 -0.3229  0.5608 -0.0605
  126OSM     OF13464   4.643   3.433   7.049  0.6079  0.0908  0.1899
  126OSM    C2F13465   4.508   3.592   7.175  0.5637 -0.4937  0.0849
  126OSM    H2F13466   4.409   3.546   7.155 -0.2917  1.2294  0.1994
  126OSM    H2G13467   4.500   3.702   7.169  1.3462 -0.5080 -2.5972
  126OSM    C3F13468   4.553   3.538   7.311  0.0614  0.0015 -0.1170
  126OSM    H3F13469   4.658   3.572   7.325 -0.6656  2.3902  0.0634
  126OSM    H3G13470   4.554   3.427   7.312  1.4320 -0.0101  1.4535
  126OSM    C4F13471   4.459   3.588   7.419  0.3360  0.2291 -0.1251
  126OSM    H4F13472   4.354   3.566   7.390 -1.0383  3.4068  1.8041
  126OSM    H4G13473   4.470   3.698   7.436  1.2568  0.1323 -0.0316
  126OSM    C5F13474   4.499   3.524   7.554  0.1182 -0.4286 -1.2508
  126OSM    H5F13475   4.603   3.558   7.572 -0.2416  0.3017 -0.4647
  126OSM    H5G13476   4.501   3.413   7.559  2.1925 -0.5124 -2.9041
  126OSM    C6F13477   4.416   3.570   7.682  0.6346 -0.6102  0.0614
  126OSM    H6F13478   4.318   3.518   7.679  0.1656  0.2577 -0.1546
  126OSM    H6G13479   4.376   3.673   7.669 -0.5321 -1.1605 -0.9002
  126OSM    C7F13480   4.480   3.538   7.818  0.2832 -0.1162 -0.2306
  126OSM    H7F13481   4.584   3.577   7.821  0.2391 -0.0408  1.2212
  126OSM    H7G13482   4.485   3.427   7.821 -0.7019 -0.3671 -3.6842
  126OSM    C8F13483   4.391   3.574   7.939 -0.6076  0.9826 -0.8323
  126OSM    H8F13484   4.371   3.683   7.929  0.8158  1.0752 -3.4773
  126OSM    H8G13485   4.458   3.550   8.024 -3.4050 -1.2098  0.9480
  126OSM    C9F13486   4.263   3.490   7.949  0.0662 -0.0382 -0.3876
  126OSM    H9F13487   4.195   3.500   7.863  1.1269 -0.5177 -1.3012
  126OSM   C10F13488   4.227   3.415   8.054  0.1498 -0.3796  0.0455
  126OSM   H10F13489   4.132   3.359   8.055  0.1576 -0.4376  2.0804
  126OSM   C11F13490   4.302   3.391   8.182 -0.2123  0.0792  0.8561
  126OSM   H11F13491   4.409   3.420   8.182 -0.1112 -0.2892  0.9970
  126OSM   H11G13492   4.309   3.280   8.190  1.3432 -0.1975 -2.6524
  126OSM   C12F13493   4.232   3.457   8.301 -1.2077 -0.2394 -1.0144
  126OSM   H12F13494   4.234   3.568   8.309  1.1277 -0.2920 -0.3910
  126OSM   H12G13495   4.291   3.433   8.392 -1.3172 -0.3463 -0.9710
  126OSM   C13F13496   4.087   3.415   8.331  1.2505 -0.2173 -0.1560
  126OSM   H13F13497   4.082   3.306   8.309  0.7089 -0.4824  1.1594
  126OSM   H13G13498   4.031   3.473   8.256 -1.5355 -0.7380  1.3844
  126OSM   C14F13499   4.039   3.446   8.476  0.0879  0.4203  0.2813
  126OSM   H14F13500   3.931   3.424   8.490  0.4017  0.0583  2.4566
  126OSM   H14G13501   4.027   3.554   8.495 -4.3066  0.0640  0.6740
  126OSM   C15F13502   4.126   3.380   8.579  0.1704  0.2890  0.0457
  126OSM   H15F13503   4.075   3.386   8.677 -0.1653  0.6156 -0.1442
  126OSM   H15G13504   4.227   3.422   8.601  1.5471 -2.7751  0.1231
  126OSM   C16F13505   4.159   3.238   8.541  0.0013 -0.1474 -0.4676
  126OSM   H16F13506   4.215   3.226   8.446 -0.1982  0.7115 -0.7078
  126OSM   H16G13507   4.059   3.206   8.505  0.1466  0.5686 -1.5727
  126OSM   C17F13508   4.209   3.152   8.653 -0.4500 -0.2503  0.0103
  126OSM   H17F13509   4.148   3.178   8.742 -2.2190  0.4085 -1.3241
  126OSM   H17G13510   4.307   3.193   8.684 -0.7353  2.4726 -2.2739
  126OSM   C18F13511   4.215   3.005   8.619  0.8386 -0.2783 -0.3017
  126OSM   H18F13512   4.275   2.974   8.530 -1.4183 -2.3560 -1.2278
  126OSM   H18G13513   4.112   2.971   8.593  0.0749  0.5030  1.5425
  126OSM   H18H13514   4.245   2.948   8.709  0.6326  0.2726  0.1128
  127OSM      N13515   3.129   5.285   6.068 -0.0340  0.2335 -0.2866
  127OSM    C1513516   3.227   5.377   6.121 -0.5076 -0.3553 -0.1370
  127OSM   H15A13517   3.189   5.471   6.158  1.8099 -0.0886  1.8029
  127OSM   H15B13518   3.303   5.408   6.050  0.2032 -0.9209  0.3571
  127OSM   H15C13519   3.282   5.330   6.201 -1.0171  1.1884  1.1773
  127OSM    C1413520   3.199   5.208   5.962  0.4555 -0.1722  0.3290
  127OSM   H14A13521   3.296   5.173   5.994  2.2463  4.0086  0.1540
  127OSM   H14B13522   3.229   5.276   5.883 -1.1179 -0.0202 -0.1761
  127OSM   H14C13523   3.139   5.128   5.922 -0.5938 -0.4847  2.3779
  127OSM    C1313524   3.076   5.190   6.176 -0.4380  0.4704  0.1002
  127OSM   H13A13525   3.152   5.120   6.206  0.8070  1.8908  0.3987
  127OSM   H13B13526   2.992   5.126   6.153 -0.9052  0.9429  0.4885
  127OSM   H13C13527   3.050   5.245   6.265 -1.0454  0.7562 -0.2464
  127OSM    C1213528   3.010   5.357   6.009  0.3990 -0.6267  0.5807
  127OSM   H12A13529   2.949   5.282   5.962 -0.1297  0.1359  0.0237
  127OSM   H12B13530   3.025   5.431   5.932 -3.4260  0.9989  1.1746
  127OSM    C1113531   2.935   5.450   6.111  0.0733  0.2213  0.4974
  127OSM   H11A13532   2.956   5.436   6.220 -2.2461  1.9034  1.2498
  127OSM   H11B13533   2.826   5.439   6.094  0.2486  1.3415 -1.5042
  127OSM      P13534   2.903   5.709   6.113 -0.2374 -0.0132 -0.1704
  127OSM    O1313535   2.977   5.825   6.066 -0.6103 -0.2413 -0.0715
  127OSM    O1413536   2.762   5.703   6.068  0.2063 -0.4075 -0.2544
  127OSM    O1113537   2.915   5.707   6.272 -0.0901  0.2657  0.4938
  127OSM    O1213538   2.981   5.581   6.075  0.4136 -0.4591 -0.0840
  127OSM    C1S13539   3.033   5.716   6.348  0.7160 -0.1981 -0.1991
  127OSM    H1S13540   3.109   5.785   6.305  1.0131 -1.3564 -1.5872
  127OSM    H1T13541   3.075   5.614   6.349 -1.1437 -1.1333 -3.6175
  127OSM     NF13542   3.131   5.776   6.569  0.1224  0.2729  0.1405
  127OSM    HNF13543   3.152   5.705   6.636  1.9284  0.9117  0.3081
  127OSM    C2S13544   3.004   5.750   6.496 -0.6216  0.3081  0.8471
  127OSM    H2S13545   2.947   5.845   6.486 -1.6751 -0.2455  1.4129
  127OSM    C3S13546   2.917   5.651   6.570 -0.2571 -0.3658  0.5260
  127OSM    H3S13547   2.974   5.558   6.592 -0.9447 -0.7658  0.6332
  127OSM     O313548   2.801   5.616   6.504  0.0538 -0.2645 -0.2493
  127OSM    HO313549   2.832   5.635   6.415 -0.7465 -2.2989 -1.0269
  127OSM    C4S13550   2.868   5.703   6.701 -0.0512  0.7269  0.6198
  127OSM    H4S13551   2.787   5.777   6.691 -2.0193 -1.3044  0.6026
  127OSM    C5S13552   2.900   5.660   6.825 -0.0099 -0.0693 -0.9296
  127OSM    H5S13553   2.967   5.577   6.852 -1.3287 -0.6450  0.8028
  127OSM    C6S13554   2.845   5.716   6.957  0.1141  0.2125  0.2597
  127OSM    H6S13555   2.906   5.677   7.041 -0.1368 -0.0338  0.3312
  127OSM    H6T13556   2.741   5.683   6.977 -0.1625 -0.3768 -1.9235
  127OSM    C7S13557   2.839   5.877   6.978 -0.6420  0.3746  0.3596
  127OSM    H7S13558   2.790   5.920   6.888 -0.8088 -1.9783 -0.7546
  127OSM    H7T13559   2.942   5.915   6.993 -0.1936  0.1520 -1.7919
  127OSM    C8S13560   2.759   5.914   7.102  0.2986  0.3766 -0.4099
  127OSM    H8S13561   2.652   5.886   7.094  0.3412  0.7091 -3.6515
  127OSM    H8T13562   2.760   6.024   7.113  1.5438  0.3566 -0.1744
  127OSM    C9S13563   2.822   5.849   7.226  0.1241  0.1632  0.0976
  127OSM    H9S13564   2.928   5.880   7.234  0.0818  0.4446 -0.3954
  127OSM    H9T13565   2.821   5.738   7.224 -0.7538  0.1202  1.5978
  127OSM   C10S13566   2.769   5.888   7.364 -0.1819 -0.3524  0.3945
  127OSM   H10S13567   2.792   5.798   7.426  1.6733 -0.7268 -0.7606
  127OSM   H10T13568   2.658   5.882   7.365 -0.1219 -4.2008  0.5164
  127OSM   C11S13569   2.813   6.013   7.429  0.2181  0.6654  0.3288
  127OSM   H11S13570   2.760   6.097   7.379 -3.6837 -1.7082  0.0901
  127OSM   H11T13571   2.924   6.021   7.420  0.1957  0.6956  0.0642
  127OSM   C12S13572   2.766   6.021   7.576 -0.1949  0.2929 -0.9470
  127OSM   H12S13573   2.820   5.937   7.625 -1.2900 -0.3541 -0.8299
  127OSM   H12T13574   2.660   5.996   7.598 -0.2202  1.2695  0.1426
  127OSM   C13S13575   2.817   6.148   7.660 -0.2526 -0.3740 -0.1724
  127OSM   H13S13576   2.749   6.231   7.630 -0.6990 -1.0097 -0.9879
  127OSM   H13T13577   2.922   6.170   7.634 -0.2831 -0.8986 -0.7827
  127OSM   C14S13578   2.824   6.137   7.810 -0.4252  0.5515  1.0026
  127OSM   H14S13579   2.879   6.045   7.840 -0.6175 -0.4044 -1.3741
  127OSM   H14T13580   2.718   6.123   7.840 -0.2996 -0.7961  0.8740
  127OSM   C15S13581   2.880   6.261   7.882  0.6829  0.2468 -0.2097
  127OSM   H15S13582   2.859   6.249   7.990 -2.2093 -0.0581 -0.7325
  127OSM   H15T13583   2.818   6.345   7.845  1.2026  1.6667  1.9833
  127OSM   C16S13584   3.033   6.273   7.870 -0.3434  0.2157 -0.2376
  127OSM   H16S13585   3.059   6.366   7.924 -0.5545  0.4512 -0.5444
  127OSM   H16T13586   3.072   6.297   7.769  0.8894  0.9629  0.3877
  127OSM   C17S13587   3.120   6.162   7.940  0.4850 -0.1456  0.1041
  127OSM   H17S13588   3.135   6.074   7.874  0.3692 -0.2732  0.2465
  127OSM   H17T13589   3.042   6.121   8.008 -0.6009  1.5655 -0.0450
  127OSM   C18S13590   3.243   6.197   8.027 -0.0136  0.0001  0.0126
  127OSM   H18S13591   3.229   6.141   8.122  0.4030  0.7923  0.5619
  127OSM   H18T13592   3.238   6.305   8.056  0.9046  0.7171 -2.3092
  127OSM   H18U13593   3.336   6.167   7.976  1.2381  1.8202  1.0751
  127OSM    C1F13594   3.200   5.892   6.561  0.0226 -0.3224  0.3608
  127OSM     OF13595   3.197   5.969   6.461 -0.0823  0.0199  0.1000
  127OSM    C2F13596   3.283   5.931   6.675 -0.4515 -0.3305 -0.4171
  127OSM    H2F13597   3.344   6.015   6.636 -1.3266  0.8964  0.7651
  127OSM    H2G13598   3.353   5.857   6.720  1.2879  1.3656 -0.2329
  127OSM    C3F13599   3.200   5.990   6.791 -0.4380  0.6905  0.1066
  127OSM    H3F13600   3.135   5.917   6.844  0.2530  1.2858  1.8282
  127OSM    H3G13601   3.138   6.071   6.748 -2.0771 -0.8507 -0.5412
  127OSM    C4F13602   3.295   6.052   6.899  0.4245  0.0769 -0.0929
  127OSM    H4F13603   3.332   6.151   6.865  2.3466 -1.0485 -1.5658
  127OSM    H4G13604   3.391   5.997   6.908 -0.8395 -2.6288 -1.6993
  127OSM    C5F13605   3.220   6.050   7.034  0.5014  0.1493 -0.4790
  127OSM    H5F13606   3.185   5.948   7.061 -1.1677  1.3206  2.1589
  127OSM    H5G13607   3.133   6.118   7.036 -0.0968 -0.6185  0.8895
  127OSM    C6F13608   3.319   6.092   7.147  0.1384  0.5949  1.0291
  127OSM    H6F13609   3.360   6.193   7.126 -0.5816  0.5981 -0.4771
  127OSM    H6G13610   3.401   6.019   7.137  0.3557  0.6811  2.1037
  127OSM    C7F13611   3.264   6.079   7.283 -0.1444 -0.5740 -0.0163
  127OSM    H7F13612   3.226   5.977   7.302  1.4660 -1.0238  0.9681
  127OSM    H7G13613   3.175   6.145   7.294  0.6745  0.4456  0.7320
  127OSM    C8F13614   3.367   6.108   7.390 -0.1081  0.0103  0.2513
  127OSM    H8F13615   3.405   6.211   7.371  0.8366  0.0095  1.8887
  127OSM    H8G13616   3.451   6.037   7.375  0.5077  0.9315 -0.7820
  127OSM    C9F13617   3.299   6.102   7.525 -0.1722  0.5119 -0.0825
  127OSM    H9F13618   3.211   6.036   7.530 -1.7943  2.6152  0.3312
  127OSM   C10F13619   3.346   6.155   7.639 -0.6421 -0.5452 -0.2081
  127OSM   H10F13620   3.278   6.162   7.725  1.3212  0.0636  1.3834
  127OSM   C11F13621   3.469   6.235   7.659 -0.7219  0.0605  0.3681
  127OSM   H11F13622   3.523   6.246   7.563 -0.8396  1.0816  0.4043
  127OSM   H11G13623   3.547   6.185   7.721  0.8204  0.6060 -1.0544
  127OSM   C12F13624   3.453   6.364   7.740 -0.2094 -0.4105 -0.5571
  127OSM   H12F13625   3.398   6.346   7.835  0.0738  0.7776 -0.1481
  127OSM   H12G13626   3.387   6.439   7.690  1.8862  0.7769 -1.6544
  127OSM   C13F13627   3.590   6.421   7.767  0.0918 -0.7092 -0.2870
  127OSM   H13F13628   3.650   6.343   7.819  0.9191  0.6854  0.9249
  127OSM   H13G13629   3.580   6.501   7.843  1.7147 -0.0364 -0.7370
  127OSM   C14F13630   3.652   6.479   7.631  1.0729 -0.4644 -0.6194
  127OSM   H14F13631   3.595   6.570   7.605  0.2729 -0.9753 -0.6990
  127OSM   H14G13632   3.637   6.406   7.548  0.8047  2.5698 -3.4285
  127OSM   C15F13633   3.803   6.506   7.643  0.5006  0.2963  0.1871
  127OSM   H15F13634   3.863   6.431   7.699 -0.2192  0.8139  1.7014
  127OSM   H15G13635   3.806   6.589   7.716 -2.6305 -0.8433  1.8084
  127OSM   C16F13636   3.880   6.545   7.512  0.0087  0.1972  1.1466
  127OSM   H16F13637   3.982   6.537   7.555  0.5579 -1.5594 -0.3874
  127OSM   H16G13638   3.849   6.649   7.486 -0.5217 -0.0634  0.7157
  127OSM   C17F13639   3.877   6.432   7.406 -0.0458 -0.7629  0.0968
  127OSM   H17F13640   3.773   6.412   7.372  0.5174  0.7034 -2.8496
  127OSM   H17G13641   3.915   6.340   7.456  0.7120  0.3632  1.6799
  127OSM   C18F13642   3.951   6.458   7.276  0.7435 -0.2425 -0.2380
  127OSM   H18F13643   4.059   6.474   7.291  0.4581  0.2688  1.4938
  127OSM   H18G13644   3.908   6.553   7.237 -0.4256 -0.3214  0.7804
  127OSM   H18H13645   3.934   6.383   7.196  0.8621  1.1306 -1.5734
  128OSM      N13646   1.844   0.833   5.781  0.1983  0.1197  0.4740
  128OSM    C1513647   1.960   0.781   5.853  0.0863 -0.3566  0.2085
  128OSM   H15A13648   2.043   0.849   5.859 -1.0260  0.9795  1.3460
  128OSM   H15B13649   1.993   0.696   5.795  0.8391  0.1997 -0.1909
  128OSM   H15C13650   1.945   0.754   5.957  2.0651  0.6188  0.7899
  128OSM    C1413651   1.879   0.867   5.637 -0.2942  0.5896 -0.8835
  128OSM   H14A13652   1.787   0.900   5.592 -0.7568 -1.3418 -1.4261
  128OSM   H14B13653   1.898   0.773   5.587  0.7244  0.0845  0.3695
  128OSM   H14C13654   1.967   0.929   5.622  0.3532 -0.7036 -2.9124
  128OSM    C1313655   1.736   0.732   5.775  0.2803 -0.7382 -0.1985
  128OSM   H13A13656   1.710   0.705   5.876  0.9221 -2.5157 -0.4735
  128OSM   H13B13657   1.774   0.640   5.734 -2.3932 -1.3631 -1.4987
  128OSM   H13C13658   1.649   0.767   5.721 -0.3275 -0.0642  1.1659
  128OSM    C1213659   1.795   0.965   5.847  0.2934  0.2523 -0.7382
  128OSM   H12A13660   1.710   0.993   5.786  0.4871 -0.4158 -1.3209
  128OSM   H12B13661   1.862   1.050   5.841  0.0673  0.6597  1.4949
  128OSM    C1113662   1.740   0.974   5.996  0.0446  0.0987  0.2625
  128OSM   H11A13663   1.646   0.915   5.988  0.2572 -0.1727 -0.3103
  128OSM   H11B13664   1.709   1.078   6.020  0.6004  0.2783  0.1962
  128OSM      P13665   1.961   1.003   6.126 -0.7109  0.0110 -0.0082
  128OSM    O1313666   2.045   0.921   6.215 -0.0582 -0.7229  0.4161
  128OSM    O1413667   2.032   1.059   6.011  0.9337 -0.5499  0.2683
  128OSM    O1113668   1.917   1.122   6.215  0.2283 -0.2454  0.2977
  128OSM    O1213669   1.832   0.923   6.093  0.2413 -0.1121 -0.1775
  128OSM    C1S13670   1.816   1.092   6.315  0.2113 -0.8495  0.4324
  128OSM    H1S13671   1.835   0.991   6.357  2.4444 -0.5661  0.2365
  128OSM    H1T13672   1.713   1.096   6.274 -0.4982 -1.0958  2.1168
  128OSM     NF13673   1.722   1.140   6.530 -0.5870 -0.2596 -0.1946
  128OSM    HNF13674   1.631   1.173   6.507 -0.7967  0.0188  0.9596
  128OSM    C2S13675   1.824   1.189   6.433 -0.0178 -0.2985  1.1067
  128OSM    H2S13676   1.928   1.180   6.473  0.0188  0.6179  1.2405
  128OSM    C3S13677   1.803   1.338   6.390  0.0856  0.0648 -0.5169
  128OSM    H3S13678   1.697   1.334   6.357 -0.2098 -1.9917  0.5033
  128OSM     O313679   1.898   1.379   6.292  0.3459  0.1232 -0.3629
  128OSM    HO313680   1.954   1.301   6.290  1.9654  1.1386  1.2539
  128OSM    C4S13681   1.798   1.429   6.510 -0.1453  0.4090 -0.0747
  128OSM    H4S13682   1.696   1.463   6.533 -0.6316 -0.3263 -1.0911
  128OSM    C5S13683   1.900   1.471   6.584  0.8117 -0.0562  0.1928
  128OSM    H5S13684   1.997   1.430   6.553 -0.5068 -3.1046 -0.2738
  128OSM    C6S13685   1.904   1.568   6.701  0.4121  0.3537 -0.0081
  128OSM    H6S13686   1.906   1.670   6.657 -3.5811  0.4857 -0.2202
  128OSM    H6T13687   1.989   1.549   6.770 -0.9455  1.8174  2.1685
  128OSM    C7S13688   1.773   1.569   6.787 -0.4534  0.1483 -0.6287
  128OSM    H7S13689   1.767   1.467   6.831 -0.2591  0.3339 -0.1750
  128OSM    H7T13690   1.673   1.580   6.738 -1.9056 -2.4423  1.5017
  128OSM    C8S13691   1.775   1.663   6.909  0.3730 -1.2268 -0.0192
  128OSM    H8S13692   1.810   1.760   6.869 -2.5013 -0.6173 -1.3089
  128OSM    H8T13693   1.843   1.627   6.989  1.4876  0.8527  0.0324
  128OSM    C9S13694   1.635   1.689   6.971  0.1414 -0.3723 -0.0105
  128OSM    H9S13695   1.607   1.587   7.003  2.8388 -0.1715  3.6237
  128OSM    H9T13696   1.572   1.733   6.890  1.6880  1.5911 -0.2269
  128OSM   C10S13697   1.653   1.777   7.097  0.3642 -0.1520 -0.1710
  128OSM   H10S13698   1.713   1.870   7.085  1.7392 -1.0577 -0.4624
  128OSM   H10T13699   1.719   1.720   7.166 -0.2321 -1.4877 -0.6717
  128OSM   C11S13700   1.529   1.797   7.175  0.1975 -0.5497 -0.7321
  128OSM   H11S13701   1.485   1.699   7.205  0.4104 -0.3608  0.2250
  128OSM   H11T13702   1.447   1.842   7.115  0.0523 -0.0413 -0.1630
  128OSM   C12S13703   1.545   1.878   7.303  0.0963 -0.2676 -0.1448
  128OSM   H12S13704   1.565   1.983   7.272 -0.5390 -0.3653 -0.9433
  128OSM   H12T13705   1.637   1.844   7.354  0.9314  1.3662 -0.4794
  128OSM   C13S13706   1.418   1.873   7.391 -0.0253 -0.1126  0.2338
  128OSM   H13S13707   1.378   1.771   7.410  0.3113 -0.3655 -0.3706
  128OSM   H13T13708   1.340   1.911   7.323 -0.9837 -0.0681  1.3371
  128OSM   C14S13709   1.417   1.970   7.511  0.0539  0.4277  0.1363
  128OSM   H14S13710   1.471   2.061   7.477  2.0436 -0.2135  1.3992
  128OSM   H14T13711   1.496   1.927   7.577  0.2369 -0.2861 -0.5319
  128OSM   C15S13712   1.273   1.983   7.563 -0.7906 -0.1826  0.0702
  128OSM   H15S13713   1.220   1.886   7.578 -0.4991 -0.2170  0.9322
  128OSM   H15T13714   1.215   2.035   7.484 -0.4335 -1.0182 -0.7555
  128OSM   C16S13715   1.270   2.068   7.696  0.4765  0.2722  0.1027
  128OSM   H16S13716   1.176   2.127   7.691  0.0620 -0.2488  1.3791
  128OSM   H16T13717   1.357   2.127   7.733 -0.5000  0.6247  1.9314
  128OSM   C17S13718   1.253   1.968   7.815  0.1297 -0.4995 -0.0380
  128OSM   H17S13719   1.346   1.913   7.839  2.0575  2.2907 -0.5809
  128OSM   H17T13720   1.184   1.887   7.784  1.0089 -1.6938  1.0173
  128OSM   C18S13721   1.173   2.045   7.925 -0.3441 -0.7499  0.1394
  128OSM   H18S13722   1.087   2.102   7.883  0.7457  0.5061 -0.4632
  128OSM   H18T13723   1.237   2.123   7.971  2.3588 -2.2506 -0.8445
  128OSM   H18U13724   1.142   1.986   8.014  0.4199 -0.7099  0.4434
  128OSM    C1F13725   1.749   1.042   6.613  0.4426 -0.0954 -0.5253
  128OSM     OF13726   1.864   1.015   6.639 -0.4180 -0.2358 -0.1495
  128OSM    C2F13727   1.635   0.970   6.655  0.7729  0.1459  0.1290
  128OSM    H2F13728   1.601   0.904   6.571 -0.5821  1.0337 -0.0597
  128OSM    H2G13729   1.552   1.043   6.666 -0.3035 -0.6607 -1.9164
  128OSM    C3F13730   1.658   0.875   6.775  0.0986 -0.3549 -0.8288
  128OSM    H3F13731   1.710   0.944   6.845 -1.3326  1.6277 -1.6065
  128OSM    H3G13732   1.728   0.792   6.753  0.1627 -0.2963 -0.8479
  128OSM    C4F13733   1.531   0.814   6.840 -0.4889  0.0027 -0.2341
  128OSM    H4F13734   1.486   0.737   6.774  1.2441 -1.8965  0.6698
  128OSM    H4G13735   1.463   0.902   6.842 -1.6596 -0.8850  0.0502
  128OSM    C5F13736   1.542   0.763   6.979 -0.3652 -0.4029 -0.8064
  128OSM    H5F13737   1.623   0.688   6.989 -0.2879 -0.4545 -1.7927
  128OSM    H5G13738   1.449   0.704   6.996  0.3385 -1.1375  0.7890
  128OSM    C6F13739   1.546   0.864   7.090  0.3521  1.0750 -0.1268
  128OSM    H6F13740   1.469   0.944   7.081  0.3762  1.3153  1.4186
  128OSM    H6G13741   1.645   0.916   7.088  1.5468 -1.1235 -0.5374
  128OSM    C7F13742   1.533   0.791   7.230  0.1860  0.3501 -0.1549
  128OSM    H7F13743   1.617   0.720   7.216 -0.5455 -0.3995 -0.8284
  128OSM    H7G13744   1.438   0.736   7.242  0.6468 -0.2994  0.5754
  128OSM    C8F13745   1.550   0.891   7.342  0.3474  0.3150 -0.4568
  128OSM    H8F13746   1.484   0.980   7.325 -2.0861 -1.2280  0.3584
  128OSM    H8G13747   1.653   0.926   7.321  0.7949 -1.0494 -0.6200
  128OSM    C9F13748   1.516   0.822   7.473 -0.1583  0.1212  0.4881
  128OSM    H9F13749   1.537   0.714   7.476  0.9970  0.2181 -1.8453
  128OSM   C10F13750   1.460   0.882   7.578  0.0291  0.1650  0.9910
  128OSM   H10F13751   1.418   0.819   7.657 -2.6221  1.5823  0.8285
  128OSM   C11F13752   1.417   1.020   7.580  0.0628 -0.1728  0.5298
  128OSM   H11F13753   1.319   1.044   7.533  0.6635  1.7651  0.1817
  128OSM   H11G13754   1.500   1.081   7.539 -0.1123 -2.4307 -3.7030
  128OSM   C12F13755   1.414   1.073   7.725 -0.2878 -0.5608 -0.0690
  128OSM   H12F13756   1.329   1.052   7.793 -0.0906 -1.0981  0.0125
  128OSM   H12G13757   1.388   1.181   7.712  0.5949 -0.4587 -1.2133
  128OSM   C13F13758   1.548   1.063   7.806  0.3999  0.0848  0.2810
  128OSM   H13F13759   1.625   1.114   7.745 -0.9607  3.6817  1.3386
  128OSM   H13G13760   1.579   0.956   7.801 -0.5732 -0.3025  1.7254
  128OSM   C14F13761   1.549   1.134   7.946  0.6003  0.3571  0.0256
  128OSM   H14F13762   1.459   1.089   7.994  0.4919  1.1958  0.6399
  128OSM   H14G13763   1.541   1.245   7.945  2.8456  0.5809 -1.9891
  128OSM   C15F13764   1.666   1.103   8.042 -0.8547  0.7224  0.0879
  128OSM   H15F13765   1.755   1.126   7.980 -0.6832  2.2140  0.8481
  128OSM   H15G13766   1.666   0.994   8.060 -0.2622  0.7509  0.2685
  128OSM   C16F13767   1.664   1.176   8.171  0.6909  0.7951  0.5427
  128OSM   H16F13768   1.742   1.125   8.233  0.2702 -0.4224  0.0970
  128OSM   H16G13769   1.567   1.152   8.220  0.2566  0.0208 -0.6597
  128OSM   C17F13770   1.689   1.326   8.162  0.2276  0.2644  0.5906
  128OSM   H17F13771   1.605   1.375   8.110  2.1563  1.7109 -1.3324
  128OSM   H17G13772   1.787   1.346   8.113 -0.2343 -0.7233 -0.8100
  128OSM   C18F13773   1.691   1.385   8.308 -0.7321 -0.3824  0.1943
  128OSM   H18F13774   1.604   1.339   8.359 -2.4548 -0.0175 -2.2243
  128OSM   H18G13775   1.669   1.493   8.299 -1.1567 -0.6039 -2.2584
  128OSM   H18H13776   1.784   1.356   8.363 -1.7410  0.6951  2.5777
  129OSM      N13777   0.880   4.207   5.978  0.4792  0.1056 -0.1027
  129OSM    C1513778   0.893   4.335   5.912  0.4279 -0.0697 -0.1318
  129OSM   H15A13779   0.813   4.353   5.841  1.4794 -3.2222 -2.3378
  129OSM   H15B13780   0.987   4.337   5.858 -0.6171  2.0049 -2.0482
  129OSM   H15C13781   0.886   4.418   5.981 -0.9165 -1.3166  1.2989
  129OSM    C1413782   0.762   4.205   6.065 -0.3982 -0.2629  0.0301
  129OSM   H14A13783   0.671   4.199   6.007  0.6661  1.3364 -1.9415
  129OSM   H14B13784   0.750   4.295   6.123  0.9716 -0.0739  0.0626
  129OSM   H14C13785   0.772   4.126   6.138  1.5163  1.8822  2.3034
  129OSM    C1313786   0.875   4.098   5.875 -0.7783  0.1428 -0.7099
  129OSM   H13A13787   0.780   4.100   5.826 -0.7226 -2.1325 -1.0264
  129OSM   H13B13788   0.887   4.001   5.922 -1.2182  1.6980  2.9298
  129OSM   H13C13789   0.949   4.116   5.798 -1.2556  2.1885 -0.7403
  129OSM    C1213790   1.009   4.187   6.057  0.2536  0.4127  0.2024
  129OSM   H12A13791   1.019   4.269   6.127  1.4536  1.9976 -1.7208
  129OSM   H12B13792   1.088   4.226   5.995 -1.6883  0.7547 -2.2305
  129OSM    C1113793   1.033   4.046   6.128  0.3949  0.7021 -0.0346
  129OSM   H11A13794   1.114   4.046   6.204 -1.0184 -0.1077  1.5295
  129OSM   H11B13795   1.058   3.978   6.043  0.2904  2.5587 -1.6393
  129OSM      P13796   0.860   3.853   6.169 -0.0110  0.0657  0.1006
  129OSM    O1313797   0.731   3.839   6.241  0.4834 -0.6487 -0.0945
  129OSM    O1413798   0.853   3.809   6.029  0.2363  0.3408  0.3901
  129OSM    O1113799   0.965   3.761   6.244 -0.6321 -0.5302 -0.3121
  129OSM    O1213800   0.913   4.001   6.193 -0.1329 -0.1903 -0.3191
  129OSM    C1S13801   1.013   3.772   6.380  0.8587 -0.0292 -0.2244
  129OSM    H1S13802   0.976   3.866   6.426  1.9784 -0.8877  2.6121
  129OSM    H1T13803   1.123   3.771   6.388  0.7911  2.0129  1.8723
  129OSM     NF13804   0.974   3.662   6.611 -0.0269  0.3295  0.7292
  129OSM    HNF13805   1.027   3.588   6.653 -1.4690 -0.1975  1.7249
  129OSM    C2S13806   0.948   3.656   6.465 -0.6442  0.2092  0.4148
  129OSM    H2S13807   0.838   3.671   6.456 -0.6910  1.3001  2.3171
  129OSM    C3S13808   0.982   3.518   6.411 -0.2884 -0.9071 -0.1195
  129OSM    H3S13809   1.089   3.496   6.431 -0.5058 -2.4020 -0.5132
  129OSM     O313810   0.971   3.504   6.271  0.3321  0.3863  0.5015
  129OSM    HO313811   0.988   3.592   6.238 -0.2839  0.1290 -0.5527
  129OSM    C4S13812   0.894   3.414   6.477  0.2014 -0.5950  0.2465
  129OSM    H4S13813   0.789   3.439   6.459  0.2602 -1.1491 -0.9679
  129OSM    C5S13814   0.931   3.308   6.552  0.0877  0.1299 -0.0246
  129OSM    H5S13815   1.037   3.293   6.575  0.7556  0.9835 -2.2854
  129OSM    C6S13816   0.825   3.223   6.627 -0.0880  0.1350  0.8467
  129OSM    H6S13817   0.875   3.155   6.700 -0.7619 -0.0990  1.0945
  129OSM    H6T13818   0.780   3.157   6.550  0.3883 -0.0922  0.7606
  129OSM    C7S13819   0.718   3.302   6.690  0.4692  0.0676  0.2110
  129OSM    H7S13820   0.648   3.230   6.737  0.5397  0.2316  0.5710
  129OSM    H7T13821   0.656   3.360   6.619  0.2608 -1.0051 -0.5093
  129OSM    C8S13822   0.761   3.394   6.804  0.0002  0.1595 -0.3240
  129OSM    H8S13823   0.669   3.442   6.844 -0.7195 -1.1925 -0.2814
  129OSM    H8T13824   0.833   3.474   6.778  1.3086 -0.0984  2.1292
  129OSM    C9S13825   0.824   3.307   6.918 -0.2924 -0.4324 -0.1522
  129OSM    H9S13826   0.921   3.268   6.882 -0.1733  1.7623 -2.4921
  129OSM    H9T13827   0.758   3.223   6.949  1.2462 -0.8018  2.4255
  129OSM   C10S13828   0.845   3.389   7.048  0.4006  0.1516 -0.1356
  129OSM   H10S13829   0.752   3.446   7.067  0.0117 -0.8061  0.9139
  129OSM   H10T13830   0.918   3.468   7.021 -0.3810  1.1610  0.6406
  129OSM   C11S13831   0.871   3.303   7.170 -0.7669 -0.3913 -0.5298
  129OSM   H11S13832   0.964   3.245   7.152  2.0120  2.8345  2.0475
  129OSM   H11T13833   0.782   3.238   7.185 -1.3870  0.5049 -0.2710
  129OSM   C12S13834   0.894   3.398   7.292 -0.0103  0.9535 -0.4365
  129OSM   H12S13835   0.817   3.478   7.297  0.9494  1.8502  0.6700
  129OSM   H12T13836   0.986   3.459   7.275  1.1383 -0.1832  1.3709
  129OSM   C13S13837   0.883   3.318   7.428 -0.1932  0.3155  0.1715
  129OSM   H13S13838   0.963   3.241   7.437 -0.4026 -0.1154 -1.3460
  129OSM   H13T13839   0.782   3.273   7.424  0.1245 -0.5623  1.1915
  129OSM   C14S13840   0.897   3.408   7.551 -0.1668 -0.2361  0.2705
  129OSM   H14S13841   0.819   3.487   7.540 -0.0606 -0.1939 -0.2298
  129OSM   H14T13842   0.994   3.461   7.549  0.1175 -0.7554 -0.0833
  129OSM   C15S13843   0.882   3.325   7.681  0.5778  0.5863 -0.2380
  129OSM   H15S13844   0.956   3.242   7.681  0.5052  0.5225 -0.3118
  129OSM   H15T13845   0.780   3.281   7.685  1.7331 -2.2157  1.2025
  129OSM   C16S13846   0.915   3.392   7.816  0.1305 -0.5308 -0.7606
  129OSM   H16S13847   0.834   3.466   7.833  1.2351  0.7474 -0.9150
  129OSM   H16T13848   0.997   3.466   7.805 -1.5020  1.6061  0.6959
  129OSM   C17S13849   0.933   3.288   7.929  0.4812 -0.1225 -0.2115
  129OSM   H17S13850   1.018   3.224   7.895  0.6087  0.2761 -0.6445
  129OSM   H17T13851   0.838   3.231   7.924 -0.6047  1.1925  3.0014
  129OSM   C18S13852   0.949   3.333   8.072 -0.0701 -0.7596 -0.1344
  129OSM   H18S13853   1.041   3.392   8.091 -1.0943  0.0539  2.8135
  129OSM   H18T13854   0.962   3.246   8.140  0.9659 -1.0640 -0.7011
  129OSM   H18U13855   0.864   3.399   8.097  0.5699 -0.4186  1.2551
  129OSM    C1F13856   0.928   3.761   6.690  0.7432 -0.1587 -0.0923
  129OSM     OF13857   0.862   3.854   6.637 -0.0791 -0.2132 -0.0408
  129OSM    C2F13858   0.963   3.758   6.834  0.0710 -0.4595  0.0224
  129OSM    H2F13859   1.039   3.836   6.853  0.3090 -0.7586  0.3279
  129OSM    H2G13860   1.004   3.656   6.850  0.9885  0.1278  1.7005
  129OSM    C3F13861   0.835   3.784   6.922 -0.2737 -0.3461 -0.8048
  129OSM    H3F13862   0.761   3.703   6.904  0.8087 -1.2316 -1.3775
  129OSM    H3G13863   0.786   3.880   6.894 -0.6123 -0.3479 -0.2450
  129OSM    C4F13864   0.872   3.790   7.070  1.1306  0.0011 -0.4573
  129OSM    H4F13865   0.914   3.892   7.082  1.6679  0.1215 -2.8188
  129OSM    H4G13866   0.942   3.711   7.102 -0.6447 -1.1929  0.6713
  129OSM    C5F13867   0.747   3.782   7.161  0.1073 -0.5274 -0.5444
  129OSM    H5F13868   0.732   3.672   7.162  2.2224 -0.8590 -1.2511
  129OSM    H5G13869   0.661   3.829   7.108  1.5577  6.0137  1.9305
  129OSM    C6F13870   0.768   3.843   7.295 -0.0492 -0.7385  0.4363
  129OSM    H6F13871   0.680   3.833   7.362  1.1374 -0.7387  2.0544
  129OSM    H6G13872   0.799   3.950   7.286  1.4934 -1.2023 -0.0363
  129OSM    C7F13873   0.878   3.769   7.366 -0.2216 -0.0993  0.3758
  129OSM    H7F13874   0.977   3.791   7.320  0.5450  0.1477  2.0298
  129OSM    H7G13875   0.863   3.660   7.353  2.0577 -0.4454  0.2667
  129OSM    C8F13876   0.882   3.797   7.517  0.0966 -0.5749 -0.2758
  129OSM    H8F13877   0.956   3.730   7.565 -0.5938 -0.6097  0.7531
  129OSM    H8G13878   0.781   3.787   7.562 -0.4114 -1.6199 -1.5860
  129OSM    C9F13879   0.906   3.938   7.551 -0.5437 -0.9842 -1.1943
  129OSM    H9F13880   0.881   4.006   7.468  1.3392 -0.5878 -1.4956
  129OSM   C10F13881   0.935   3.982   7.674  0.0020  0.0897  0.8267
  129OSM   H10F13882   0.955   4.087   7.698  0.1221 -0.0962  1.5613
  129OSM   C11F13883   0.963   3.891   7.791 -0.0343  0.0294 -0.2768
  129OSM   H11F13884   1.028   3.939   7.867  1.5994 -2.5502  0.0645
  129OSM   H11G13885   1.026   3.808   7.754  0.0437  0.4322 -1.0739
  129OSM   C12F13886   0.843   3.830   7.865  0.7738  0.7134 -0.2873
  129OSM   H12F13887   0.881   3.791   7.962 -0.1362 -1.9109 -0.9217
  129OSM   H12G13888   0.800   3.746   7.807 -1.6375  1.1170  0.8111
  129OSM   C13F13889   0.735   3.936   7.895 -0.4679 -0.1788  0.5830
  129OSM   H13F13890   0.708   3.987   7.800 -0.3007 -1.0789  0.0461
  129OSM   H13G13891   0.771   4.018   7.961 -0.4646  0.1312  0.2026
  129OSM   C14F13892   0.610   3.865   7.946  1.0209 -0.6226 -0.7143
  129OSM   H14F13893   0.557   3.818   7.861 -0.8167 -1.0373  0.6062
  129OSM   H14G13894   0.547   3.935   8.005  0.0508 -0.7307 -1.5918
  129OSM   C15F13895   0.628   3.754   8.045 -0.0895  0.6457  0.8573
  129OSM   H15F13896   0.674   3.802   8.134 -0.9580 -0.2097  1.7932
  129OSM   H15G13897   0.696   3.678   8.001  0.5012  1.2033  0.7773
  129OSM   C16F13898   0.498   3.684   8.082 -0.2121  0.2238 -0.0234
  129OSM   H16F13899   0.517   3.582   8.123  0.3218  0.2436 -0.2063
  129OSM   H16G13900   0.432   3.664   7.995  0.5089  2.7053 -1.2357
  129OSM   C17F13901   0.418   3.757   8.181  0.0786 -0.0452 -0.0067
  129OSM   H17F13902   0.403   3.859   8.141 -0.7281 -0.7203 -1.5109
  129OSM   H17G13903   0.478   3.765   8.274  1.3248 -2.5088 -0.5262
  129OSM   C18F13904   0.278   3.706   8.219  0.3726 -0.2869  0.9739
  129OSM   H18F13905   0.199   3.731   8.145  0.8906  0.0611  0.5338
  129OSM   H18G13906   0.248   3.745   8.319 -3.6473 -2.7011  0.9318
  129OSM   H18H13907   0.280   3.597   8.239  0.1416 -0.5238 -0.2283
  130OSM      N13908   2.225   6.106   6.378 -0.3052 -0.4160  0.0245
  130OSM    C1513909   2.342   6.040   6.316  0.1543 -0.2274  0.6351
  130OSM   H15A13910   2.383   6.110   6.244 -2.4658  1.0454  0.2458
  130OSM   H15B13911   2.307   5.954   6.263  1.3369 -1.6868  2.1151
  130OSM   H15C13912   2.428   6.024   6.380  1.6975  1.6215 -0.8238
  130OSM    C1413913   2.171   6.013   6.489  0.3109  0.0158  0.6472
  130OSM   H14A13914   2.252   6.007   6.560  0.1862  1.3747  0.9315
  130OSM   H14B13915   2.154   5.914   6.448 -0.2269  0.0819  0.7020
  130OSM   H14C13916   2.080   6.045   6.539  0.4303  0.9214  0.2963
  130OSM    C1313917   2.272   6.239   6.436  0.4766  0.3035 -0.1233
  130OSM   H13A13918   2.353   6.222   6.506 -3.0340 -2.3182  3.7624
  130OSM   H13B13919   2.192   6.289   6.488 -0.2876 -0.0517 -0.9342
  130OSM   H13C13920   2.319   6.300   6.360 -0.8396  0.8113 -0.5535
  130OSM    C1213921   2.112   6.122   6.278  0.2675 -0.1808  0.1944
  130OSM   H12A13922   2.026   6.129   6.342  0.3331  0.8105  0.1826
  130OSM   H12B13923   2.085   6.032   6.225  2.0328 -0.4718 -0.2772
  130OSM    C1113924   2.126   6.233   6.177 -0.2733 -0.1367 -0.1874
  130OSM   H11A13925   2.202   6.216   6.097 -0.4441  1.0021 -0.6058
  130OSM   H11B13926   2.148   6.333   6.220 -0.7169  0.5366 -1.4594
  130OSM      P13927   1.878   6.288   6.152 -0.2214 -0.1133 -0.0836
  130OSM    O1313928   1.817   6.380   6.059  0.0499 -0.0226  0.2990
  130OSM    O1413929   1.793   6.172   6.186 -0.1291 -0.1632  0.3793
  130OSM    O1113930   1.919   6.360   6.281 -0.1784 -0.3960 -0.5044
  130OSM    O1213931   2.012   6.236   6.089  0.0130  0.1158  0.6218
  130OSM    C1S13932   1.812   6.431   6.340  0.3460  0.1195 -0.6408
  130OSM    H1S13933   1.734   6.371   6.390  0.6699  0.7140  0.6155
  130OSM    H1T13934   1.773   6.513   6.276  1.6382  1.1968 -0.0931
  130OSM     NF13935   1.772   6.547   6.554 -0.8247 -0.2474 -1.0618
  130OSM    HNF13936   1.728   6.633   6.530 -0.3960  0.2905  0.0509
  130OSM    C2S13937   1.880   6.505   6.464  0.6702  0.2193  0.1603
  130OSM    H2S13938   1.958   6.443   6.512  3.1020  2.0943 -1.1138
  130OSM    C3S13939   1.966   6.621   6.417 -0.2613 -0.4195  0.5124
  130OSM    H3S13940   1.912   6.698   6.357 -0.8406 -0.2859  1.2008
  130OSM     O313941   2.068   6.580   6.325 -0.1681 -0.0741  0.3089
  130OSM    HO313942   2.033   6.493   6.305  1.1358 -1.3806  3.1833
  130OSM    C4S13943   2.013   6.688   6.546 -0.5354 -0.5978 -0.7132
  130OSM    H4S13944   1.942   6.766   6.577  0.4150  0.5314 -1.3015
  130OSM    C5S13945   2.119   6.667   6.628 -0.2426  0.1789  0.6832
  130OSM    H5S13946   2.196   6.589   6.611  1.1648  1.5768  0.4425
  130OSM    C6S13947   2.143   6.740   6.755 -0.0419 -0.0862 -0.5227
  130OSM    H6S13948   2.142   6.850   6.739  0.7899  0.1588  1.0100
  130OSM    H6T13949   2.242   6.712   6.795 -1.0466 -3.3913 -0.0309
  130OSM    C7S13950   2.040   6.696   6.861 -0.5729  0.7842  0.1455
  130OSM    H7S13951   2.034   6.586   6.869  0.0040  0.6811 -0.6733
  130OSM    H7T13952   1.938   6.725   6.828 -0.5968  2.3266  1.4151
  130OSM    C8S13953   2.065   6.760   6.999  0.9766 -0.3662  0.5623
  130OSM    H8S13954   2.032   6.866   6.994 -0.9488 -1.0029 -2.1662
  130OSM    H8T13955   2.173   6.758   7.028  1.1873 -0.7503 -0.2267
  130OSM    C9S13956   1.970   6.689   7.105 -0.6189  0.2608 -0.3380
  130OSM    H9S13957   2.010   6.586   7.102 -1.2377  0.0255 -0.6575
  130OSM    H9T13958   1.864   6.685   7.071  0.0540  0.8030 -2.7077
  130OSM   C10S13959   1.972   6.760   7.240  0.2952  0.3996  0.4779
  130OSM   H10S13960   1.916   6.855   7.223  1.0051  0.8958  0.8734
  130OSM   H10T13961   2.077   6.787   7.264  0.2037  1.8068 -0.6383
  130OSM   C11S13962   1.918   6.664   7.350  0.4805  0.1583 -0.0863
  130OSM   H11S13963   1.826   6.611   7.315  0.6910 -1.1460  1.2432
  130OSM   H11T13964   1.891   6.730   7.436  0.9749  0.4850 -0.1790
  130OSM   C12S13965   2.020   6.558   7.407  0.1200 -0.5666  0.1588
  130OSM   H12S13966   2.114   6.602   7.447  0.2530 -0.4871 -0.2361
  130OSM   H12T13967   2.046   6.483   7.330 -0.6432 -1.6978  0.9690
  130OSM   C13S13968   1.956   6.487   7.523  0.5387 -0.2829  0.2230
  130OSM   H13S13969   1.983   6.380   7.508  1.1451 -0.5674  2.8507
  130OSM   H13T13970   1.845   6.493   7.522  0.5013 -0.3116 -2.2808
  130OSM   C14S13971   2.014   6.538   7.655  0.3359  0.1069 -0.2429
  130OSM   H14S13972   2.125   6.526   7.658  0.3298  0.1861  1.9086
  130OSM   H14T13973   1.964   6.484   7.738  3.4019 -0.7959  1.1973
  130OSM   C15S13974   1.991   6.686   7.689  0.5768  0.2995 -0.3115
  130OSM   H15S13975   1.889   6.711   7.652 -0.5430 -2.5008  0.6172
  130OSM   H15T13976   2.067   6.746   7.634 -1.4467  0.5486 -3.0581
  130OSM   C16S13977   1.997   6.716   7.842 -0.3778  0.2428 -0.0497
  130OSM   H16S13978   1.917   6.664   7.899  0.1835  2.9820  3.5989
  130OSM   H16T13979   1.976   6.824   7.860  0.3063  0.4888 -0.6732
  130OSM   C17S13980   2.136   6.680   7.896  0.3333  0.4756  0.0425
  130OSM   H17S13981   2.211   6.732   7.833 -0.1727 -2.0637 -2.8719
  130OSM   H17T13982   2.150   6.570   7.889  0.4640  0.4807  0.2003
  130OSM   C18S13983   2.158   6.728   8.038 -0.2188  0.0736 -0.2195
  130OSM   H18S13984   2.260   6.713   8.080 -0.9888 -0.3028  1.6240
  130OSM   H18T13985   2.089   6.672   8.104 -0.3514  2.2826  1.6368
  130OSM   H18U13986   2.136   6.836   8.051 -0.2590  0.1118 -0.5840
  130OSM    C1F13987   1.717   6.466   6.636  0.8565  0.1752 -0.0036
  130OSM     OF13988   1.745   6.346   6.636  0.7522 -0.3593  0.1282
  130OSM    C2F13989   1.608   6.518   6.726 -0.0852  0.0571 -0.6334
  130OSM    H2F13990   1.527   6.529   6.652  0.7932 -2.1836 -2.0372
  130OSM    H2G13991   1.651   6.610   6.771  0.3897 -0.7661  0.6586
  130OSM    C3F13992   1.560   6.416   6.840  0.5731 -0.9595 -0.1766
  130OSM    H3F13993   1.528   6.325   6.785 -2.0163  0.5009 -1.2517
  130OSM    H3G13994   1.467   6.466   6.873  0.8770  0.8634 -1.8501
  130OSM    C4F13995   1.653   6.389   6.963  0.5768 -0.1848 -0.5371
  130OSM    H4F13996   1.651   6.488   7.013 -0.1222 -0.5166  0.1234
  130OSM    H4G13997   1.759   6.382   6.933  0.9306 -1.5701  0.8910
  130OSM    C5F13998   1.595   6.307   7.076 -0.4330 -0.2309 -0.0014
  130OSM    H5F13999   1.605   6.198   7.055 -0.4687 -0.2000 -0.1809
  130OSM    H5G14000   1.489   6.338   7.084 -0.1555  1.6648 -2.3369
  130OSM    C6F14001   1.659   6.343   7.214 -0.3866  0.3683  0.1442
  130OSM    H6F14002   1.633   6.447   7.244 -0.3451 -0.0255  1.6080
  130OSM    H6G14003   1.769   6.344   7.198 -0.6266  0.4046 -1.8637
  130OSM    C7F14004   1.606   6.261   7.327 -0.8327  1.4093 -0.2744
  130OSM    H7F14005   1.612   6.155   7.293 -1.9096  1.3849 -0.4297
  130OSM    H7G14006   1.499   6.281   7.350 -0.9335 -0.1280  0.7037
  130OSM    C8F14007   1.684   6.281   7.459 -0.2635 -0.0709 -0.0963
  130OSM    H8F14008   1.644   6.373   7.507 -1.2825 -0.3818 -0.3232
  130OSM    H8G14009   1.792   6.296   7.437 -0.1657  1.3129  1.1536
  130OSM    C9F14010   1.658   6.168   7.554 -0.5274  0.9296 -0.4670
  130OSM    H9F14011   1.609   6.082   7.508 -0.3560  0.7552 -0.3251
  130OSM   C10F14012   1.693   6.163   7.683  0.1952  0.4670  0.3346
  130OSM   H10F14013   1.673   6.071   7.740  0.8789  1.2463  1.8695
  130OSM   C11F14014   1.768   6.269   7.753  0.8018 -0.2756 -0.3862
  130OSM   H11F14015   1.718   6.366   7.736  0.2999 -0.6984 -1.4149
  130OSM   H11G14016   1.868   6.277   7.705  0.4292 -1.0614 -1.3249
  130OSM   C12F14017   1.802   6.231   7.896  0.0233  0.0431  0.3498
  130OSM   H12F14018   1.843   6.128   7.898  0.7207  0.3285  2.1978
  130OSM   H12G14019   1.706   6.227   7.952 -0.0866  1.1873  0.2663
  130OSM   C13F14020   1.903   6.321   7.958  0.1197 -0.0705 -0.2547
  130OSM   H13F14021   1.872   6.428   7.957  3.0790  0.9274  1.8601
  130OSM   H13G14022   1.999   6.327   7.902  1.0357 -0.4936  1.2290
  130OSM   C14F14023   1.937   6.285   8.103 -0.4580 -0.1719 -0.2696
  130OSM   H14F14024   2.008   6.199   8.100  0.4967  0.6068 -0.5202
  130OSM   H14G14025   1.857   6.262   8.176 -0.4775 -0.1887 -0.2959
  130OSM   C15F14026   2.013   6.410   8.165  0.3005 -0.4806 -0.4093
  130OSM   H15F14027   1.947   6.495   8.139  2.3434  1.2416 -0.1989
  130OSM   H15G14028   2.110   6.421   8.112  0.6707  0.4336  0.4423
  130OSM   C16F14029   2.032   6.398   8.318  0.7548 -0.6031 -0.4541
  130OSM   H16F14030   1.942   6.373   8.377  1.3758 -0.7641  0.4452
  130OSM   H16G14031   2.066   6.497   8.353 -0.0339 -0.2138 -0.7615
  130OSM   C17F14032   2.148   6.305   8.352  0.3037  0.0185  0.3669
  130OSM   H17F14033   2.240   6.339   8.299 -0.9454  2.0357 -0.6296
  130OSM   H17G14034   2.129   6.201   8.316  0.5959  0.6523 -1.7809
  130OSM   C18F14035   2.193   6.295   8.495 -0.2954 -0.5698 -0.0746
  130OSM   H18F14036   2.236   6.388   8.539 -2.0430  0.2565 -0.0621
  130OSM   H18G14037   2.272   6.217   8.503  0.0149 -0.4003 -1.2002
  130OSM   H18H14038   2.104   6.274   8.557 -0.6222  0.6559 -0.1184
  131OSM      N14039   3.244   0.191   6.281 -0.5305 -0.6483  0.2687
  131OSM    C1514040   3.118   0.143   6.351 -0.2032 -0.7482 -0.3763
  131OSM   H15A14041   3.077   0.209   6.426  0.7595  1.8685 -2.0108
  131OSM   H15B14042   3.139   0.047   6.395 -0.1810 -0.2582  0.6912
  131OSM   H15C14043   3.039   0.149   6.276  0.7812  1.0469 -1.3464
  131OSM    C1414044   3.222   0.334   6.233 -0.3006  0.5277  0.2261
  131OSM   H14A14045   3.179   0.398   6.308 -1.1668  0.5932 -0.3119
  131OSM   H14B14046   3.152   0.341   6.151  1.6081  0.8853 -1.4620
  131OSM   H14C14047   3.313   0.378   6.196  0.4810 -0.5643  0.7803
  131OSM    C1314048   3.362   0.181   6.372 -0.4959  0.0490 -0.2709
  131OSM   H13A14049   3.442   0.244   6.337 -0.7825  0.1708 -0.7315
  131OSM   H13B14050   3.399   0.081   6.387 -0.3194  0.0796 -0.4940
  131OSM   H13C14051   3.324   0.221   6.465 -0.2447 -0.5779  0.1025
  131OSM    C1214052   3.278   0.107   6.155 -0.3159  0.4155  0.6785
  131OSM   H12A14053   3.372   0.143   6.117 -0.3762  0.0335  0.1576
  131OSM   H12B14054   3.197   0.115   6.083 -0.0811  2.7480  0.6256
  131OSM    C1114055   3.295  -0.043   6.180  0.1081  0.1911 -0.0135
  131OSM   H11A14056   3.365  -0.055   6.266  0.6223  5.5183  0.6490
  131OSM   H11B14057   3.346  -0.077   6.087  0.8776  0.8456  0.1527
  131OSM      P14058   3.178  -0.265   6.206  0.2699  0.0880 -0.1623
  131OSM    O1314059   3.061  -0.322   6.137 -0.1522 -0.3613  0.1765
  131OSM    O1414060   3.312  -0.315   6.161  0.0733 -0.1394  0.1522
  131OSM    O1114061   3.156  -0.296   6.358 -0.1110 -0.0543  0.1701
  131OSM    O1214062   3.169  -0.107   6.197  0.0414 -0.6730 -0.3285
  131OSM    C1S14063   3.219  -0.236   6.472 -0.0057  0.4935  0.2274
  131OSM    H1S14064   3.229  -0.127   6.453  0.1330  0.1876 -1.5718
  131OSM    H1T14065   3.319  -0.282   6.490 -1.3094 -2.4898  0.3983
  131OSM     NF14066   3.197  -0.178   6.714  0.1822 -0.1428 -0.0897
  131OSM    HNF14067   3.244  -0.244   6.773 -0.3225 -0.5388 -0.1203
  131OSM    C2S14068   3.135  -0.242   6.604 -0.1342  0.0050  0.4927
  131OSM    H2S14069   3.042  -0.184   6.587  0.4930  0.2888 -2.4668
  131OSM    C3S14070   3.094  -0.390   6.633  0.5649 -0.6363  0.0627
  131OSM    H3S14071   3.186  -0.452   6.626  1.1370 -0.1535  2.4422
  131OSM     O314072   3.002  -0.442   6.539 -0.0707  0.9754  0.2598
  131OSM    HO314073   3.017  -0.392   6.458  0.2304  3.7232  1.8677
  131OSM    C4S14074   3.031  -0.412   6.768  0.0749 -0.7154  0.6059
  131OSM    H4S14075   2.941  -0.351   6.783 -0.6366 -1.5492 -0.2316
  131OSM    C5S14076   3.066  -0.493   6.866 -0.2205 -0.4795  0.0627
  131OSM    H5S14077   3.161  -0.549   6.869 -0.0511 -0.1965  0.0418
  131OSM    C6S14078   2.990  -0.505   6.998 -0.5007 -0.0578 -0.0043
  131OSM    H6S14079   2.948  -0.607   7.006 -1.1283  0.2370  0.5078
  131OSM    H6T14080   2.909  -0.429   6.996  0.0564  0.6299 -3.0156
  131OSM    C7S14081   3.088  -0.473   7.113 -0.1595  0.1132 -0.0462
  131OSM    H7S14082   3.134  -0.373   7.098  1.8494 -0.4849  1.6162
  131OSM    H7T14083   3.183  -0.529   7.126 -0.7415 -0.8780  0.0025
  131OSM    C8S14084   3.020  -0.485   7.251 -0.3558  0.2380 -0.4415
  131OSM    H8S14085   2.996  -0.591   7.274 -0.5760  0.5162  0.7200
  131OSM    H8T14086   2.915  -0.448   7.244 -0.0261  1.1888 -0.5382
  131OSM    C9S14087   3.090  -0.414   7.372  0.2129 -0.7045  0.9735
  131OSM    H9S14088   3.137  -0.324   7.327  0.1307 -1.1347  0.0244
  131OSM    H9T14089   3.172  -0.474   7.417  1.8972  0.5331 -0.2860
  131OSM   C10S14090   2.986  -0.367   7.474 -0.1655  0.9966 -0.6215
  131OSM   H10S14091   2.939  -0.453   7.526  0.7284 -0.4739 -2.1457
  131OSM   H10T14092   2.911  -0.299   7.429  1.5371  3.4662  0.0894
  131OSM   C11S14093   3.052  -0.275   7.579 -0.2480 -0.4394  0.0180
  131OSM   H11S14094   3.085  -0.185   7.522  2.1298 -0.4436  1.2334
  131OSM   H11T14095   3.133  -0.331   7.630  1.7688 -1.3550 -3.7800
  131OSM   C12S14096   2.959  -0.231   7.696 -0.3042 -0.7594  0.6125
  131OSM   H12S14097   2.917  -0.317   7.752 -0.7699 -2.3157 -1.9950
  131OSM   H12T14098   2.877  -0.180   7.642  1.7903  0.9280 -1.1543
  131OSM   C13S14099   3.002  -0.111   7.787  0.4816 -0.4021  0.0274
  131OSM   H13S14100   2.922  -0.089   7.860 -0.1835 -1.1580 -0.4554
  131OSM   H13T14101   3.027  -0.021   7.725  1.5086 -0.1139  0.8350
  131OSM   C14S14102   3.127  -0.132   7.861 -0.2604 -0.2624 -0.1535
  131OSM   H14S14103   3.130  -0.240   7.885 -0.5562 -0.1613  0.3527
  131OSM   H14T14104   3.126  -0.073   7.955 -2.6150 -1.4081  0.6073
  131OSM   C15S14105   3.253  -0.082   7.781  0.6752  0.7768 -0.2280
  131OSM   H15S14106   3.236   0.028   7.769 -0.1448  0.6403 -0.3847
  131OSM   H15T14107   3.249  -0.128   7.680 -1.0285  0.9891 -0.2921
  131OSM   C16S14108   3.389  -0.119   7.837  0.5958 -0.2519 -0.1830
  131OSM   H16S14109   3.409  -0.228   7.833  1.6054 -0.0533 -2.3561
  131OSM   H16T14110   3.403  -0.085   7.941 -2.1522 -0.4532  0.3442
  131OSM   C17S14111   3.503  -0.056   7.761  0.4563 -0.5966 -0.2395
  131OSM   H17S14112   3.471   0.047   7.736  1.9653 -0.7090 -3.0048
  131OSM   H17T14113   3.536  -0.098   7.664  0.9659 -0.3925 -0.1553
  131OSM   C18S14114   3.638  -0.055   7.846 -0.3784 -0.3234  0.2671
  131OSM   H18S14115   3.677  -0.151   7.887  1.7324  0.5075  0.3286
  131OSM   H18T14116   3.623   0.006   7.938  1.2098 -0.2415  0.5097
  131OSM   H18U14117   3.720  -0.011   7.786 -0.6948 -1.6421 -1.2041
  131OSM    C1F14118   3.225  -0.047   6.711  0.1823  0.1303  0.2835
  131OSM     OF14119   3.165   0.020   6.626  0.1881 -0.1766  0.1906
  131OSM    C2F14120   3.325   0.018   6.802  0.4317  0.9156  0.2563
  131OSM    H2F14121   3.406  -0.051   6.834 -1.6244 -2.0345 -0.5301
  131OSM    H2G14122   3.282   0.031   6.904  0.1206 -0.2477  0.2865
  131OSM    C3F14123   3.379   0.153   6.751  0.0842  0.1830 -0.1479
  131OSM    H3F14124   3.298   0.217   6.710 -0.0922  0.3647  0.4733
  131OSM    H3G14125   3.454   0.125   6.674 -0.4407 -0.7483 -0.3250
  131OSM    C4F14126   3.446   0.234   6.862  0.5377  0.1782 -0.8800
  131OSM    H4F14127   3.515   0.165   6.915  0.9609  1.7518  0.7091
  131OSM    H4G14128   3.365   0.262   6.932  0.0960  1.1864 -1.7754
  131OSM    C5F14129   3.523   0.361   6.807  0.5311 -0.7432  0.0056
  131OSM    H5F14130   3.612   0.325   6.751 -1.0453 -2.4969 -1.4953
  131OSM    H5G14131   3.556   0.405   6.903  2.3286  1.5948 -1.5296
  131OSM    C6F14132   3.445   0.463   6.733  0.4041 -0.0201  0.3615
  131OSM    H6F14133   3.402   0.428   6.638 -1.7340 -0.0296  1.2746
  131OSM    H6G14134   3.516   0.543   6.702  0.9033 -0.7890 -0.5242
  131OSM    C7F14135   3.324   0.524   6.813  0.1279  0.4428  0.1128
  131OSM    H7F14136   3.274   0.430   6.843  2.3413 -1.0477 -0.6240
  131OSM    H7G14137   3.257   0.572   6.739 -0.0120 -0.4756 -0.3683
  131OSM    C8F14138   3.351   0.616   6.930 -0.4627 -0.3280 -0.9748
  131OSM    H8F14139   3.430   0.573   6.994  2.3367  1.5619 -2.9430
  131OSM    H8G14140   3.257   0.599   6.987  1.9077 -3.2504  2.5425
  131OSM    C9F14141   3.385   0.762   6.892  0.2314 -0.2479  0.0262
  131OSM    H9F14142   3.429   0.790   6.795 -0.9484 -1.4565 -0.9137
  131OSM   C10F14143   3.361   0.861   6.979  0.2781  0.3776 -0.9526
  131OSM   H10F14144   3.379   0.966   6.954 -1.9657  1.3246  1.0066
  131OSM   C11F14145   3.311   0.851   7.125 -0.3252  0.9266  0.7848
  131OSM   H11F14146   3.287   0.746   7.152 -0.9995  0.5708 -1.0397
  131OSM   H11G14147   3.218   0.911   7.135 -0.4052  1.1348 -0.9584
  131OSM   C12F14148   3.411   0.911   7.217 -0.2213  0.5947  0.2293
  131OSM   H12F14149   3.420   1.022   7.212 -2.4631  0.8660  1.1467
  131OSM   H12G14150   3.512   0.870   7.196 -0.4923 -1.0601  1.8938
  131OSM   C13F14151   3.383   0.878   7.367  0.0591  0.0622  0.4946
  131OSM   H13F14152   3.485   0.875   7.409  0.5243  0.8847 -0.5192
  131OSM   H13G14153   3.359   0.769   7.371  2.8324 -0.6058  0.4759
  131OSM   C14F14154   3.292   0.983   7.437  0.5300 -1.2768  0.3198
  131OSM   H14F14155   3.191   0.985   7.390  0.4116 -2.0059  0.5277
  131OSM   H14G14156   3.331   1.087   7.439 -3.0070  0.2518  3.2647
  131OSM   C15F14157   3.272   0.957   7.589 -0.0625 -0.6480  0.2849
  131OSM   H15F14158   3.238   0.851   7.585  1.6204 -1.1929 -1.8980
  131OSM   H15G14159   3.190   1.020   7.630  0.9393 -0.0277  1.3752
  131OSM   C16F14160   3.399   0.982   7.665 -0.4325  0.0313  0.3510
  131OSM   H16F14161   3.437   1.079   7.627  2.3508  0.1627  2.9981
  131OSM   H16G14162   3.477   0.911   7.630 -0.7617  0.1658 -0.6832
  131OSM   C17F14163   3.398   0.989   7.810  0.2922 -0.7334 -0.7221
  131OSM   H17F14164   3.414   0.891   7.859 -1.0943 -0.0640  1.1709
  131OSM   H17G14165   3.297   1.020   7.842 -0.1174 -0.8884 -1.8339
  131OSM   C18F14166   3.515   1.083   7.858 -0.1443 -0.1700  0.2352
  131OSM   H18F14167   3.527   1.086   7.968 -1.7140  1.5423  0.4060
  131OSM   H18G14168   3.498   1.188   7.825 -1.4633 -0.6231 -0.6550
  131OSM   H18H14169   3.611   1.042   7.819 -0.5875 -0.3668 -0.6872
  132OSM      N14170   3.573   2.316   5.852 -0.1778  0.5761  0.1528
  132OSM    C1514171   3.604   2.169   5.823 -0.1063  0.1539 -0.1750
  132OSM   H15A14172   3.692   2.149   5.764  0.9035 -0.7117  1.5309
  132OSM   H15B14173   3.520   2.119   5.777 -0.3617  0.0305  0.4195
  132OSM   H15C14174   3.627   2.119   5.916 -1.2688  0.4406  0.2923
  132OSM    C1414175   3.500   2.379   5.737 -0.9452 -0.4293  0.2683
  132OSM   H14A14176   3.404   2.333   5.718 -0.0988 -1.4077 -2.0263
  132OSM   H14B14177   3.552   2.393   5.643  0.0876  0.3342  0.9452
  132OSM   H14C14178   3.483   2.482   5.766  0.2114 -0.7201  2.1563
  132OSM    C1314179   3.479   2.324   5.970  0.4134  0.6491  0.3572
  132OSM   H13A14180   3.532   2.300   6.062  0.0982  1.4874  0.7696
  132OSM   H13B14181   3.397   2.257   5.949  0.8572  0.3665 -0.5365
  132OSM   H13C14182   3.438   2.421   5.990  1.5338  0.8621  1.8429
  132OSM    C1214183   3.695   2.393   5.887  0.0746  0.5490  0.1038
  132OSM   H12A14184   3.768   2.388   5.807 -0.4792  1.3304 -0.4610
  132OSM   H12B14185   3.755   2.333   5.954  1.2334  1.1933 -0.3427
  132OSM    C1114186   3.682   2.538   5.926  0.1128 -0.2516 -0.6700
  132OSM   H11A14187   3.616   2.554   6.014 -2.0090 -0.2324 -2.1993
  132OSM   H11B14188   3.641   2.594   5.840  0.7191  0.7037 -0.3583
  132OSM      P14189   3.820   2.726   6.022  0.0170  0.2507 -0.0919
  132OSM    O1314190   3.963   2.766   6.033  0.7763  0.1654  0.3292
  132OSM    O1414191   3.729   2.826   5.967  0.0766 -0.2699  0.5465
  132OSM    O1114192   3.771   2.700   6.170  0.2349 -0.3310 -0.0520
  132OSM    O1214193   3.814   2.593   5.943 -0.0351 -0.1097 -0.3035
  132OSM    C1S14194   3.835   2.605   6.245 -0.0311  0.2868 -0.9739
  132OSM    H1S14195   3.945   2.613   6.247  0.1392 -1.1096  2.6165
  132OSM    H1T14196   3.815   2.500   6.217  1.1702 -0.4536  0.7766
  132OSM     NF14197   3.864   2.509   6.480 -0.0188 -0.3316  0.1190
  132OSM    HNF14198   3.825   2.418   6.488 -0.6440  0.0363  1.4841
  132OSM    C2S14199   3.792   2.606   6.395  0.4083 -0.1667 -0.2396
  132OSM    H2S14200   3.803   2.708   6.438 -5.3190  0.6019  0.0686
  132OSM    C3S14201   3.631   2.588   6.402  0.2812  0.2235 -0.2612
  132OSM    H3S14202   3.614   2.479   6.403 -0.2007  0.3013  0.5377
  132OSM     O314203   3.560   2.648   6.291 -0.4136  0.2426 -0.2115
  132OSM    HO314204   3.628   2.695   6.242  1.4505 -2.0461 -0.0072
  132OSM    C4S14205   3.575   2.645   6.534 -0.0599 -0.4407 -0.4363
  132OSM    H4S14206   3.578   2.755   6.536 -2.4131 -0.3408 -0.2393
  132OSM    C5S14207   3.516   2.580   6.631 -0.0559 -0.2220  0.4141
  132OSM    H5S14208   3.488   2.476   6.608 -2.4680  0.8793 -2.2481
  132OSM    C6S14209   3.453   2.636   6.753  0.7612 -0.0025 -0.3975
  132OSM    H6S14210   3.500   2.585   6.839 -0.3741  1.2855  1.0617
  132OSM    H6T14211   3.343   2.626   6.753  0.5984  1.4506  0.5267
  132OSM    C7S14212   3.469   2.786   6.774 -0.1738  0.4442  0.4026
  132OSM    H7S14213   3.396   2.842   6.712 -0.7524  0.7445  1.3286
  132OSM    H7T14214   3.570   2.831   6.759 -1.1739  3.0049  0.8633
  132OSM    C8S14215   3.433   2.829   6.924  0.8220 -0.5743 -0.2107
  132OSM    H8S14216   3.459   2.936   6.938 -0.9336 -0.1082 -0.2699
  132OSM    H8T14217   3.486   2.765   6.998  2.2185 -1.7458 -2.1231
  132OSM    C9S14218   3.283   2.818   6.956 -0.7962  0.3434  0.7663
  132OSM    H9S14219   3.251   2.713   6.941 -0.2991  0.1224  1.2065
  132OSM    H9T14220   3.227   2.873   6.877  0.9114  2.7789  1.1648
  132OSM   C10S14221   3.226   2.856   7.086 -0.1681 -0.1439 -0.7915
  132OSM   H10S14222   3.133   2.799   7.104 -0.0828 -0.0191  0.1334
  132OSM   H10T14223   3.196   2.963   7.089 -0.5435 -0.2577  1.3004
  132OSM   C11S14224   3.315   2.820   7.209 -0.4593 -0.3895 -0.4192
  132OSM   H11S14225   3.413   2.869   7.190 -1.0541  0.3065 -1.8806
  132OSM   H11T14226   3.319   2.709   7.207 -0.0138 -0.4133  0.8397
  132OSM   C12S14227   3.247   2.868   7.335 -0.2233 -0.2510  0.0089
  132OSM   H12S14228   3.155   2.806   7.341 -0.9635  0.2417 -3.9077
  132OSM   H12T14229   3.220   2.975   7.324  1.9588  0.3989  0.4547
  132OSM   C13S14230   3.347   2.854   7.453 -0.7310  0.1347 -1.6985
  132OSM   H13S14231   3.424   2.929   7.426 -0.3275 -0.1652 -1.4093
  132OSM   H13T14232   3.394   2.753   7.446  1.0408  0.7754  0.0984
  132OSM   C14S14233   3.280   2.880   7.589 -0.3332 -0.1617  0.0407
  132OSM   H14S14234   3.199   2.806   7.607  0.6859 -1.7417 -1.5258
  132OSM   H14T14235   3.250   2.986   7.600 -0.7925 -0.2749 -0.0959
  132OSM   C15S14236   3.384   2.860   7.704  0.4648 -0.2575  0.0229
  132OSM   H15S14237   3.339   2.914   7.790 -2.0894  0.2592 -1.5202
  132OSM   H15T14238   3.479   2.907   7.670  1.6176 -1.7244  1.1056
  132OSM   C16S14239   3.415   2.715   7.733 -0.0631  0.7537  0.0678
  132OSM   H16S14240   3.458   2.667   7.642  2.0587  2.5418  0.0405
  132OSM   H16T14241   3.320   2.665   7.762  0.4900  0.4298  1.3717
  132OSM   C17S14242   3.514   2.698   7.844 -0.2266  0.2078 -0.3702
  132OSM   H17S14243   3.611   2.726   7.800  1.0949 -0.2333  2.0894
  132OSM   H17T14244   3.525   2.590   7.868  1.4247 -0.5179 -3.7715
  132OSM   C18S14245   3.494   2.781   7.973  0.6370 -0.3741 -0.7707
  132OSM   H18S14246   3.559   2.741   8.054  0.1897 -2.0120 -1.1924
  132OSM   H18T14247   3.396   2.772   8.023  0.5891  0.3177 -0.7295
  132OSM   H18U14248   3.519   2.888   7.956  0.9041 -0.0508  1.3894
  132OSM    C1F14249   3.994   2.525   6.502 -0.4055  0.4338 -0.5822
  132OSM     OF14250   4.044   2.637   6.500  0.4973 -0.6141  0.1648
  132OSM    C2F14251   4.075   2.402   6.514 -0.5175 -0.1065  0.3588
  132OSM    H2F14252   4.127   2.392   6.416 -3.7334 -2.8934 -1.2994
  132OSM    H2G14253   4.016   2.308   6.523  0.3566 -0.9398 -1.7438
  132OSM    C3F14254   4.193   2.405   6.614  0.1195  0.4163  0.5151
  132OSM    H3F14255   4.139   2.405   6.711  1.4434  0.5969  1.2775
  132OSM    H3G14256   4.254   2.498   6.608 -0.5863  0.9964  2.0159
  132OSM    C4F14257   4.293   2.289   6.596  0.0303 -0.4351 -0.1817
  132OSM    H4F14258   4.361   2.310   6.682  0.8515 -0.8751 -0.7106
  132OSM    H4G14259   4.358   2.310   6.508  0.4736 -0.0409  0.2332
  132OSM    C5F14260   4.238   2.146   6.616 -1.0624  0.4910  0.1605
  132OSM    H5F14261   4.145   2.123   6.559  1.0867  0.1397 -3.4744
  132OSM    H5G14262   4.206   2.135   6.722  3.6874  0.5392  1.8226
  132OSM    C6F14263   4.347   2.036   6.574  1.2293 -0.8648  0.4744
  132OSM    H6F14264   4.349   2.017   6.464 -0.4268 -0.9784  0.4439
  132OSM    H6G14265   4.319   1.940   6.621 -1.7699 -0.1696  0.2913
  132OSM    C7F14266   4.487   2.061   6.630 -0.6879 -0.6272 -0.0431
  132OSM    H7F14267   4.516   2.164   6.602 -0.5968 -0.3359  1.0854
  132OSM    H7G14268   4.562   2.005   6.571 -0.9656 -1.5834  0.4730
  132OSM    C8F14269   4.497   2.044   6.783 -0.3536  0.7990  0.3969
  132OSM    H8F14270   4.408   2.079   6.839 -0.6018  0.1930  0.3920
  132OSM    H8G14271   4.579   2.111   6.820  0.1714  0.9817 -1.0509
  132OSM    C9F14272   4.526   1.898   6.814 -0.1658 -0.5603 -0.5037
  132OSM    H9F14273   4.462   1.821   6.769 -0.3951 -0.9415  0.4455
  132OSM   C10F14274   4.630   1.852   6.882  0.3707  0.2478  0.2710
  132OSM   H10F14275   4.629   1.743   6.901  0.2008  0.0982 -0.5669
  132OSM   C11F14276   4.743   1.931   6.943  0.0929  0.0185 -0.0504
  132OSM   H11F14277   4.723   1.940   7.052  1.0403 -0.5313  0.1815
  132OSM   H11G14278   4.751   2.036   6.908  1.6936 -1.0173 -3.1515
  132OSM   C12F14279   4.883   1.866   6.930 -0.3267 -1.0650  0.2400
  132OSM   H12F14280   4.906   1.868   6.822 -1.5201  1.6161 -0.0247
  132OSM   H12G14281   4.880   1.761   6.967 -0.3247 -1.0069  0.4083
  132OSM   C13F14282   4.996   1.948   6.997  0.6515 -0.3282 -0.1794
  132OSM   H13F14283   4.966   2.053   6.977 -2.7930 -1.3136 -0.8661
  132OSM   H13G14284   5.091   1.931   6.941  0.6709  0.6986 -0.4886
  132OSM   C14F14285   5.023   1.907   7.139  0.1192  0.0960  0.0365
  132OSM   H14F14286   5.047   1.799   7.136  0.7503  0.2416 -0.1770
  132OSM   H14G14287   4.939   1.920   7.210 -2.1757 -0.8432 -2.3089
  132OSM   C15F14288   5.147   1.976   7.203  0.2960  0.3839 -0.2832
  132OSM   H15F14289   5.124   2.084   7.212 -2.2491 -0.2265  1.7136
  132OSM   H15G14290   5.234   1.972   7.134  1.1801 -0.2863  0.8367
  132OSM   C16F14291   5.194   1.931   7.342  0.2246  0.8901 -0.4707
  132OSM   H16F14292   5.254   1.840   7.319 -0.1985  1.1534 -2.8544
  132OSM   H16G14293   5.108   1.916   7.411 -0.0030  2.3808 -0.3901
  132OSM   C17F14294   5.278   2.035   7.412  0.0309 -0.8369 -0.2946
  132OSM   H17F14295   5.222   2.130   7.421  0.5466 -0.6188  0.7438
  132OSM   H17G14296   5.367   2.047   7.346 -0.9881 -5.2298 -2.8963
  132OSM   C18F14297   5.313   1.993   7.553  0.5865  0.4325 -0.2725
  132OSM   H18F14298   5.238   1.927   7.602  2.1959  0.8002  3.0105
  132OSM   H18G14299   5.327   2.076   7.626 -0.2666 -1.9925  2.8690
  132OSM   H18H14300   5.410   1.939   7.551  1.7123  2.1057  2.5611
  133SAPE     N14301   1.659   0.283  10.821  0.1827 -0.3670  0.4923
  133SAPE   HN114302   1.652   0.291  10.718  1.3003  0.5830  0.4562
  133SAPE   HN214303   1.757   0.247  10.823  0.4324  0.1934 -0.8320
  133SAPE   HN314304   1.584   0.217  10.851 -0.3321  0.5363  1.2448
  133SAPE   C1214305   1.662   0.417  10.901  0.0942  0.2474  0.8101
  133SAPE  H12A14306   1.667   0.390  11.009  1.4670 -1.3363  0.3917
  133SAPE  H12B14307   1.561   0.457  10.880  0.9104  1.6295 -0.6873
  133SAPE   C1114308   1.767   0.516  10.853  0.0602  0.2732  1.2873
  133SAPE  H11A14309   1.872   0.480  10.866  0.6478  0.7551 -1.4243
  133SAPE  H11B14310   1.760   0.607  10.916  0.9650  2.8801 -2.0751
  133SAPE     P14311   1.813   0.691  10.669 -0.1643 -0.2603  0.0118
  133SAPE   O1314312   1.737   0.809  10.714 -0.6179  0.2217  0.1771
  133SAPE   O1414313   1.954   0.686  10.709  0.1108  0.0590 -0.1290
  133SAPE   O1214314   1.745   0.559  10.713 -0.0757  0.2817 -0.2224
  133SAPE   O1114315   1.803   0.675  10.514  0.2592 -0.1268  0.1202
  133SAPE    C114316   1.704   0.734  10.430  0.4122 -0.1487  0.1927
  133SAPE    HA14317   1.647   0.656  10.375 -1.7831  2.2263 -1.1194
  133SAPE    HB14318   1.624   0.795  10.478 -0.2851 -0.2230 -0.8294
  133SAPE    C214319   1.780   0.825  10.327 -0.3586  0.8250 -0.3434
  133SAPE    HS14320   1.701   0.856  10.255 -0.4271 -0.4101 -0.8184
  133SAPE   O2114321   1.877   0.759  10.250  0.3310  0.3877 -0.1905
  133SAPE   C2114322   1.849   0.636  10.194  0.1508 -0.3291 -0.2743
  133SAPE   O2214323   1.744   0.579  10.190  0.2982  0.1461  0.5143
  133SAPE   C2214324   1.965   0.598  10.100  0.6096  0.0467 -0.4446
  133SAPE   H2R14325   2.062   0.588  10.154  0.9551 -1.4707 -1.2729
  133SAPE   H2S14326   1.949   0.491  10.072 -1.8745 -0.8043  3.5055
  133SAPE    C314327   1.850   0.945  10.384  0.2226  0.2274 -0.3206
  133SAPE    HX14328   1.949   0.915  10.425  0.5666 -0.5928 -1.6639
  133SAPE    HY14329   1.796   0.981  10.474 -0.4743 -1.3288 -0.0749
  133SAPE   O3114330   1.866   1.051  10.286  0.0934 -0.4106  0.4181
  133SAPE   C3114331   1.761   1.124  10.265  0.5512  0.3214  0.2997
  133SAPE   O3214332   1.647   1.116  10.315 -0.0932  0.1805  0.4753
  133SAPE   C3214333   1.783   1.183  10.125  0.2376 -0.0866  0.1169
  133SAPE   H2X14334   1.822   1.105  10.057  0.1584  1.4270 -1.7546
  133SAPE   H2Y14335   1.852   1.269  10.136 -2.2419  1.8351  1.8669
  133SAPE   C2314336   1.987   0.699   9.982 -0.6934 -0.3705  0.6810
  133SAPE   H3R14337   2.090   0.695   9.939 -0.2086  0.7839  1.6788
  133SAPE   H3S14338   1.965   0.800  10.022 -0.4552 -0.5271  1.2271
  133SAPE   C2414339   1.887   0.692   9.864  0.1231  0.5527 -0.2790
  133SAPE   H4R14340   1.785   0.707   9.904 -0.0763 -0.0937 -0.5306
  133SAPE   H4S14341   1.892   0.588   9.825 -3.0546 -0.6794  2.1774
  133SAPE   C2514342   1.912   0.799   9.761 -0.3193 -0.0257  0.0410
  133SAPE   H5R14343   1.891   0.903   9.789  2.3382  0.6820 -0.2653
  133SAPE   C2614344   1.949   0.792   9.629  0.0276  0.0941 -0.4692
  133SAPE   H6R14345   1.964   0.887   9.575 -2.4401  0.4644 -0.6077
  133SAPE   C2714346   1.976   0.660   9.558  0.5616 -0.4085 -0.5179
  133SAPE   H7R14347   1.919   0.576   9.604  0.1961  1.4395  2.7358
  133SAPE   H7S14348   2.081   0.624   9.570  0.9452  0.8897  0.1794
  133SAPE   C2814349   1.930   0.668   9.417  0.0098 -0.2959  0.2508
  133SAPE   H8R14350   1.929   0.770   9.376  0.9067  0.5132  2.1040
  133SAPE   C2914351   1.894   0.572   9.333 -0.5684  0.5600 -0.2514
  133SAPE   H9R14352   1.866   0.610   9.234  1.1522  3.2875  0.2179
  133SAPE  C21014353   1.909   0.426   9.364  0.6055 -0.1569 -0.0815
  133SAPE  H10R14354   1.811   0.373   9.358  0.2981  0.4905 -0.9221
  133SAPE  H10S14355   1.928   0.414   9.473  2.3938  0.6242 -0.2781
  133SAPE  C21114356   2.018   0.357   9.290 -0.7193 -0.2517 -0.1673
  133SAPE  H11R14357   2.118   0.386   9.327 -1.4702  2.2253  0.0903
  133SAPE  C21214358   2.011   0.261   9.199  0.0986  0.8370  0.2101
  133SAPE  H12R14359   2.099   0.216   9.151 -1.2607 -0.3395 -1.2704
  133SAPE  C21314360   1.879   0.206   9.141 -0.6844  0.1863  0.0741
  133SAPE  H13R14361   1.800   0.188   9.217 -1.8141  1.1035 -0.8627
  133SAPE  H13S14362   1.900   0.107   9.095  0.1617  0.6361 -0.5360
  133SAPE  C21414363   1.811   0.309   9.048  0.2152  0.5435  0.0785
  133SAPE  H14R14364   1.762   0.398   9.090 -2.8644 -0.9289 -0.1106
  133SAPE  C21514365   1.817   0.295   8.918 -0.0396 -0.1838  0.5865
  133SAPE  H15R14366   1.764   0.372   8.860  2.4111 -0.1445 -1.8256
  133SAPE  C21614367   1.899   0.194   8.837 -0.2230  0.9498 -0.0021
  133SAPE  H16R14368   1.966   0.147   8.912 -0.5115  2.3456  1.2085
  133SAPE  H16S14369   1.958   0.237   8.754  0.6206  0.1831  0.2007
  133SAPE  C21714370   1.800   0.105   8.765 -0.7282 -0.5622  0.2256
  133SAPE  H17R14371   1.729   0.166   8.705 -0.9447 -1.4149 -0.4028
  133SAPE  H17S14372   1.737   0.063   8.846 -0.4769  0.8408  1.1936
  133SAPE  C21814373   1.874  -0.005   8.684  0.6702 -0.9156 -0.4696
  133SAPE  H18R14374   1.921  -0.073   8.758 -0.2227  1.1321  2.1471
  133SAPE  H18S14375   1.954   0.046   8.625 -0.4883  1.3187 -0.2105
  133SAPE  C21914376   1.797  -0.082   8.579  0.3008 -0.4102  0.2393
  133SAPE  H19R14377   1.711  -0.026   8.534  0.6178  0.3835  0.5960
  133SAPE  H19S14378   1.756  -0.173   8.628 -0.6474 -0.0191  0.1926
  133SAPE  C22014379   1.886  -0.124   8.470 -1.0440  0.3180 -0.7568
  133SAPE  H20R14380   1.840  -0.202   8.405  1.0713 -2.0572  0.4116
  133SAPE  H20S14381   1.973  -0.167   8.524 -1.8841  0.7273  1.0053
  133SAPE  H20T14382   1.914  -0.037   8.408 -2.4959  0.2255 -1.5772
  133SAPE   C3314383   1.655   1.247  10.068 -1.4432 -0.2464 -0.3204
  133SAPE   H3X14384   1.598   1.310  10.139 -0.0994  0.0926  0.4795
  133SAPE   H3Y14385   1.586   1.165  10.038 -0.1485 -1.5369  0.0750
  133SAPE   C3414386   1.676   1.345   9.945 -0.1055  0.4477 -0.2241
  133SAPE   H4X14387   1.733   1.438   9.963 -0.8137  0.7481  0.5568
  133SAPE   H4Y14388   1.577   1.391   9.921 -0.2628 -0.3060 -1.0788
  133SAPE   C3514389   1.735   1.281   9.820  0.3740 -0.7053 -0.4343
  133SAPE   H5X14390   1.820   1.220   9.857 -0.0440 -0.3642  1.1385
  133SAPE   H5Y14391   1.770   1.350   9.740  0.8031  0.2969  0.5954
  133SAPE   C3614392   1.630   1.190   9.761  0.4175 -0.0762 -0.0568
  133SAPE   H6X14393   1.575   1.129   9.836  0.0413  1.1766  0.7028
  133SAPE   H6Y14394   1.681   1.104   9.711  1.4051  0.6168 -0.2736
  133SAPE   C3714395   1.542   1.259   9.658 -0.1829  0.4794 -1.2932
  133SAPE   H7X14396   1.490   1.349   9.698  1.4531  2.3850 -3.1470
  133SAPE   H7Y14397   1.458   1.195   9.625  0.7220  0.8556 -4.7915
  133SAPE   C3814398   1.611   1.319   9.534 -0.2052 -0.1720 -0.5233
  133SAPE   H8X14399   1.679   1.244   9.488 -0.9323  0.4624 -2.7631
  133SAPE   H8Y14400   1.686   1.400   9.547  0.3275 -0.4278 -1.8193
  133SAPE   C3914401   1.518   1.378   9.432  0.1175  0.1563  0.2901
  133SAPE   H9X14402   1.488   1.480   9.463  0.2456 -0.5582  2.9715
  133SAPE   H9Y14403   1.422   1.323   9.444  0.3547 -0.2856  0.1647
  133SAPE  C31014404   1.565   1.376   9.286  0.2521 -0.1871 -0.3145
  133SAPE  H10X14405   1.616   1.280   9.262  0.8269  0.0832 -0.1929
  133SAPE  H10Y14406   1.633   1.460   9.260  0.2991 -0.5878 -1.5611
  133SAPE  C31114407   1.441   1.404   9.197 -0.2436  0.3598  0.8311
  133SAPE  H11X14408   1.408   1.506   9.226  1.3788  2.0130 -2.6013
  133SAPE  H11Y14409   1.354   1.335   9.212  0.0695 -0.4804 -1.0121
  133SAPE  C31214410   1.472   1.414   9.047  0.0380 -0.5792 -0.0170
  133SAPE  H12X14411   1.376   1.449   9.003 -0.8369  0.1206  2.3220
  133SAPE  H12Y14412   1.491   1.313   9.005 -3.1842 -0.6775 -1.5489
  133SAPE  C31314413   1.589   1.499   9.018  0.3757  0.7310  0.9213
  133SAPE  H13X14414   1.685   1.449   9.042  0.4891 -0.1263 -1.1309
  133SAPE  H13Y14415   1.569   1.586   9.085 -2.7089  1.7162 -1.0630
  133SAPE  C31414416   1.607   1.551   8.871 -0.2610  0.4365  1.1690
  133SAPE  H14X14417   1.700   1.612   8.863  1.0189 -1.6513 -1.7120
  133SAPE  H14Y14418   1.519   1.618   8.857 -0.6425 -0.3006 -0.0330
  133SAPE  C31514419   1.614   1.443   8.764 -0.3001  0.8026  0.2027
  133SAPE  H15X14420   1.612   1.494   8.666 -1.1144 -1.3357 -0.9599
  133SAPE  H15Y14421   1.525   1.377   8.767 -0.3554  0.8979  0.6726
  133SAPE  C31614422   1.739   1.351   8.782 -0.0309 -1.0772  0.6559
  133SAPE  H16X14423   1.712   1.293   8.872  0.8673  0.3117  1.8657
  133SAPE  H16Y14424   1.828   1.412   8.807 -1.0977  1.1864 -0.6564
  133SAPE  C31714425   1.776   1.252   8.672 -0.5383  0.0906  0.2475
  133SAPE  H17X14426   1.860   1.183   8.698  0.6263  1.4417  0.1511
  133SAPE  H17Y14427   1.804   1.305   8.579  0.6480 -1.1218 -0.1201
  133SAPE  C31814428   1.658   1.155   8.633  0.1046 -0.7952  0.0053
  133SAPE  H18X14429   1.693   1.097   8.545 -0.8040 -1.5445  0.1287
  133SAPE  H18Y14430   1.563   1.208   8.610 -0.7486 -1.2593  2.1841
  133SAPE  H18Z14431   1.632   1.087   8.717 -2.3143 -0.0151 -0.0366
  134SAPE     N14432   2.696   1.395  10.568 -0.2814 -0.0061 -0.5966
  134SAPE   HN114433   2.622   1.321  10.563 -1.6365  1.3421 -1.3396
  134SAPE   HN214434   2.708   1.429  10.471 -0.6502  0.0550 -0.6233
  134SAPE   HN314435   2.778   1.341  10.601 -0.3943 -1.6420 -2.7274
  134SAPE   C1214436   2.666   1.509  10.659  0.0830  0.4160  0.5820
  134SAPE  H12A14437   2.761   1.559  10.689  1.0730 -0.7148 -0.5841
  134SAPE  H12B14438   2.621   1.464  10.750  0.2980 -1.3932 -0.1702
  134SAPE   C1114439   2.571   1.599  10.579 -0.0522  0.5500  0.7405
  134SAPE  H11A14440   2.605   1.627  10.477 -3.0701  0.9069 -0.2608
  134SAPE  H11B14441   2.554   1.698  10.625  1.8466  0.8203  0.9588
  134SAPE     P14442   2.302   1.561  10.598 -0.3958  0.1108  0.6511
  134SAPE   O1314443   2.276   1.501  10.731 -0.1560 -0.5406  0.1697
  134SAPE   O1414444   2.279   1.704  10.599 -0.3072 -0.3431  0.8862
  134SAPE   O1214445   2.449   1.526  10.557 -0.0393 -0.0239  0.6394
  134SAPE   O1114446   2.215   1.488  10.494  0.0101 -0.0423 -0.1242
  134SAPE    C114447   2.257   1.371  10.431  0.2350  0.4463 -1.2417
  134SAPE    HA14448   2.331   1.311  10.488 -1.4247 -0.1211  0.4231
  134SAPE    HB14449   2.176   1.296  10.422  0.6938 -0.1021 -0.8415
  134SAPE    C214450   2.310   1.394  10.294 -0.2089 -0.1156  0.1144
  134SAPE    HS14451   2.369   1.487  10.278  2.0634 -1.6301 -0.7938
  134SAPE   O2114452   2.200   1.389  10.204  0.1810 -0.4527 -0.3398
  134SAPE   C2114453   2.173   1.507  10.147 -0.5986  0.1479  0.1601
  134SAPE   O2214454   2.198   1.617  10.187  0.3383  0.0541  0.0701
  134SAPE   C2214455   2.105   1.481  10.005 -1.0529  0.0899 -0.2749
  134SAPE   H2R14456   2.177   1.415   9.953 -0.6107 -0.1856  0.6741
  134SAPE   H2S14457   2.012   1.423  10.025 -1.7447  0.5201 -2.0188
  134SAPE    C314458   2.424   1.290  10.252  1.3037  0.0005 -0.2240
  134SAPE    HX14459   2.377   1.191  10.273 -1.3347  1.3524  0.6687
  134SAPE    HY14460   2.513   1.313  10.315  1.7973  1.4385 -1.3903
  134SAPE   O3114461   2.464   1.302  10.113 -0.1731  0.6721  0.7492
  134SAPE   C3114462   2.561   1.228  10.078 -0.8335  1.4038  0.8167
  134SAPE   O3214463   2.639   1.163  10.146 -0.5176  0.1378 -0.1656
  134SAPE   C3214464   2.584   1.240   9.927 -1.1474  0.0690  0.6034
  134SAPE   H2X14465   2.527   1.168   9.865  0.0480  1.1172 -1.8943
  134SAPE   H2Y14466   2.686   1.199   9.909 -0.9625  1.2953 -1.5245
  134SAPE   C2314467   2.076   1.603   9.916 -0.4303 -1.7048 -0.3139
  134SAPE   H3R14468   2.176   1.648   9.898 -1.1273 -0.2649 -0.7235
  134SAPE   H3S14469   2.016   1.677   9.973 -0.4720 -0.6992 -1.6245
  134SAPE   C2414470   2.007   1.559   9.790 -0.3530 -0.9289 -0.1047
  134SAPE   H4R14471   1.914   1.503   9.816  0.2914 -1.7802  0.4508
  134SAPE   H4S14472   2.074   1.494   9.729  2.1599 -0.2180  1.7190
  134SAPE   C2514473   1.973   1.687   9.722  0.1670 -0.7274 -0.3681
  134SAPE   H5R14474   1.950   1.763   9.799  1.3740 -0.2183 -0.4839
  134SAPE   C2614475   1.990   1.725   9.593 -0.4298 -0.2201  0.7361
  134SAPE   H6R14476   1.991   1.834   9.580  0.5789 -0.2246  0.7566
  134SAPE   C2714477   2.030   1.640   9.480 -0.3428 -0.1387 -0.0108
  134SAPE   H7R14478   2.069   1.541   9.512 -0.8262 -0.7942 -1.3796
  134SAPE   H7S14479   2.115   1.698   9.440 -0.8922  1.2626  0.7823
  134SAPE   C2814480   1.918   1.616   9.376  0.3716 -0.1287 -0.1535
  134SAPE   H8R14481   1.828   1.567   9.418  0.3524  0.7641  0.9025
  134SAPE   C2914482   1.932   1.616   9.240 -0.2605  0.0263  0.3474
  134SAPE   H9R14483   1.843   1.594   9.179  0.9779 -1.5587 -0.9649
  134SAPE  C21014484   2.055   1.660   9.163  0.1528  0.2675  1.0257
  134SAPE  H10R14485   2.074   1.587   9.081 -0.3056  0.2556  0.9251
  134SAPE  H10S14486   2.146   1.667   9.227  0.7713  0.1904  0.1743
  134SAPE  C21114487   2.037   1.794   9.097 -0.0294  0.4525 -0.0970
  134SAPE  H11R14488   2.045   1.875   9.171 -0.1834  1.2930 -0.9704
  134SAPE  C21214489   2.016   1.829   8.971  0.4077  0.4891  0.0321
  134SAPE  H12R14490   2.006   1.938   8.953 -0.5189  0.4764  0.4133
  134SAPE  C21314491   2.007   1.740   8.848  0.4180 -0.3363  0.1009
  134SAPE  H13R14492   1.964   1.641   8.872 -1.0510 -0.0068 -1.0326
  134SAPE  H13S14493   2.105   1.719   8.799  1.0774  2.4395  0.0229
  134SAPE  C21414494   1.917   1.806   8.752  0.4320 -0.2300 -0.0311
  134SAPE  H14R14495   1.809   1.797   8.773  0.0423 -0.9322 -2.0759
  134SAPE  C21514496   1.948   1.854   8.627  1.0907  0.2793 -0.1527
  134SAPE  H15R14497   1.871   1.907   8.569  0.4207 -2.9578 -2.4868
  134SAPE  C21614498   2.082   1.858   8.563 -0.5420  0.8765  0.0334
  134SAPE  H16R14499   2.065   1.834   8.455 -1.6550  0.9361  0.1798
  134SAPE  H16S14500   2.154   1.780   8.595  0.4614  1.9898  0.5459
  134SAPE  C21714501   2.144   1.996   8.576  0.9375 -0.7050 -0.2283
  134SAPE  H17R14502   2.066   2.073   8.558 -0.1407 -1.7233 -0.0694
  134SAPE  H17S14503   2.226   2.016   8.505  0.7043  0.1560 -0.2675
  134SAPE  C21814504   2.192   2.020   8.716  0.4446 -0.2766 -0.0332
  134SAPE  H18R14505   2.263   1.939   8.744 -0.8371 -2.0248 -1.5539
  134SAPE  H18S14506   2.116   2.028   8.796  1.7380 -1.3479  1.3627
  134SAPE  C21914507   2.254   2.151   8.737  0.2425  1.0052 -0.6978
  134SAPE  H19R14508   2.342   2.161   8.670  0.4512  1.7781 -0.3146
  134SAPE  H19S14509   2.294   2.151   8.841 -0.1009  2.6968 -0.5540
  134SAPE  C22014510   2.157   2.269   8.713 -0.5482  0.2826  0.5532
  134SAPE  H20R14511   2.116   2.276   8.610 -0.7156  1.1543  0.6669
  134SAPE  H20S14512   2.191   2.374   8.726 -0.2758  0.0370  1.9726
  134SAPE  H20T14513   2.070   2.257   8.781 -1.6383  3.0908 -0.1825
  134SAPE   C3314514   2.589   1.386   9.880  0.1349  0.3579  0.7357
  134SAPE   H3X14515   2.675   1.441   9.924  0.4484 -1.1801  2.1693
  134SAPE   H3Y14516   2.495   1.431   9.918 -0.1264  1.2192 -0.8358
  134SAPE   C3414517   2.563   1.387   9.724 -0.2391 -0.1074  0.0164
  134SAPE   H4X14518   2.470   1.333   9.695  1.0551 -1.6314 -1.5378
  134SAPE   H4Y14519   2.654   1.353   9.670 -1.4793 -2.0222 -0.9889
  134SAPE   C3514520   2.541   1.534   9.684 -0.0200 -0.1135  0.5319
  134SAPE   H5X14521   2.624   1.604   9.707  0.6171  0.6420 -3.3249
  134SAPE   H5Y14522   2.444   1.571   9.723 -0.3132  0.4054 -0.6629
  134SAPE   C3614523   2.519   1.559   9.530 -0.7902  0.2662  0.8049
  134SAPE   H6X14524   2.607   1.547   9.464 -0.3619 -3.8408  1.8403
  134SAPE   H6Y14525   2.490   1.665   9.515  0.9183  0.8020  1.1019
  134SAPE   C3714526   2.407   1.478   9.463 -0.4072 -0.2503 -0.2182
  134SAPE   H7X14527   2.321   1.483   9.534  0.2501  0.2535  0.5740
  134SAPE   H7Y14528   2.433   1.371   9.447 -0.6933 -0.4973  0.8758
  134SAPE   C3814529   2.363   1.523   9.325 -0.2765  0.0879 -0.9042
  134SAPE   H8X14530   2.326   1.627   9.320  0.8419  0.6210  0.7437
  134SAPE   H8Y14531   2.289   1.443   9.304 -0.4944  0.1882 -0.5350
  134SAPE   C3914532   2.470   1.500   9.215 -0.4371  0.0449 -0.1310
  134SAPE   H9X14533   2.520   1.401   9.228 -1.3411 -0.5993 -1.2731
  134SAPE   H9Y14534   2.548   1.574   9.241  0.0618 -0.4379 -0.2394
  134SAPE  C31014535   2.421   1.509   9.072  0.2427 -0.0132  0.3101
  134SAPE  H10X14536   2.343   1.587   9.067 -0.8876 -1.1562 -0.2008
  134SAPE  H10Y14537   2.381   1.407   9.056  0.1601  0.5175 -4.1803
  134SAPE  C31114538   2.536   1.534   8.980  0.1738  0.5162  0.9772
  134SAPE  H11X14539   2.620   1.465   9.003 -0.7112 -0.9296  0.0423
  134SAPE  H11Y14540   2.556   1.641   8.955 -0.6467  0.1008 -1.8119
  134SAPE  C31214541   2.493   1.465   8.847  0.0262  0.3986 -0.2658
  134SAPE  H12X14542   2.442   1.369   8.871  1.0104 -0.4031 -1.2861
  134SAPE  H12Y14543   2.591   1.432   8.806  1.5978  1.8022  2.1025
  134SAPE  C31314544   2.414   1.555   8.748 -0.6777  0.2690  0.0973
  134SAPE  H13X14545   2.484   1.639   8.728  0.4126 -0.4588  0.7054
  134SAPE  H13Y14546   2.324   1.591   8.803  1.1557  1.9528  2.2184
  134SAPE  C31414547   2.389   1.495   8.606  0.5618  0.2046  0.1520
  134SAPE  H14X14548   2.480   1.471   8.547 -0.6062 -1.2444 -1.1619
  134SAPE  H14Y14549   2.315   1.554   8.548 -0.0835  0.4086  1.1609
  134SAPE  C31514550   2.318   1.360   8.622  0.7385  0.5418  0.8483
  134SAPE  H15X14551   2.235   1.362   8.696 -0.5611 -2.2878 -0.3598
  134SAPE  H15Y14552   2.396   1.288   8.655  2.5028  2.6334  1.5200
  134SAPE  C31614553   2.251   1.318   8.484 -0.3116  0.3545  0.6027
  134SAPE  H16X14554   2.347   1.298   8.432 -0.7152 -0.0212 -0.0166
  134SAPE  H16Y14555   2.201   1.406   8.437  1.7632  0.1889 -2.1693
  134SAPE  C31714556   2.170   1.188   8.486  0.3131  0.2888 -0.3622
  134SAPE  H17X14557   2.149   1.153   8.383  1.1150 -0.6284 -0.2318
  134SAPE  H17Y14558   2.068   1.210   8.526 -0.1790 -0.8869 -0.9364
  134SAPE  C31814559   2.239   1.081   8.572  0.1431 -0.5235  0.3767
  134SAPE  H18X14560   2.190   0.983   8.553 -1.3438  0.6806 -2.7491
  134SAPE  H18Y14561   2.246   1.114   8.678  1.4865  2.3607 -0.5032
  134SAPE  H18Z14562   2.346   1.072   8.544  0.4429  0.5047  1.1175
  135SAPE     N14563   3.450   6.455  10.346 -0.2095 -0.4210  0.5828
  135SAPE   HN114564   3.527   6.524  10.353 -1.0141  0.4320  1.2562
  135SAPE   HN214565   3.487   6.362  10.317 -1.8165 -0.7520 -0.5482
  135SAPE   HN314566   3.381   6.482  10.274 -1.6801  1.1545  2.4718
  135SAPE   C1214567   3.385   6.446  10.486  0.2142  0.0680 -0.5136
  135SAPE  H12A14568   3.471   6.417  10.551  1.0135  0.9923 -1.1155
  135SAPE  H12B14569   3.305   6.370  10.491  0.5867 -0.2408  1.4755
  135SAPE   C1114570   3.321   6.572  10.533  0.3966 -0.5202 -0.6362
  135SAPE  H11A14571   3.386   6.659  10.557 -1.8488  0.3429  3.2352
  135SAPE  H11B14572   3.269   6.554  10.630 -0.6561  0.1583 -1.0502
  135SAPE     P14573   3.129   6.726  10.447  0.0795 -0.0002 -0.1625
  135SAPE   O1314574   3.018   6.695  10.357 -0.7565 -0.3165  1.2134
  135SAPE   O1414575   3.101   6.745  10.593  0.0180 -0.1495  0.5719
  135SAPE   O1214576   3.238   6.615  10.426 -0.3611  0.3647  0.4591
  135SAPE   O1114577   3.201   6.856  10.413  0.2791 -0.1419 -0.1452
  135SAPE    C114578   3.345   6.875  10.400  0.0547  0.6760 -0.4739
  135SAPE    HA14579   3.383   6.909  10.498 -1.6261 -0.5108  0.6387
  135SAPE    HB14580   3.393   6.784  10.358  0.0495  0.5587 -0.2245
  135SAPE    C214581   3.388   6.996  10.304 -0.5894  0.1396  0.1385
  135SAPE    HS14582   3.406   7.089  10.362  4.9441  1.0716 -2.4458
  135SAPE   O2114583   3.291   7.014  10.200  0.2876  0.0639 -0.1985
  135SAPE   C2114584   3.270   7.145  10.171 -0.3999 -0.4964  0.7693
  135SAPE   O2214585   3.330   7.242  10.211 -0.0652  0.0451 -0.0251
  135SAPE   C2214586   3.139   7.154  10.093 -0.1436  0.8279 -0.1566
  135SAPE   H2R14587   3.157   7.087  10.006  0.4130  0.3850  0.2959
  135SAPE   H2S14588   3.068   7.109  10.165 -0.9139  0.8787 -0.8664
  135SAPE    C314589   3.534   6.975  10.256 -0.2085  0.0136 -0.0903
  135SAPE    HX14590   3.544   6.876  10.207 -2.1044 -1.4869  2.3274
  135SAPE    HY14591   3.610   6.972  10.337 -0.4758  1.2993  0.2353
  135SAPE   O3114592   3.579   7.083  10.172 -0.1713 -0.0263 -0.2503
  135SAPE   C3114593   3.626   7.193  10.230  0.1166  0.2193 -0.3462
  135SAPE   O3214594   3.626   7.213  10.349 -0.1671  0.1842 -0.0042
  135SAPE   C3214595   3.687   7.284  10.117 -0.4732 -0.9061 -0.8646
  135SAPE   H2X14596   3.795   7.303  10.138 -0.6260 -1.1084  0.1587
  135SAPE   H2Y14597   3.626   7.376  10.128  1.2495  0.3203 -1.1687
  135SAPE   C2314598   3.091   7.302  10.069  0.5784  0.5216  0.7922
  135SAPE   H3R14599   3.050   7.300   9.965  2.7303 -0.1879 -0.0868
  135SAPE   H3S14600   3.176   7.373  10.073  0.6852  0.4030  0.6425
  135SAPE   C2414601   2.984   7.363  10.161 -0.4986 -0.0419  0.4603
  135SAPE   H4R14602   2.964   7.469  10.134  0.6267 -0.4280 -2.1516
  135SAPE   H4S14603   3.040   7.375  10.256  2.0501 -0.9954 -0.8319
  135SAPE   C2514604   2.861   7.279  10.166 -0.0890 -0.2303  0.1953
  135SAPE   H5R14605   2.875   7.196  10.237 -1.1591 -0.1949  0.4565
  135SAPE   C2614606   2.745   7.296  10.101  0.0996  0.2721  0.4200
  135SAPE   H6R14607   2.673   7.213  10.112 -0.8447  0.7742 -1.5220
  135SAPE   C2714608   2.698   7.406  10.004 -0.0444 -0.0966 -0.0259
  135SAPE   H7R14609   2.619   7.355   9.945 -1.4725  1.4013  0.5022
  135SAPE   H7S14610   2.777   7.427   9.929 -0.3107  2.0804  0.2172
  135SAPE   C2814611   2.665   7.544  10.052 -0.3530 -0.0622  0.1407
  135SAPE   H8R14612   2.700   7.581  10.150 -2.7034 -2.0396  1.8490
  135SAPE   C2914613   2.578   7.630   9.994  0.6513  0.4506  0.1384
  135SAPE   H9R14614   2.563   7.729  10.040  0.5997  0.2776  0.4925
  135SAPE  C21014615   2.499   7.609   9.865  0.3211  0.4389  0.0590
  135SAPE  H10R14616   2.390   7.616   9.887 -0.0171 -0.6403 -1.1391
  135SAPE  H10S14617   2.501   7.508   9.819  2.0789  0.4889 -0.0432
  135SAPE  C21114618   2.536   7.709   9.757 -0.0206 -0.5370 -0.3920
  135SAPE  H11R14619   2.617   7.782   9.773 -0.8428  0.9737 -2.6401
  135SAPE  C21214620   2.461   7.711   9.644  0.1023 -0.2881  0.0884
  135SAPE  H12R14621   2.475   7.796   9.575  1.3134 -0.1950  0.4354
  135SAPE  C21314622   2.344   7.623   9.622  0.3402 -0.3074 -0.3973
  135SAPE  H13R14623   2.259   7.674   9.673  0.3854 -1.8211  1.3121
  135SAPE  H13S14624   2.354   7.528   9.680 -2.2761 -0.8317 -0.6701
  135SAPE  C21414625   2.312   7.609   9.472  0.6010  0.7396 -0.5351
  135SAPE  H14R14626   2.219   7.664   9.451 -0.5569 -1.1403 -0.5740
  135SAPE  C21514627   2.378   7.563   9.366  0.0162  0.2638 -0.2201
  135SAPE  H15R14628   2.328   7.571   9.269 -2.4848 -0.4337  0.9487
  135SAPE  C21614629   2.512   7.496   9.371  0.7440  0.4155  0.5612
  135SAPE  H16R14630   2.546   7.475   9.475 -2.4430  0.0112  1.6477
  135SAPE  H16S14631   2.586   7.566   9.328 -1.0630  2.2611  0.2799
  135SAPE  C21714632   2.512   7.369   9.287  0.2148  0.3508  0.5950
  135SAPE  H17R14633   2.616   7.331   9.286  0.2587  0.4790  0.3428
  135SAPE  H17S14634   2.482   7.378   9.181  0.7782 -3.4012 -0.0184
  135SAPE  C21814635   2.420   7.256   9.343 -0.0091 -0.0583 -0.2711
  135SAPE  H18R14636   2.315   7.291   9.357 -0.0564  0.7308 -2.3515
  135SAPE  H18S14637   2.441   7.229   9.449  1.3564  1.2240 -0.1808
  135SAPE  C21914638   2.423   7.132   9.260 -0.0810  1.0173 -0.6018
  135SAPE  H19R14639   2.366   7.145   9.166  0.3536 -1.9522 -1.3863
  135SAPE  H19S14640   2.357   7.062   9.316 -1.7070  3.4196  0.6205
  135SAPE  C22014641   2.566   7.075   9.238  0.0798  0.0176  0.5790
  135SAPE  H20R14642   2.546   6.968   9.215 -1.8550  0.2647  0.9613
  135SAPE  H20S14643   2.632   7.079   9.327  1.4485  1.2686 -0.4432
  135SAPE  H20T14644   2.624   7.131   9.161 -2.2686 -0.4460 -1.6592
  135SAPE   C3314645   3.673   7.228   9.977  0.2687  0.2207  0.3473
  135SAPE   H3X14646   3.570   7.213   9.940  0.6404  1.0024 -1.1017
  135SAPE   H3Y14647   3.725   7.130   9.980 -0.8101 -0.3460  3.0694
  135SAPE   C3414648   3.742   7.320   9.886 -0.0491  0.2576  0.6651
  135SAPE   H4X14649   3.844   7.338   9.924  0.4110  0.2198 -0.5098
  135SAPE   H4Y14650   3.696   7.421   9.877 -0.9704 -0.3732 -3.8086
  135SAPE   C3514651   3.739   7.274   9.735  0.1418 -0.3272  0.4035
  135SAPE   H5X14652   3.791   7.178   9.717 -0.8914 -0.6748 -0.8569
  135SAPE   H5Y14653   3.807   7.348   9.686 -0.2384 -0.2184  0.0403
  135SAPE   C3614654   3.599   7.267   9.662  0.1408  0.0196  0.2871
  135SAPE   H6X14655   3.545   7.356   9.702  3.0480  1.5934  1.0313
  135SAPE   H6Y14656   3.539   7.182   9.700 -1.9098  0.4004 -1.8685
  135SAPE   C3714657   3.607   7.260   9.512 -0.2485  0.1029 -0.9426
  135SAPE   H7X14658   3.674   7.335   9.464  1.2638 -1.1135 -0.8065
  135SAPE   H7Y14659   3.503   7.263   9.473 -0.2916 -2.3558 -1.1518
  135SAPE   C3814660   3.672   7.128   9.464 -0.5547 -0.3347  0.7259
  135SAPE   H8X14661   3.598   7.052   9.498 -0.9512  0.6234  2.0875
  135SAPE   H8Y14662   3.770   7.122   9.517  0.8766  4.8408 -0.7518
  135SAPE   C3914663   3.680   7.110   9.314  0.1905  0.0109  0.3922
  135SAPE   H9X14664   3.704   7.008   9.278  0.8864  0.4535 -0.4088
  135SAPE   H9Y14665   3.757   7.179   9.274 -3.4897  1.8050 -4.6134
  135SAPE  C31014666   3.562   7.172   9.238  0.3664 -0.1602  0.2127
  135SAPE  H10X14667   3.550   7.282   9.249 -0.4470  0.0950 -2.4118
  135SAPE  H10Y14668   3.474   7.121   9.281  0.4563  0.1241  0.7350
  135SAPE  C31114669   3.576   7.140   9.090 -0.0051 -0.0416 -0.0355
  135SAPE  H11X14670   3.546   7.034   9.083  1.9285 -0.6015 -0.4465
  135SAPE  H11Y14671   3.682   7.145   9.056  0.2825 -2.1216  0.4647
  135SAPE  C31214672   3.493   7.230   8.999 -0.2671  0.6450 -0.0711
  135SAPE  H12X14673   3.489   7.170   8.906 -0.8677 -2.4079  1.8077
  135SAPE  H12Y14674   3.533   7.329   8.967  0.3746 -0.2872 -2.2895
  135SAPE  C31314675   3.353   7.241   9.051  0.5321  0.5107 -0.2573
  135SAPE  H13X14676   3.363   7.304   9.141  0.0831  0.4746 -0.1785
  135SAPE  H13Y14677   3.323   7.137   9.080  0.8307 -0.0081 -1.7083
  135SAPE  C31414678   3.248   7.277   8.941 -0.0819  0.3784 -0.3243
  135SAPE  H14X14679   3.262   7.194   8.868  0.4484 -1.6351  1.9403
  135SAPE  H14Y14680   3.274   7.371   8.887  4.5057 -0.5286 -0.0752
  135SAPE  C31514681   3.114   7.284   8.999  0.3732 -0.1553 -0.4217
  135SAPE  H15X14682   3.112   7.369   9.071 -1.4071 -0.8694  0.4268
  135SAPE  H15Y14683   3.090   7.191   9.055 -0.6225 -1.5622 -3.0551
  135SAPE  C31614684   2.997   7.308   8.893 -0.4999  0.3239 -0.4041
  135SAPE  H16X14685   3.018   7.233   8.814  2.1445  0.6548 -0.1319
  135SAPE  H16Y14686   3.007   7.404   8.838  0.3922  0.7170  0.4013
  135SAPE  C31714687   2.857   7.313   8.949 -0.1079 -0.2364 -0.0538
  135SAPE  H17X14688   2.845   7.232   9.025 -0.0045  0.9705  1.2799
  135SAPE  H17Y14689   2.777   7.293   8.875  0.8723 -0.0881 -1.1774
  135SAPE  C31814690   2.826   7.449   9.009  0.6343 -0.1992 -0.2651
  135SAPE  H18X14691   2.821   7.530   8.933 -0.3618 -1.4298 -1.5691
  135SAPE  H18Y14692   2.914   7.471   9.072  0.4408  1.0370 -0.3871
  135SAPE  H18Z14693   2.728   7.457   9.061 -0.2341  0.9959 -1.9474
  136SAPE     N14694   5.699   5.737  10.871  0.0877  0.3792  0.6559
  136SAPE   HN114695   5.654   5.652  10.910 -0.6573  0.4995  0.0721
  136SAPE   HN214696   5.797   5.707  10.850 -0.8154 -1.0552 -2.0877
  136SAPE   HN314697   5.691   5.808  10.946  0.7893  1.6548 -0.4171
  136SAPE   C1214698   5.634   5.774  10.739  0.3018  0.3493  0.1655
  136SAPE  H12A14699   5.529   5.797  10.764  1.0298  1.6374  2.2554
  136SAPE  H12B14700   5.643   5.688  10.668 -1.3163  0.8171 -0.6678
  136SAPE   C1114701   5.708   5.901  10.682  0.0445  0.5076  0.9622
  136SAPE  H11A14702   5.670   5.921  10.580  3.1671 -1.7441 -0.8326
  136SAPE  H11B14703   5.818   5.891  10.671  0.0391  1.5848 -0.2331
  136SAPE     P14704   5.558   6.101  10.770  0.4122 -0.0715  0.0596
  136SAPE   O1314705   5.442   6.016  10.761  0.2609  0.4032 -0.0523
  136SAPE   O1414706   5.557   6.194  10.884 -0.9265  0.2085  0.0073
  136SAPE   O1214707   5.687   6.014  10.764  0.2691  0.3697 -0.1088
  136SAPE   O1114708   5.561   6.196  10.645  0.2166 -0.6831 -0.1239
  136SAPE    C114709   5.693   6.225  10.588 -0.3334  0.0388 -0.3800
  136SAPE    HA14710   5.734   6.309  10.648  0.0746  0.2604 -0.9627
  136SAPE    HB14711   5.756   6.134  10.580 -1.6932 -0.8068 -2.4353
  136SAPE    C214712   5.684   6.279  10.435 -0.3878  0.1806 -0.0551
  136SAPE    HS14713   5.624   6.373  10.437 -1.2216 -0.3470 -0.0601
  136SAPE   O2114714   5.615   6.176  10.360 -0.4561  0.0894 -0.5302
  136SAPE   C2114715   5.494   6.201  10.333 -0.4429 -0.0444 -0.0295
  136SAPE   O2214716   5.424   6.294  10.367  0.8367 -0.2411  0.5190
  136SAPE   C2214717   5.446   6.094  10.239  0.4904 -0.4127 -0.5001
  136SAPE   H2R14718   5.528   6.062  10.171  0.9176 -0.1511 -0.1108
  136SAPE   H2S14719   5.409   6.012  10.305 -1.4138  1.5227  0.9902
  136SAPE    C314720   5.824   6.311  10.377  0.4621 -0.1403  0.2976
  136SAPE    HX14721   5.894   6.232  10.411  0.1323 -0.1744  0.9027
  136SAPE    HY14722   5.862   6.404  10.424  1.9467  0.9892 -2.8495
  136SAPE   O3114723   5.822   6.324  10.235  0.4185 -0.1149 -0.2263
  136SAPE   C3114724   5.873   6.222  10.166 -0.2537  0.0151  0.1036
  136SAPE   O3214725   5.932   6.126  10.205 -0.0195  0.4912  0.3005
  136SAPE   C3214726   5.803   6.217  10.031  0.1071 -0.3075 -0.0313
  136SAPE   H2X14727   5.748   6.312  10.014  1.1493 -0.0380 -2.2895
  136SAPE   H2Y14728   5.737   6.128  10.023  1.0005 -1.0782  0.9055
  136SAPE   C2314729   5.330   6.138  10.148 -0.1819  0.6817  0.3509
  136SAPE   H3R14730   5.240   6.176  10.202 -0.3667  2.0322 -0.8666
  136SAPE   H3S14731   5.304   6.042  10.099  0.1591  1.3607 -1.2100
  136SAPE   C2414732   5.381   6.241  10.045  0.0464 -0.4381  0.5547
  136SAPE   H4R14733   5.485   6.216  10.014 -0.6217  0.3678 -2.6796
  136SAPE   H4S14734   5.405   6.337  10.096 -0.1460  1.1679 -2.1904
  136SAPE   C2514735   5.300   6.262   9.916 -0.4892 -0.0291 -0.7682
  136SAPE   H5R14736   5.214   6.328   9.936  1.4467  1.9951  1.4390
  136SAPE   C2614737   5.326   6.220   9.797 -0.0604 -0.2782 -0.3532
  136SAPE   H6R14738   5.259   6.258   9.718  2.7047  1.7365 -1.9263
  136SAPE   C2714739   5.435   6.127   9.749  0.2584 -0.2673  0.6034
  136SAPE   H7R14740   5.508   6.103   9.830  2.0866 -1.2279 -1.2380
  136SAPE   H7S14741   5.492   6.178   9.668  1.6832 -1.0069  1.0939
  136SAPE   C2814742   5.381   5.997   9.700  0.6068  0.4685  1.0352
  136SAPE   H8R14743   5.340   5.938   9.783 -0.3311  0.3414  0.4971
  136SAPE   C2914744   5.399   5.938   9.580 -0.1469  0.0590  0.6157
  136SAPE   H9R14745   5.343   5.847   9.554  0.9957 -1.3729  2.9074
  136SAPE  C21014746   5.472   5.988   9.455 -0.2783 -0.1760 -0.4896
  136SAPE  H10R14747   5.565   5.928   9.451 -1.0477 -1.3153 -1.8468
  136SAPE  H10S14748   5.510   6.091   9.473 -1.4557  0.4895 -1.7090
  136SAPE  C21114749   5.397   5.990   9.327 -0.0019  0.2508  0.4256
  136SAPE  H11R14750   5.308   5.928   9.313 -1.5783  2.9707 -3.2716
  136SAPE  C21214751   5.431   6.074   9.225 -0.8188  0.0519  0.2274
  136SAPE  H12R14752   5.364   6.077   9.137 -0.1402  1.9420 -0.2621
  136SAPE  C21314753   5.550   6.162   9.229 -0.2055  0.2237  0.8300
  136SAPE  H13R14754   5.616   6.138   9.315 -0.4218 -0.1735  0.8901
  136SAPE  H13S14755   5.518   6.266   9.250  0.0540  0.4307  0.2227
  136SAPE  C21414756   5.640   6.158   9.106  0.2151 -0.1727 -0.5895
  136SAPE  H14R14757   5.666   6.057   9.071 -3.4382 -1.0558 -1.1713
  136SAPE  C21514758   5.700   6.266   9.054  0.0275  0.5623  0.1353
  136SAPE  H15R14759   5.766   6.239   8.970 -0.0621 -2.6483  0.9793
  136SAPE  C21614760   5.682   6.410   9.090 -0.9253 -0.3422 -0.6275
  136SAPE  H16R14761   5.781   6.461   9.091 -0.9173 -0.3559  0.9940
  136SAPE  H16S14762   5.644   6.413   9.194  5.0684  0.2693  1.9620
  136SAPE  C21714763   5.592   6.489   9.000  0.8731  0.3497 -0.3989
  136SAPE  H17R14764   5.518   6.421   8.952  1.0017 -0.8587  1.0375
  136SAPE  H17S14765   5.655   6.536   8.922 -0.7398  0.9306 -1.3981
  136SAPE  C21814766   5.526   6.597   9.092 -0.7146  0.5535 -0.1197
  136SAPE  H18R14767   5.597   6.679   9.117 -0.8538  0.6050  0.1112
  136SAPE  H18S14768   5.495   6.545   9.184 -0.3213 -1.4709 -1.0770
  136SAPE  C21914769   5.415   6.676   9.030 -0.8375  0.5450 -0.1541
  136SAPE  H19R14770   5.338   6.603   8.996 -0.4828  0.9107 -1.8173
  136SAPE  H19S14771   5.458   6.726   8.941 -0.2884 -2.0908 -1.4734
  136SAPE  C22014772   5.360   6.776   9.124 -0.0038  0.0189 -0.4883
  136SAPE  H20R14773   5.280   6.831   9.071  0.1643  1.8846  1.0803
  136SAPE  H20S14774   5.436   6.852   9.153  2.6000 -2.2460 -0.8870
  136SAPE  H20T14775   5.316   6.732   9.216 -1.2635  0.2149 -0.9831
  136SAPE   C3314776   5.920   6.219   9.920 -0.2302  0.1267 -0.4551
  136SAPE   H3X14777   6.004   6.157   9.959 -1.1273 -0.6119  0.3719
  136SAPE   H3Y14778   5.947   6.325   9.905 -0.7222  0.5078  1.1330
  136SAPE   C3414779   5.873   6.158   9.790 -0.2141  0.0096 -0.6869
  136SAPE   H4X14780   5.781   6.208   9.751  0.4741  1.6347 -0.3347
  136SAPE   H4Y14781   5.845   6.052   9.807 -0.9144  0.3761  0.4752
  136SAPE   C3514782   5.980   6.158   9.680  0.0541 -0.4379 -0.0015
  136SAPE   H5X14783   6.062   6.086   9.701 -0.3569 -0.5611  1.2864
  136SAPE   H5Y14784   6.026   6.259   9.671  0.3899 -0.3708  1.9194
  136SAPE   C3614785   5.932   6.115   9.543 -0.2578  1.0225 -0.3986
  136SAPE   H6X14786   5.841   6.174   9.520 -1.2139 -0.6596 -1.1985
  136SAPE   H6Y14787   5.897   6.009   9.543 -0.0514  0.9540 -0.5262
  136SAPE   C3714788   6.035   6.145   9.434 -0.3768  0.0813  0.6497
  136SAPE   H7X14789   6.125   6.089   9.468 -0.4582  0.3823  1.3884
  136SAPE   H7Y14790   6.055   6.254   9.428 -0.0608  0.0010  0.2217
  136SAPE   C3814791   5.983   6.088   9.302 -0.0878 -0.2208 -0.4460
  136SAPE   H8X14792   5.872   6.086   9.296 -0.3433 -1.6111  2.7989
  136SAPE   H8Y14793   6.016   5.983   9.286  0.9887  0.2681 -1.6145
  136SAPE   C3914794   6.050   6.159   9.180  0.1753  0.2857 -0.2931
  136SAPE   H9X14795   6.159   6.159   9.198  0.0016  0.2013  0.8801
  136SAPE   H9Y14796   6.014   6.264   9.185  1.7972  0.8046  1.4291
  136SAPE  C31014797   6.020   6.092   9.046  0.3312 -0.2921 -0.3119
  136SAPE  H10X14798   5.915   6.115   9.018  0.7282 -0.1224 -1.7321
  136SAPE  H10Y14799   6.040   5.985   9.065  2.0719  0.0352 -0.0962
  136SAPE  C31114800   6.125   6.138   8.941 -0.0665 -0.3739 -0.1017
  136SAPE  H11X14801   6.224   6.104   8.979 -0.4346 -0.3964  0.8754
  136SAPE  H11Y14802   6.119   6.249   8.936  1.3939 -0.2770 -0.1731
  136SAPE  C31214803   6.108   6.071   8.801  0.0353 -0.5868  0.4757
  136SAPE  H12X14804   6.127   5.964   8.824 -1.4151 -1.2142 -1.0457
  136SAPE  H12Y14805   6.191   6.095   8.732  0.3270 -2.0832  0.2789
  136SAPE  C31314806   5.969   6.084   8.733  0.0952  0.1099 -0.2700
  136SAPE  H13X14807   5.900   6.038   8.808  3.3376 -2.7567  1.2373
  136SAPE  H13Y14808   5.967   6.027   8.638  1.0590 -0.5216  0.0777
  136SAPE  C31414809   5.942   6.239   8.694  0.7608  0.6287 -0.2574
  136SAPE  H14X14810   6.022   6.271   8.624  1.6592 -0.9048  0.0086
  136SAPE  H14Y14811   5.954   6.307   8.781 -1.9566  2.1175 -0.9340
  136SAPE  C31514812   5.804   6.254   8.627 -0.2100 -1.0293 -0.1129
  136SAPE  H15X14813   5.730   6.250   8.710 -1.3220 -4.0649 -1.1314
  136SAPE  H15Y14814   5.782   6.182   8.545 -1.8988  0.1235 -0.7165
  136SAPE  C31614815   5.775   6.397   8.571 -0.3005 -0.1594 -0.5008
  136SAPE  H16X14816   5.775   6.472   8.652 -3.0498 -0.2176 -0.3651
  136SAPE  H16Y14817   5.672   6.396   8.529  0.2824 -0.5757 -2.0000
  136SAPE  C31714818   5.877   6.438   8.467  0.0495  0.0172 -0.4020
  136SAPE  H17X14819   5.925   6.353   8.413 -1.2852 -0.6699 -0.5350
  136SAPE  H17Y14820   5.970   6.473   8.516  1.6579 -2.7157 -1.2379
  136SAPE  C31814821   5.817   6.541   8.370  0.3732  0.0289  0.3544
  136SAPE  H18X14822   5.737   6.493   8.310  2.0343  1.1564 -2.9773
  136SAPE  H18Y14823   5.892   6.576   8.296 -0.4316  1.0343 -0.0096
  136SAPE  H18Z14824   5.777   6.634   8.417 -0.9989 -1.5022  2.3971
  137SAPE     N14825   3.788   1.467  10.867 -0.6767  0.8309 -0.0655
  137SAPE   HN114826   3.851   1.483  10.948 -0.3476  0.9032 -0.3321
  137SAPE   HN214827   3.691   1.492  10.895 -1.3185 -0.2041 -1.2555
  137SAPE   HN314828   3.793   1.370  10.828  4.9850 -0.0368  1.8558
  137SAPE   C1214829   3.855   1.549  10.758  0.1772 -0.6199 -0.0713
  137SAPE  H12A14830   3.818   1.510  10.661  1.7921 -1.7437 -0.2706
  137SAPE  H12B14831   3.962   1.523  10.768  0.7333  0.8249 -1.6058
  137SAPE   C1114832   3.808   1.696  10.772 -0.0644  0.2417 -0.7345
  137SAPE  H11A14833   3.844   1.760  10.688  0.1475 -0.1658 -0.9578
  137SAPE  H11B14834   3.857   1.736  10.864  2.5384 -1.5658 -1.2206
  137SAPE     P14835   3.594   1.833  10.757  0.2669 -0.2348  0.2638
  137SAPE   O1314836   3.449   1.825  10.792 -0.6861 -0.4101 -0.2549
  137SAPE   O1414837   3.676   1.935  10.831 -0.5345  0.5571  0.0363
  137SAPE   O1214838   3.664   1.693  10.780  0.0116 -0.1260  0.7293
  137SAPE   O1114839   3.600   1.876  10.602 -0.1068  0.7753 -0.0352
  137SAPE    C114840   3.489   1.892  10.512  0.0380 -0.0167 -0.1733
  137SAPE    HA14841   3.393   1.890  10.568  0.4394  1.3709  0.6012
  137SAPE    HB14842   3.504   1.985  10.453 -2.6136  0.6672  0.1186
  137SAPE    C214843   3.481   1.778  10.402 -0.0475  0.5245 -0.5677
  137SAPE    HS14844   3.378   1.785  10.360 -0.4879 -0.2508  0.3394
  137SAPE   O2114845   3.509   1.643  10.462 -0.1844 -0.2224 -0.3318
  137SAPE   C2114846   3.401   1.593  10.523 -0.5538 -0.3677 -0.1367
  137SAPE   O2214847   3.289   1.642  10.534  0.2870 -0.8099  0.1079
  137SAPE   C2214848   3.425   1.452  10.576  0.4101  0.8948  0.0087
  137SAPE   H2R14849   3.505   1.453  10.653  1.7611  0.4538 -1.3412
  137SAPE   H2S14850   3.334   1.416  10.630  1.2242 -2.6231 -0.7762
  137SAPE    C314851   3.581   1.799  10.291  0.5836 -0.0011 -0.6131
  137SAPE    HX14852   3.560   1.717  10.219 -1.4237  2.3479 -2.8881
  137SAPE    HY14853   3.680   1.778  10.337  0.2223 -0.4779 -0.0292
  137SAPE   O3114854   3.568   1.927  10.231  0.2343  0.1147  0.2089
  137SAPE   C3114855   3.463   1.948  10.153  0.0517 -0.2394 -0.0941
  137SAPE   O3214856   3.405   1.858  10.096  1.1659  0.7266  0.2661
  137SAPE   C3214857   3.437   2.097  10.131  0.2928  0.0169  0.4912
  137SAPE   H2X14858   3.531   2.156  10.129  0.3206 -0.0432 -0.0979
  137SAPE   H2Y14859   3.379   2.130  10.220 -1.4947  1.5899 -1.1418
  137SAPE   C2314860   3.479   1.364  10.461 -0.2123  0.0122  0.1940
  137SAPE   H3R14861   3.490   1.263  10.506 -0.2239 -0.4000 -0.6905
  137SAPE   H3S14862   3.579   1.403  10.434 -0.3292  0.1203 -0.0916
  137SAPE   C2414863   3.390   1.347  10.337  0.2812 -0.4419  0.0984
  137SAPE   H4R14864   3.374   1.449  10.296  0.1489 -0.9924 -1.2591
  137SAPE   H4S14865   3.288   1.308  10.359 -0.8791  0.8808 -2.5117
  137SAPE   C2514866   3.446   1.254  10.235 -0.3394  0.1187  0.4625
  137SAPE   H5R14867   3.464   1.149  10.262  0.8969  0.0759 -0.4608
  137SAPE   C2614868   3.492   1.290  10.116 -0.0574 -0.5152 -0.3771
  137SAPE   H6R14869   3.535   1.223  10.041  0.5611  0.1105 -0.5954
  137SAPE   C2714870   3.488   1.429  10.058 -0.0344 -0.5966 -0.4162
  137SAPE   H7R14871   3.444   1.506  10.125 -1.0932 -2.1019  0.6963
  137SAPE   H7S14872   3.420   1.425   9.970  0.9757  0.6653 -1.2921
  137SAPE   C2814873   3.619   1.492  10.028 -0.4107 -0.0445  0.4099
  137SAPE   H8R14874   3.681   1.527  10.113 -2.0354  4.9913 -0.0962
  137SAPE   C2914875   3.651   1.542   9.903 -0.1633  0.7179 -0.4312
  137SAPE   H9R14876   3.749   1.587   9.881 -0.6406  1.4548 -1.1019
  137SAPE  C21014877   3.580   1.521   9.771  0.2455 -0.2637 -1.5662
  137SAPE  H10R14878   3.492   1.453   9.773  1.7697 -2.3419 -1.9150
  137SAPE  H10S14879   3.657   1.478   9.704 -0.4570 -2.1593 -1.2213
  137SAPE  C21114880   3.546   1.658   9.720 -1.1376  0.2177  0.1641
  137SAPE  H11R14881   3.530   1.732   9.799  1.7711 -0.3331  1.3858
  137SAPE  C21214882   3.526   1.685   9.589 -0.2747  0.1952  0.7621
  137SAPE  H12R14883   3.515   1.786   9.546  0.9532 -0.6304 -1.6854
  137SAPE  C21314884   3.535   1.575   9.485  0.1850  0.2097 -0.4406
  137SAPE  H13R14885   3.639   1.543   9.464  0.1762  0.9339 -1.6763
  137SAPE  H13S14886   3.500   1.625   9.392 -0.6571  0.5709  0.0568
  137SAPE  C21414887   3.444   1.453   9.503  1.0999 -0.4431  0.0567
  137SAPE  H14R14888   3.383   1.460   9.594  1.5741  0.7241  0.3009
  137SAPE  C21514889   3.436   1.342   9.427 -0.3908  0.5488 -0.0658
  137SAPE  H15R14890   3.371   1.268   9.474  2.6752 -1.5267  1.2227
  137SAPE  C21614891   3.511   1.322   9.299  0.4960  0.0312  0.4974
  137SAPE  H16R14892   3.538   1.215   9.294  2.1792  0.4606 -1.3984
  137SAPE  H16S14893   3.604   1.383   9.304  0.3222  0.2726  0.7968
  137SAPE  C21714894   3.430   1.348   9.171  0.1549  0.3401  0.1642
  137SAPE  H17R14895   3.406   1.455   9.157  0.4548  0.1957 -1.6714
  137SAPE  H17S14896   3.328   1.304   9.173 -0.3070  1.0517 -2.9638
  137SAPE  C21814897   3.501   1.297   9.040 -0.3929 -0.2687 -0.2660
  137SAPE  H18R14898   3.529   1.190   9.041  2.1691  0.3504  0.1463
  137SAPE  H18S14899   3.601   1.344   9.028  0.4242 -2.2220 -1.7502
  137SAPE  C21914900   3.409   1.303   8.910 -0.0673  0.4400  0.9039
  137SAPE  H19R14901   3.400   1.408   8.877  1.4302 -0.2093 -1.8640
  137SAPE  H19S14902   3.318   1.241   8.925  0.4427 -0.3454  0.8087
  137SAPE  C22014903   3.477   1.223   8.792 -0.1178  0.5869 -0.7480
  137SAPE  H20R14904   3.417   1.199   8.702 -1.0371  0.6206 -0.1503
  137SAPE  H20S14905   3.523   1.126   8.822 -0.4965  0.9441  1.0777
  137SAPE  H20T14906   3.565   1.280   8.752 -0.2590  1.8378  0.6465
  137SAPE   C3314907   3.342   2.144  10.012 -0.6304 -0.2744  0.3812
  137SAPE   H3X14908   3.297   2.243  10.036 -0.4293  0.4502 -1.9647
  137SAPE   H3Y14909   3.262   2.069   9.994 -0.6020 -0.1625 -0.2317
  137SAPE   C3414910   3.414   2.177   9.879 -0.3861 -0.9301  0.3676
  137SAPE   H4X14911   3.470   2.272   9.896 -4.0782  1.2330  1.4545
  137SAPE   H4Y14912   3.337   2.187   9.799 -0.5444 -3.1569  0.1699
  137SAPE   C3514913   3.506   2.070   9.818 -0.2572  0.2004  0.1830
  137SAPE   H5X14914   3.447   1.982   9.782  1.0744  0.6024 -3.4752
  137SAPE   H5Y14915   3.579   2.028   9.890  0.6624  0.2686 -0.6899
  137SAPE   C3614916   3.574   2.114   9.689 -0.4039  0.0486  0.3006
  137SAPE   H6X14917   3.632   2.023   9.661 -0.2352  0.7200 -1.6544
  137SAPE   H6Y14918   3.641   2.201   9.705 -2.2477  1.4282  0.9608
  137SAPE   C3714919   3.488   2.156   9.569 -0.2520  0.4411 -0.0056
  137SAPE   H7X14920   3.448   2.255   9.599 -0.9262 -0.1771  1.1771
  137SAPE   H7Y14921   3.405   2.084   9.552  0.9253 -0.8561 -0.4714
  137SAPE   C3814922   3.574   2.159   9.442 -0.5922  0.1594 -0.5092
  137SAPE   H8X14923   3.684   2.161   9.461 -0.6285  0.2352 -0.3095
  137SAPE   H8Y14924   3.564   2.263   9.404  0.4578  0.4993  0.0770
  137SAPE   C3914925   3.528   2.061   9.334  1.1044 -0.0309  0.0825
  137SAPE   H9X14926   3.418   2.077   9.328  1.1832  0.5768  0.2152
  137SAPE   H9Y14927   3.557   1.957   9.358  0.7312  0.1564  1.4439
  137SAPE  C31014928   3.580   2.096   9.199 -0.7187 -0.1653  0.2477
  137SAPE  H10X14929   3.685   2.058   9.194 -0.0814  1.4099  0.9731
  137SAPE  H10Y14930   3.598   2.205   9.195 -0.0752 -0.2698  0.0883
  137SAPE  C31114931   3.501   2.048   9.080  0.0261  0.4217  0.4125
  137SAPE  H11X14932   3.394   2.066   9.106  0.5425 -0.5117  3.6870
  137SAPE  H11Y14933   3.510   1.939   9.065 -3.6996 -0.2157  1.7227
  137SAPE  C31214934   3.530   2.123   8.954  0.1877  0.1540  0.3725
  137SAPE  H12X14935   3.508   2.232   8.960 -0.7583 -0.0459  0.5475
  137SAPE  H12Y14936   3.463   2.065   8.887  1.8444 -2.1618  0.6106
  137SAPE  C31314937   3.678   2.110   8.903 -0.0481  0.2015 -0.1935
  137SAPE  H13X14938   3.699   2.009   8.861 -0.2963 -0.1169  0.4375
  137SAPE  H13Y14939   3.744   2.125   8.991 -1.3907  0.5662  0.7755
  137SAPE  C31414940   3.718   2.214   8.801  0.4768  0.0203  0.2739
  137SAPE  H14X14941   3.687   2.311   8.846  1.4206  0.9894 -1.0908
  137SAPE  H14Y14942   3.656   2.203   8.710  0.4951  0.6861  0.1746
  137SAPE  C31514943   3.869   2.224   8.774  0.2125 -0.6871  0.1768
  137SAPE  H15X14944   3.909   2.131   8.728 -1.1012 -0.5762 -1.2361
  137SAPE  H15Y14945   3.921   2.244   8.870  1.4657  3.5808 -1.1812
  137SAPE  C31614946   3.905   2.347   8.692  0.1118  0.0201  0.9100
  137SAPE  H16X14947   4.012   2.372   8.711  0.3102  0.7472 -0.9818
  137SAPE  H16Y14948   3.839   2.428   8.731 -1.2276 -1.1264  1.0796
  137SAPE  C31714949   3.886   2.336   8.542  0.3418 -0.3144  0.5155
  137SAPE  H17X14950   3.779   2.308   8.531  1.0680 -3.1174 -0.1739
  137SAPE  H17Y14951   3.947   2.256   8.495 -0.4589 -0.6306 -0.0094
  137SAPE  C31814952   3.921   2.466   8.463 -0.0603  0.4625 -0.0290
  137SAPE  H18X14953   3.898   2.459   8.355 -1.8643  1.9061  0.2073
  137SAPE  H18Y14954   4.028   2.485   8.485 -0.9342  2.3918  3.3935
  137SAPE  H18Z14955   3.855   2.545   8.505  0.5967  1.3091 -0.5657
  138SAPE     N14956   1.017   3.393  10.467  0.1008 -0.0554 -0.2512
  138SAPE   HN114957   1.102   3.423  10.518 -0.5414  3.0365 -0.7857
  138SAPE   HN214958   1.028   3.298  10.427  1.6745  0.1321 -0.3056
  138SAPE   HN314959   0.995   3.457  10.388  3.3355  0.0338 -1.2178
  138SAPE   C1214960   0.901   3.390  10.558  1.0133 -0.1226 -0.5582
  138SAPE  H12A14961   0.905   3.474  10.631  0.7529  0.5150 -1.2598
  138SAPE  H12B14962   0.890   3.295  10.614 -0.8420  1.4272  1.9550
  138SAPE   C1114963   0.775   3.403  10.464  0.6348  0.0270 -0.8220
  138SAPE  H11A14964   0.693   3.349  10.516  1.4723 -1.3990 -0.9119
  138SAPE  H11B14965   0.787   3.348  10.368 -2.3412 -1.7413 -0.3214
  138SAPE     P14966   0.660   3.612  10.544 -0.0947 -0.0487  0.1647
  138SAPE   O1314967   0.690   3.574  10.678 -0.4474  0.0897 -0.1716
  138SAPE   O1414968   0.674   3.758  10.523 -0.8985 -0.2521  0.8680
  138SAPE   O1214969   0.752   3.541  10.440 -0.2314 -0.3026 -0.1228
  138SAPE   O1114970   0.510   3.580  10.517  0.1321 -0.1497 -0.3046
  138SAPE    C114971   0.461   3.515  10.402  0.2931  1.0512  0.2563
  138SAPE    HA14972   0.528   3.433  10.369 -2.1094 -1.5471  1.4182
  138SAPE    HB14973   0.366   3.463  10.426  1.0462 -0.5733 -0.1582
  138SAPE    C214974   0.419   3.608  10.283  0.4458 -0.4709  0.7233
  138SAPE    HS14975   0.350   3.543  10.226  0.2296 -1.6420  2.2394
  138SAPE   O2114976   0.534   3.643  10.210  0.1165  0.1163 -0.3974
  138SAPE   C2114977   0.582   3.557  10.122 -0.6126  0.1362 -0.0273
  138SAPE   O2214978   0.539   3.446  10.095 -0.4798 -0.5079  0.0544
  138SAPE   C2214979   0.703   3.623  10.057 -0.7079 -0.2914  0.2786
  138SAPE   H2R14980   0.668   3.706   9.991 -2.0963 -1.0701 -0.0238
  138SAPE   H2S14981   0.780   3.647  10.133  1.8272 -0.5629 -2.0578
  138SAPE    C314982   0.329   3.730  10.331  0.2740  0.0707 -0.7856
  138SAPE    HX14983   0.396   3.796  10.390  1.3141 -3.0003  1.7669
  138SAPE    HY14984   0.263   3.688  10.410 -0.3536 -0.2409 -1.4626
  138SAPE   O3114985   0.260   3.796  10.222  0.2313  0.1386  0.1981
  138SAPE   C3114986   0.160   3.725  10.169  0.4280 -0.3045 -0.5479
  138SAPE   O3214987   0.123   3.608  10.194  0.7176 -0.1223 -0.0317
  138SAPE   C3214988   0.074   3.809  10.078  0.9440  0.2466 -0.2170
  138SAPE   H2X14989   0.131   3.901  10.055 -0.7730  1.1537 -1.0386
  138SAPE   H2Y14990  -0.021   3.842  10.126  1.2529  0.8270  0.0129
  138SAPE   C2314991   0.770   3.522   9.954 -0.2127 -0.6898  0.1749
  138SAPE   H3R14992   0.800   3.424   9.999  0.3736 -0.7987 -0.4420
  138SAPE   H3S14993   0.860   3.575   9.918 -0.8603 -0.3487 -0.9831
  138SAPE   C2414994   0.687   3.483   9.835 -0.2825 -0.0360  0.4574
  138SAPE   H4R14995   0.617   3.401   9.863  0.8361 -2.1685 -2.4630
  138SAPE   H4S14996   0.751   3.428   9.763 -1.2172 -0.4277 -0.0851
  138SAPE   C2514997   0.608   3.593   9.763 -0.5629 -0.3510 -0.1394
  138SAPE   H5R14998   0.556   3.667   9.824 -0.7987 -0.1930 -0.5293
  138SAPE   C2614999   0.564   3.595   9.639 -0.5314 -0.0515  0.5419
  138SAPE   H6R15000   0.493   3.672   9.605 -0.4856  0.6313  1.9165
  138SAPE   C2715001   0.597   3.502   9.525 -0.1396 -0.4776  0.0753
  138SAPE   H7R15002   0.704   3.475   9.541 -0.5555 -1.7218  0.9291
  138SAPE   H7S15003   0.589   3.562   9.432  0.3253 -4.4628 -2.8232
  138SAPE   C2815004   0.531   3.373   9.511  0.5047  0.0421  0.3609
  138SAPE   H8R15005   0.475   3.336   9.598  1.1503 -1.8736  0.0189
  138SAPE   C2915006   0.540   3.297   9.403  0.0966 -0.3821  0.5320
  138SAPE   H9R15007   0.492   3.198   9.405  1.2466 -0.9450  1.5767
  138SAPE  C21015008   0.615   3.331   9.278 -0.0492  0.4054 -0.2081
  138SAPE  H10R15009   0.691   3.411   9.291  0.2529 -0.1759  2.1289
  138SAPE  H10S15010   0.547   3.352   9.193  0.1018 -1.2927 -0.8029
  138SAPE  C21115011   0.697   3.202   9.232 -0.1962  0.1212  0.0722
  138SAPE  H11R15012   0.750   3.148   9.312  1.2590  0.5522 -0.5641
  138SAPE  C21215013   0.724   3.158   9.108 -0.1529  0.4196 -0.5441
  138SAPE  H12R15014   0.781   3.065   9.095 -1.4892 -0.5791  0.4771
  138SAPE  C21315015   0.690   3.228   8.981 -0.1816 -0.4549  0.3562
  138SAPE  H13R15016   0.612   3.305   9.001 -0.5522 -0.4745 -0.9505
  138SAPE  H13S15017   0.619   3.169   8.919 -1.6758 -0.0697  1.6328
  138SAPE  C21415018   0.815   3.274   8.896 -0.0196  0.0425 -0.7371
  138SAPE  H14R15019   0.816   3.384   8.895  0.7737  0.0924  1.2890
  138SAPE  C21515020   0.910   3.198   8.836  0.1890 -0.4376  0.6739
  138SAPE  H15R15021   0.990   3.241   8.775  0.8566 -1.3922  0.8660
  138SAPE  C21615022   0.905   3.048   8.847 -0.2690  0.3049 -0.1572
  138SAPE  H16R15023   0.822   3.006   8.907 -0.4837  1.5722  0.4480
  138SAPE  H16S15024   1.001   3.001   8.880  0.4767  3.0805  2.0351
  138SAPE  C21715025   0.872   2.975   8.711 -0.0501 -0.6265 -0.0597
  138SAPE  H17R15026   0.840   2.872   8.736  0.7435 -0.9245 -0.2563
  138SAPE  H17S15027   0.962   2.968   8.646  0.9837  1.7843  0.9679
  138SAPE  C21815028   0.758   3.043   8.627 -0.6021 -0.1376  0.2779
  138SAPE  H18R15029   0.796   3.143   8.594 -0.7974 -1.4709 -4.8808
  138SAPE  H18S15030   0.667   3.066   8.686  0.4935  0.9226  1.6178
  138SAPE  C21915031   0.721   2.957   8.505  0.2834 -0.7629  0.5773
  138SAPE  H19R15032   0.704   2.849   8.528  2.2405 -0.8761  1.7578
  138SAPE  H19S15033   0.809   2.952   8.437  2.2720  0.5997  2.8795
  138SAPE  C22015034   0.597   3.009   8.428 -0.4061  0.2055  0.3250
  138SAPE  H20R15035   0.501   2.980   8.475  0.4359  0.0791  2.0673
  138SAPE  H20S15036   0.604   2.965   8.327  0.7832 -1.3614  1.0473
  138SAPE  H20T15037   0.600   3.118   8.406  2.1876  0.3113  0.8531
  138SAPE   C3315038   0.040   3.741   9.946 -0.5372 -0.8443  0.4946
  138SAPE   H3X15039  -0.036   3.799   9.890  0.6086 -1.5929 -1.9680
  138SAPE   H3Y15040   0.010   3.636   9.970  0.3026 -1.0096  0.8588
  138SAPE   C3415041   0.152   3.721   9.841  0.2768 -0.0253  0.1882
  138SAPE   H4X15042   0.227   3.656   9.891 -0.4076 -2.1236 -1.3265
  138SAPE   H4Y15043   0.205   3.816   9.822  3.5385 -1.2443  2.2760
  138SAPE   C3515044   0.095   3.658   9.712 -0.2130 -0.1588 -0.2257
  138SAPE   H5X15045   0.014   3.729   9.683 -1.0231 -0.2850  1.5879
  138SAPE   H5Y15046   0.036   3.566   9.729  0.9162 -1.0915 -1.1990
  138SAPE   C3615047   0.203   3.654   9.609 -0.7234  1.1008  0.1767
  138SAPE   H6X15048   0.279   3.582   9.647 -1.1552  0.8343  0.5568
  138SAPE   H6Y15049   0.237   3.760   9.612 -2.0909  1.5621  3.4244
  138SAPE   C3715050   0.149   3.615   9.469 -0.4747  0.0944  0.3076
  138SAPE   H7X15051   0.070   3.691   9.448 -0.0536  0.7475  1.0337
  138SAPE   H7Y15052   0.103   3.514   9.473 -0.3010 -0.0013 -0.0769
  138SAPE   C3815053   0.255   3.623   9.356 -0.3457  0.5498 -0.1176
  138SAPE   H8X15054   0.335   3.547   9.368 -0.4911  0.4905  0.5005
  138SAPE   H8Y15055   0.304   3.722   9.354 -0.4368  0.6017  0.1821
  138SAPE   C3915056   0.213   3.588   9.214  0.2968  0.6588 -0.1822
  138SAPE   H9X15057   0.133   3.662   9.195 -0.9988 -0.7934 -0.6736
  138SAPE   H9Y15058   0.165   3.488   9.211  1.1026  0.2723 -0.7763
  138SAPE  C31015059   0.332   3.601   9.113  0.0311  0.0381 -0.2729
  138SAPE  H10X15060   0.407   3.535   9.161  1.8687  1.8729 -0.5000
  138SAPE  H10Y15061   0.367   3.706   9.114 -1.4565  0.6671 -2.9384
  138SAPE  C31115062   0.315   3.543   8.969 -0.4958 -0.3697 -0.3537
  138SAPE  H11X15063   0.217   3.579   8.930  0.3529  0.3023 -1.9672
  138SAPE  H11Y15064   0.313   3.433   8.984 -2.9891 -0.4353 -0.7050
  138SAPE  C31215065   0.422   3.580   8.867  0.1330 -0.3769  0.8612
  138SAPE  H12X15066   0.525   3.565   8.907  0.4817  0.7005  0.4174
  138SAPE  H12Y15067   0.405   3.688   8.848 -0.7406 -0.1342  2.7988
  138SAPE  C31315068   0.418   3.493   8.740  0.4740 -0.5343  0.0919
  138SAPE  H13X15069   0.443   3.387   8.762 -0.3248 -0.9802 -1.0278
  138SAPE  H13Y15070   0.496   3.530   8.670  1.3909 -0.0196  1.3430
  138SAPE  C31415071   0.279   3.493   8.663  0.1963  0.3367  0.1600
  138SAPE  H14X15072   0.246   3.598   8.650  1.7306  1.2020  2.5444
  138SAPE  H14Y15073   0.198   3.438   8.718 -0.3605  0.0579 -0.9119
  138SAPE  C31515074   0.288   3.433   8.519 -0.2519 -0.8203 -0.5545
  138SAPE  H15X15075   0.370   3.485   8.465 -1.8151  0.9054 -1.3767
  138SAPE  H15Y15076   0.196   3.469   8.468 -1.2412 -1.2879  0.8183
  138SAPE  C31615077   0.317   3.287   8.505  0.5310  0.6792  0.4731
  138SAPE  H16X15078   0.399   3.254   8.573 -0.1972 -0.5994  0.7795
  138SAPE  H16Y15079   0.351   3.280   8.399 -0.1264  1.5028  0.2081
  138SAPE  C31715080   0.203   3.202   8.538  0.5889 -0.1844 -0.6851
  138SAPE  H17X15081   0.173   3.235   8.639 -0.5895 -2.5417 -0.1900
  138SAPE  H17Y15082   0.227   3.095   8.553 -3.1365 -1.3125 -1.7696
  138SAPE  C31815083   0.084   3.218   8.444  0.2395 -0.1278  0.6709
  138SAPE  H18X15084   0.050   3.320   8.417 -0.5417 -0.2091  1.3023
  138SAPE  H18Y15085  -0.008   3.182   8.495 -0.7388  1.3228 -0.0054
  138SAPE  H18Z15086   0.103   3.157   8.353  0.1558 -0.1343  0.6584
  139SAPE     N15087   6.632   0.662  10.532 -0.0076  0.2927  0.6416
  139SAPE   HN115088   6.731   0.642  10.559  0.1776  1.3100  0.7279
  139SAPE   HN215089   6.638   0.746  10.472 -0.4566 -2.3581 -3.5570
  139SAPE   HN315090   6.561   0.676  10.607 -0.9012  4.1542 -0.7483
  139SAPE   C1215091   6.582   0.548  10.442  0.1593  0.0563 -0.2534
  139SAPE  H12A15092   6.475   0.566  10.418 -0.7473 -1.4037  2.3249
  139SAPE  H12B15093   6.579   0.453  10.501 -0.4603 -0.8725 -1.7335
  139SAPE   C1115094   6.662   0.548  10.313  0.0941  0.3531  0.2082
  139SAPE  H11A15095   6.643   0.627  10.238  0.9424 -1.2197 -1.7606
  139SAPE  H11B15096   6.625   0.452  10.270  0.9167  0.0530  0.1496
  139SAPE     P15097   6.895   0.442  10.258 -0.0202 -0.0572 -0.2378
  139SAPE   O1315098   6.929   0.505  10.133  0.4004 -0.3919  0.6823
  139SAPE   O1415099   7.006   0.402  10.343 -0.1021  0.4132  0.3740
  139SAPE   O1215100   6.802   0.540  10.343 -0.2341 -0.0570  0.7000
  139SAPE   O1115101   6.803   0.320  10.224 -0.2167  0.1262 -0.0250
  139SAPE    C115102   6.853   0.201  10.170 -0.2704 -1.0924  0.1839
  139SAPE    HA15103   6.961   0.211  10.148 -0.6227  0.4768 -0.9895
  139SAPE    HB15104   6.848   0.120  10.246  2.6329 -0.7943  0.8387
  139SAPE    C215105   6.765   0.151  10.046 -0.3244  0.5787  0.6899
  139SAPE    HS15106   6.820   0.059  10.016  0.3270  1.3802 -0.7020
  139SAPE   O2115107   6.757   0.244   9.932 -0.0165 -0.2662 -0.0075
  139SAPE   C2115108   6.865   0.257   9.872 -0.0481  0.2724  0.2980
  139SAPE   O2215109   6.964   0.188   9.884  0.6506 -0.4084 -0.3987
  139SAPE   C2215110   6.856   0.365   9.771  0.3556 -0.6497 -0.4560
  139SAPE   H2R15111   6.777   0.442   9.788  0.6114 -0.1537 -1.4672
  139SAPE   H2S15112   6.957   0.412   9.774  0.1174 -0.1566  0.4771
  139SAPE    C315113   6.627   0.111  10.094  0.2700 -0.9651  0.3667
  139SAPE    HX15114   6.579   0.204  10.129  0.8268 -0.2934 -0.5963
  139SAPE    HY15115   6.645   0.038  10.176  3.0585 -0.5638  0.2218
  139SAPE   O3115116   6.566   0.027   9.995  0.0183  0.0748 -0.2567
  139SAPE   C3115117   6.477   0.094   9.919  0.5518 -0.0023 -0.2896
  139SAPE   O3215118   6.415   0.194   9.954  0.1332  0.4719 -0.6751
  139SAPE   C3215119   6.448   0.019   9.791  0.1611 -0.5173  0.3647
  139SAPE   H2X15120   6.375  -0.057   9.824 -0.4224 -0.8576 -1.5999
  139SAPE   H2Y15121   6.541  -0.036   9.763 -0.6162 -1.8338  0.3185
  139SAPE   C2315122   6.836   0.302   9.633 -0.1744 -0.2314  0.0637
  139SAPE   H3R15123   6.732   0.268   9.618  0.4335 -2.2129  0.0920
  139SAPE   H3S15124   6.887   0.204   9.625 -0.4333 -0.3756  0.1762
  139SAPE   C2415125   6.890   0.386   9.517  0.7318  0.2781  0.6446
  139SAPE   H4R15126   6.842   0.486   9.511  1.1058  0.3589 -1.9046
  139SAPE   H4S15127   6.867   0.328   9.425  2.5937 -0.4418  0.5846
  139SAPE   C2515128   7.042   0.397   9.529 -0.1699 -0.1762 -0.0083
  139SAPE   H5R15129   7.083   0.299   9.556  1.7371  0.6028  0.0792
  139SAPE   C2615130   7.115   0.504   9.495 -0.3710  0.4302  0.0995
  139SAPE   H6R15131   7.220   0.499   9.529 -0.1071  2.6711 -0.2506
  139SAPE   C2715132   7.071   0.636   9.447  0.1200 -0.5989  0.3173
  139SAPE   H7R15133   7.022   0.622   9.348  0.7677  1.0836 -0.2664
  139SAPE   H7S15134   7.162   0.693   9.420 -0.0915 -0.4454 -0.0736
  139SAPE   C2815135   6.987   0.699   9.550 -0.0249 -0.1816  0.2908
  139SAPE   H8R15136   6.966   0.632   9.635  4.4115 -1.9528  0.2700
  139SAPE   C2915137   6.943   0.824   9.540 -0.5793  0.2860 -0.5442
  139SAPE   H9R15138   6.890   0.870   9.624 -0.1937  0.9185 -0.6437
  139SAPE  C21015139   6.964   0.920   9.428  0.0379 -0.3749  0.0266
  139SAPE  H10R15140   6.885   0.886   9.357 -0.2788  0.3156  0.0438
  139SAPE  H10S15141   7.056   0.893   9.371 -1.7366 -3.6232 -1.5633
  139SAPE  C21115142   6.948   1.069   9.456 -0.0979 -0.6257 -0.7708
  139SAPE  H11R15143   6.920   1.095   9.559  2.0463  0.6673 -0.4565
  139SAPE  C21215144   6.970   1.167   9.369  0.3845 -0.2132 -0.4173
  139SAPE  H12R15145   6.964   1.268   9.412  2.6541 -1.0141  2.0808
  139SAPE  C21315146   7.011   1.167   9.224 -0.1962  0.0618 -0.0616
  139SAPE  H13R15147   6.958   1.078   9.184  0.9453 -0.5615 -0.2420
  139SAPE  H13S15148   7.118   1.136   9.219 -0.2956 -0.1483 -1.4518
  139SAPE  C21415149   6.984   1.296   9.154  0.2908 -0.2539  0.6148
  139SAPE  H14R15150   7.035   1.385   9.193  0.6203 -0.6523  1.1113
  139SAPE  C21515151   6.914   1.299   9.036  0.3270  0.2255 -0.3044
  139SAPE  H15R15152   6.893   1.395   8.986 -2.1519 -1.6513 -3.2462
  139SAPE  C21615153   6.855   1.179   8.967 -0.6141 -0.8696  0.0333
  139SAPE  H16R15154   6.772   1.211   8.901  0.0949  1.1617  0.0462
  139SAPE  H16S15155   6.810   1.104   9.036 -1.1161 -0.2685  0.3649
  139SAPE  C21715156   6.961   1.102   8.883  0.1824 -0.6492 -0.7658
  139SAPE  H17R15157   7.049   1.094   8.950  0.4029  2.1589 -0.6041
  139SAPE  H17S15158   6.978   1.172   8.798 -0.2480 -1.9342 -1.9535
  139SAPE  C21815159   6.909   0.961   8.842  0.4377 -0.7609  0.0420
  139SAPE  H18R15160   6.855   0.917   8.928 -0.2091  2.3278  1.3853
  139SAPE  H18S15161   6.997   0.894   8.833  1.0530  0.1110 -0.5784
  139SAPE  C21915162   6.809   0.970   8.722 -0.2346 -0.2260  0.1325
  139SAPE  H19R15163   6.715   1.018   8.758 -0.2260  0.3644 -0.6070
  139SAPE  H19S15164   6.795   0.864   8.692  0.6235 -0.1453 -0.6088
  139SAPE  C22015165   6.866   1.043   8.595  0.4937  0.5348 -0.8169
  139SAPE  H20R15166   6.801   1.032   8.506 -0.0253  1.2278 -0.5401
  139SAPE  H20S15167   6.965   0.994   8.579  0.6788  0.8144 -0.5506
  139SAPE  H20T15168   6.878   1.149   8.629  1.5222  0.3242 -0.4702
  139SAPE   C3315169   6.397   0.112   9.679 -0.6698 -0.9396 -0.3410
  139SAPE   H3X15170   6.463   0.201   9.684 -0.0863 -1.4287  0.7550
  139SAPE   H3Y15171   6.294   0.143   9.706  0.3806  2.0870  0.5761
  139SAPE   C3415172   6.399   0.052   9.536  0.7229 -0.3717 -0.3284
  139SAPE   H4X15173   6.344   0.113   9.461 -0.9652 -0.9104  0.4072
  139SAPE   H4Y15174   6.345  -0.045   9.533  1.0119 -0.5485  0.1011
  139SAPE   C3515175   6.542   0.046   9.481  0.1933  0.1922 -0.5080
  139SAPE   H5X15176   6.612  -0.030   9.522  1.6416  1.7018 -0.0875
  139SAPE   H5Y15177   6.586   0.145   9.505 -0.1287  0.3844 -0.7075
  139SAPE   C3615178   6.539   0.017   9.328  0.8193 -0.8165 -0.1192
  139SAPE   H6X15179   6.493  -0.083   9.310 -0.3545 -0.4403  0.7048
  139SAPE   H6Y15180   6.648   0.011   9.306  1.0173  1.2620  0.1288
  139SAPE   C3715181   6.494   0.116   9.236 -0.1182 -0.4672  0.1486
  139SAPE   H7X15182   6.556   0.208   9.226 -0.9411  0.1744  0.7962
  139SAPE   H7Y15183   6.393   0.160   9.254  0.0162  0.5685 -1.4159
  139SAPE   C3815184   6.481   0.057   9.090 -0.2329 -0.2295 -0.4994
  139SAPE   H8X15185   6.414   0.129   9.038 -1.7867 -0.4764  1.0565
  139SAPE   H8Y15186   6.443  -0.047   9.092 -0.7258 -0.0661 -1.0557
  139SAPE   C3915187   6.603   0.052   8.998 -0.4538  0.0747  0.5360
  139SAPE   H9X15188   6.677  -0.010   9.053 -0.3675 -0.3512 -0.0554
  139SAPE   H9Y15189   6.647   0.154   9.005  3.2249 -1.4172  1.4227
  139SAPE  C31015190   6.573  -0.007   8.855 -0.0983 -0.3278  0.0458
  139SAPE  H10X15191   6.485   0.056   8.828  1.3307  0.9476 -1.9049
  139SAPE  H10Y15192   6.538  -0.112   8.864 -0.8365 -0.0740  0.2717
  139SAPE  C31115193   6.693   0.010   8.757  0.1482  0.1134 -0.1437
  139SAPE  H11X15194   6.687  -0.061   8.671  0.0595 -0.4519  0.3227
  139SAPE  H11Y15195   6.789  -0.009   8.811  1.3937  0.8204 -2.0144
  139SAPE  C31215196   6.703   0.156   8.701  0.1081 -0.0157 -0.5818
  139SAPE  H12X15197   6.811   0.177   8.682  0.3351  0.5849  1.1700
  139SAPE  H12Y15198   6.667   0.219   8.785  0.3189  0.2824 -0.7122
  139SAPE  C31315199   6.619   0.181   8.576  0.1908  0.2023 -0.0091
  139SAPE  H13X15200   6.612   0.290   8.553 -2.9795  0.4149  1.4212
  139SAPE  H13Y15201   6.514   0.146   8.582  0.3643 -0.2465  0.4401
  139SAPE  C31415202   6.682   0.088   8.466 -0.3144  0.2582  0.3952
  139SAPE  H14X15203   6.659  -0.019   8.481  1.5373 -0.2083  0.1207
  139SAPE  H14Y15204   6.791   0.092   8.485 -0.2322 -1.8006  0.5931
  139SAPE  C31515205   6.653   0.133   8.321 -0.7406 -0.4464 -0.2099
  139SAPE  H15X15206   6.633   0.242   8.309  1.7703  0.0846 -0.1268
  139SAPE  H15Y15207   6.559   0.083   8.288 -0.1458 -1.3336 -0.5973
  139SAPE  C31615208   6.759   0.098   8.217 -0.1935  0.3229  0.4656
  139SAPE  H16X15209   6.849   0.153   8.250  1.3941 -2.7410  1.6967
  139SAPE  H16Y15210   6.801  -0.004   8.228  1.8229  0.8907 -1.3182
  139SAPE  C31715211   6.726   0.136   8.070 -0.5757  1.1852 -0.4631
  139SAPE  H17X15212   6.639   0.074   8.041 -0.9991  1.4052  0.3165
  139SAPE  H17Y15213   6.808   0.106   8.001 -1.3913  0.4504 -1.1390
  139SAPE  C31815214   6.692   0.277   8.036  0.1730 -0.3354 -0.0137
  139SAPE  H18X15215   6.654   0.292   7.933  2.3329  0.4399 -0.7477
  139SAPE  H18Y15216   6.776   0.349   8.040  1.0515 -1.3296 -0.2736
  139SAPE  H18Z15217   6.613   0.309   8.107  0.2903  0.6048 -0.2953
  140SAPE     N15218   1.664   6.156  10.869  0.0833  0.1040 -0.6885
  140SAPE   HN115219   1.727   6.173  10.788 -0.3562 -1.5142 -1.3949
  140SAPE   HN215220   1.640   6.055  10.876 -0.2247  0.1379 -1.2349
  140SAPE   HN315221   1.582   6.220  10.868 -1.6108 -1.7436  2.6440
  140SAPE   C1215222   1.733   6.177  11.005  0.0498 -0.4913  0.8607
  140SAPE  H12A15223   1.671   6.126  11.082 -1.3335 -0.8495 -0.4288
  140SAPE  H12B15224   1.727   6.286  11.027  1.0557 -0.3650  0.5433
  140SAPE   C1115225   1.880   6.134  11.000  0.5920 -0.4625 -0.1985
  140SAPE  H11A15226   1.914   6.168  11.100 -1.1005 -0.5754  0.4575
  140SAPE  H11B15227   1.929   6.197  10.923  3.7240 -2.0734  0.3169
  140SAPE     P15228   2.043   5.940  11.050  0.0392 -0.2587  0.1875
  140SAPE   O1315229   2.135   6.050  11.086 -0.3828  0.2926 -0.5797
  140SAPE   O1415230   2.033   5.844  11.160 -0.0419  0.5267  0.7013
  140SAPE   O1215231   1.897   5.992  11.004 -0.4074  0.2219  0.0276
  140SAPE   O1115232   2.105   5.872  10.918  0.1913 -0.0694 -0.4592
  140SAPE    C115233   2.126   5.953  10.804  0.2556 -0.0666  0.4022
  140SAPE    HA15234   2.099   6.059  10.824  2.5918  0.8182 -0.8236
  140SAPE    HB15235   2.234   5.963  10.783  0.3126 -0.1914  0.6271
  140SAPE    C215236   2.058   5.891  10.682 -0.0244  0.0272  0.2419
  140SAPE    HS15237   1.948   5.900  10.693 -0.0342  0.1645  0.0227
  140SAPE   O2115238   2.112   5.760  10.654  0.0063 -0.1757  0.1249
  140SAPE   C2115239   2.029   5.669  10.618  0.5325  0.0978 -0.0357
  140SAPE   O2215240   1.906   5.691  10.610  0.0843 -0.7932 -0.3411
  140SAPE   C2215241   2.101   5.543  10.583 -0.0638 -0.3182  0.0952
  140SAPE   H2R15242   2.202   5.539  10.628 -0.6387  1.6441  1.7070
  140SAPE   H2S15243   2.042   5.456  10.619  0.1329 -1.4539 -2.1371
  140SAPE    C315244   2.088   5.975  10.557 -0.9607 -0.9676  0.4386
  140SAPE    HX15245   2.198   5.976  10.548 -1.0709 -1.7999 -1.6750
  140SAPE    HY15246   2.046   6.078  10.555 -0.2978 -0.6833  0.8873
  140SAPE   O3115247   2.046   5.904  10.434 -0.2304  0.3667 -0.1900
  140SAPE   C3115248   1.927   5.940  10.390  0.6154  0.1272 -0.0772
  140SAPE   O3215249   1.847   6.015  10.442  0.1824 -0.4185  0.0974
  140SAPE   C3215250   1.898   5.862  10.259  0.1963  0.4511  0.1324
  140SAPE   H2X15251   1.808   5.906  10.210 -0.2325  1.1868  1.5173
  140SAPE   H2Y15252   1.890   5.755  10.286 -2.4726  0.6221  0.2955
  140SAPE   C2315253   2.115   5.518  10.428 -0.3758 -0.3729  0.2763
  140SAPE   H3R15254   2.016   5.505  10.378 -0.3228  1.0913 -0.2465
  140SAPE   H3S15255   2.160   5.417  10.419 -1.9347 -0.9361 -3.5445
  140SAPE   C2415256   2.207   5.605  10.340  0.4591  0.1872 -0.3230
  140SAPE   H4R15257   2.167   5.706  10.362  2.2819  0.9448 -0.3741
  140SAPE   H4S15258   2.190   5.578  10.233 -0.4435 -0.1156 -0.1155
  140SAPE   C2515259   2.349   5.601  10.380  0.0225  0.6177  0.5434
  140SAPE   H5R15260   2.366   5.577  10.486 -1.5029 -0.5691  0.5510
  140SAPE   C2615261   2.455   5.604  10.294  0.3412 -0.0352  0.5382
  140SAPE   H6R15262   2.555   5.606  10.341  1.1950 -0.2542 -1.2095
  140SAPE   C2715263   2.451   5.625  10.142  0.1027 -0.0549  0.0311
  140SAPE   H7R15264   2.492   5.725  10.118  1.3826 -0.9995 -2.0088
  140SAPE   H7S15265   2.348   5.643  10.104  0.4287 -0.4784 -1.1123
  140SAPE   C2815266   2.518   5.513  10.063 -0.1238 -0.1665  0.2509
  140SAPE   H8R15267   2.553   5.431  10.127  0.6253  0.3651  0.5483
  140SAPE   C2915268   2.535   5.507   9.927 -0.2938  0.3302 -0.2981
  140SAPE   H9R15269   2.601   5.432   9.882  1.9881  1.7231  0.5526
  140SAPE  C21015270   2.503   5.609   9.834 -0.1799  0.4923  0.2688
  140SAPE  H10R15271   2.597   5.623   9.776  0.7960 -0.3171  1.6169
  140SAPE  H10S15272   2.486   5.711   9.877  1.2207  1.8139 -2.1187
  140SAPE  C21115273   2.385   5.553   9.750  0.2575 -0.4097  0.4543
  140SAPE  H11R15274   2.292   5.533   9.807  0.8953  0.1698  1.7470
  140SAPE  C21215275   2.387   5.533   9.619 -0.4860 -0.6634  0.8402
  140SAPE  H12R15276   2.306   5.483   9.565  0.7402 -1.1044 -0.6531
  140SAPE  C21315277   2.503   5.568   9.519 -0.3428 -0.2154 -0.0094
  140SAPE  H13R15278   2.598   5.568   9.577 -0.3138  0.9933 -0.0321
  140SAPE  H13S15279   2.491   5.666   9.468 -0.1435  0.3484  0.9983
  140SAPE  C21415280   2.521   5.460   9.416 -0.5801  0.2799  0.2336
  140SAPE  H14R15281   2.577   5.372   9.451 -0.5327  0.8754  1.7131
  140SAPE  C21515282   2.486   5.465   9.280 -0.0386  0.7903  0.4747
  140SAPE  H15R15283   2.519   5.388   9.209  0.2111  1.8871 -0.6281
  140SAPE  C21615284   2.407   5.578   9.221  0.0439  0.4452 -0.4257
  140SAPE  H16R15285   2.396   5.667   9.287 -1.5454 -0.1246  0.1274
  140SAPE  H16S15286   2.304   5.535   9.216  0.0621 -0.3602  3.1950
  140SAPE  C21715287   2.460   5.634   9.089 -0.2280  0.1283  0.3095
  140SAPE  H17R15288   2.554   5.692   9.100  0.1747 -0.5463  0.4528
  140SAPE  H17S15289   2.391   5.708   9.043  0.6953  0.7629 -0.0890
  140SAPE  C21815290   2.482   5.526   8.985  0.6957  0.2501 -0.2810
  140SAPE  H18R15291   2.399   5.454   8.970  1.7791 -0.6456 -2.5604
  140SAPE  H18S15292   2.577   5.473   9.012  1.8122  2.5635  0.5706
  140SAPE  C21915293   2.498   5.576   8.843  0.1239  0.5383 -0.5966
  140SAPE  H19R15294   2.593   5.634   8.839 -0.3215  1.3880  0.5438
  140SAPE  H19S15295   2.417   5.651   8.834 -0.0651  0.2616 -1.2222
  140SAPE  C22015296   2.487   5.472   8.733 -0.5059 -0.1439 -0.3784
  140SAPE  H20R15297   2.378   5.454   8.722 -0.2783 -1.7395 -0.2656
  140SAPE  H20S15298   2.532   5.374   8.761 -0.9559 -0.3640 -0.4033
  140SAPE  H20T15299   2.532   5.510   8.639 -1.3100  4.1054  0.7652
  140SAPE   C3315300   2.011   5.867  10.153  0.5575 -0.2150  0.0490
  140SAPE   H3X15301   2.105   5.838  10.205  0.6650 -0.8503 -0.4828
  140SAPE   H3Y15302   2.023   5.974  10.126 -0.5621  0.0148  0.4163
  140SAPE   C3415303   1.983   5.789  10.021 -0.1197 -0.0508 -0.1369
  140SAPE   H4X15304   1.882   5.812   9.982  0.8418  3.8220 -0.7527
  140SAPE   H4Y15305   1.984   5.683  10.057  1.7494  0.8182  2.8008
  140SAPE   C3515306   2.071   5.801   9.904 -0.0488 -0.2174  0.0929
  140SAPE   H5X15307   2.178   5.787   9.929  0.4414  2.4302 -0.1768
  140SAPE   H5Y15308   2.074   5.909   9.880  1.2386  0.4312  2.7607
  140SAPE   C3615309   2.024   5.713   9.788  0.5925  0.1432 -0.5181
  140SAPE   H6X15310   1.914   5.709   9.797  0.4879  1.3882 -1.0370
  140SAPE   H6Y15311   2.056   5.608   9.801  1.9668  0.7729  1.6188
  140SAPE   C3715312   2.063   5.762   9.648 -0.4792  0.3435  0.2331
  140SAPE   H7X15313   2.174   5.758   9.640 -0.5197 -0.7394  0.0109
  140SAPE   H7Y15314   2.034   5.869   9.634  0.5182  0.3439 -2.5488
  140SAPE   C3815315   2.001   5.678   9.537 -0.3752  0.0035 -0.0714
  140SAPE   H8X15316   1.893   5.703   9.534 -1.0403 -2.4617  0.4709
  140SAPE   H8Y15317   2.003   5.570   9.566 -0.4148 -0.8023 -2.8127
  140SAPE   C3915318   2.070   5.707   9.406  0.0104  0.6035 -0.7937
  140SAPE   H9X15319   2.180   5.697   9.416  0.0392  2.5132  2.2468
  140SAPE   H9Y15320   2.048   5.812   9.377  0.5083  0.7917 -0.4966
  140SAPE  C31015321   2.016   5.622   9.289  0.0274 -0.2006 -0.6221
  140SAPE  H10X15322   1.907   5.601   9.299 -0.4048  1.0408 -2.3023
  140SAPE  H10Y15323   2.068   5.524   9.300 -1.7589 -1.1003  0.2068
  140SAPE  C31115324   2.043   5.689   9.153 -0.2624 -0.2287  0.1226
  140SAPE  H11X15325   2.150   5.719   9.148 -0.4119  0.4373  0.6846
  140SAPE  H11Y15326   1.993   5.788   9.141 -0.2654 -0.3867 -1.3487
  140SAPE  C31215327   2.002   5.594   9.042  0.0355 -0.2994 -0.0828
  140SAPE  H12X15328   1.895   5.566   9.044 -0.7071  2.3830  0.1491
  140SAPE  H12Y15329   2.061   5.500   9.050 -1.5550 -1.2477  1.1276
  140SAPE  C31315330   2.041   5.661   8.900  0.5452  0.6101  0.3160
  140SAPE  H13X15331   2.147   5.692   8.909  0.9460 -0.9552  1.6446
  140SAPE  H13Y15332   1.983   5.753   8.879  0.4019  0.8566  1.6547
  140SAPE  C31415333   2.014   5.584   8.771  0.1947  0.2230  0.8871
  140SAPE  H14X15334   2.058   5.483   8.787  1.2305  0.2369 -1.4297
  140SAPE  H14Y15335   2.056   5.636   8.682  1.6500  1.1626  2.0752
  140SAPE  C31515336   1.858   5.566   8.753  0.1355  0.4235 -0.1760
  140SAPE  H15X15337   1.791   5.651   8.777 -0.9102 -0.4453  0.0645
  140SAPE  H15Y15338   1.844   5.500   8.842  3.9819 -2.0666 -1.1637
  140SAPE  C31615339   1.811   5.501   8.620 -0.0292 -0.2216 -0.6962
  140SAPE  H16X15340   1.819   5.571   8.534  1.1996  0.9949  0.3686
  140SAPE  H16Y15341   1.706   5.465   8.626 -0.9761  2.5516  0.8909
  140SAPE  C31715342   1.895   5.385   8.579 -0.1993 -0.1965  0.0846
  140SAPE  H17X15343   1.997   5.424   8.559 -0.9548  0.9991 -1.6565
  140SAPE  H17Y15344   1.855   5.341   8.485 -2.4814  0.0845  0.8773
  140SAPE  C31815345   1.887   5.273   8.688  0.6166 -0.0539  0.3376
  140SAPE  H18X15346   1.930   5.184   8.639  0.2784  0.3895 -0.7986
  140SAPE  H18Y15347   1.782   5.238   8.699  0.0985  0.6500 -1.8637
  140SAPE  H18Z15348   1.950   5.309   8.772  0.5738  2.8205 -0.7478
  141SAPE     N15349   2.678   4.594  10.548  0.1737  0.5583  0.7569
  141SAPE   HN115350   2.668   4.492  10.535 -1.8089  0.8847 -0.7872
  141SAPE   HN215351   2.593   4.624  10.601  0.2623  0.6997  0.8212
  141SAPE   HN315352   2.675   4.644  10.457  0.5150 -0.3185  0.2563
  141SAPE   C1215353   2.801   4.626  10.636  0.1456 -0.3180  0.8298
  141SAPE  H12A15354   2.856   4.711  10.591  0.5591 -1.4026 -0.7762
  141SAPE  H12B15355   2.863   4.534  10.628  0.6256  0.1834 -2.4365
  141SAPE   C1115356   2.767   4.649  10.792 -0.5128 -0.0536  0.6449
  141SAPE  H11A15357   2.867   4.634  10.839  0.1149 -1.2199 -0.9518
  141SAPE  H11B15358   2.701   4.567  10.829 -2.2411  1.3412  0.7663
  141SAPE     P15359   2.815   4.888  10.885 -0.3384  0.0641 -0.1284
  141SAPE   O1315360   2.725   4.992  10.940  0.1796  0.1215 -0.6536
  141SAPE   O1415361   2.917   4.830  10.976 -0.3055 -0.4816  0.7787
  141SAPE   O1215362   2.728   4.775  10.823  0.6063  0.3132 -0.1951
  141SAPE   O1115363   2.880   4.936  10.754  0.8868 -0.3858  0.4807
  141SAPE    C115364   2.798   5.015  10.664 -0.5936 -0.0821 -0.0169
  141SAPE    HA15365   2.692   4.980  10.661 -1.3872  2.2483 -2.2181
  141SAPE    HB15366   2.799   5.120  10.698  1.1785 -0.5591  1.5453
  141SAPE    C215367   2.845   5.008  10.520  0.3065 -0.5404  0.1402
  141SAPE    HS15368   2.815   4.908  10.483  0.3410  0.3282 -2.4109
  141SAPE   O2115369   2.984   5.025  10.524  0.3770  0.5457 -0.2945
  141SAPE   C2115370   3.047   4.961  10.421  0.4364  0.4553  0.2430
  141SAPE   O2215371   2.993   4.922  10.318 -0.0048 -0.2208  0.4587
  141SAPE   C2215372   3.197   4.951  10.454 -0.2233  0.1838 -0.0869
  141SAPE   H2R15373   3.216   5.023  10.536  0.7866 -0.4206  0.2232
  141SAPE   H2S15374   3.219   4.850  10.495 -0.3521  0.9362  1.9222
  141SAPE    C315375   2.779   5.120  10.438 -0.3365  0.8446  0.0979
  141SAPE    HX15376   2.818   5.107  10.335  0.9566 -1.5839  0.8309
  141SAPE    HY15377   2.801   5.218  10.487 -0.3110  0.6109  0.5554
  141SAPE   O3115378   2.640   5.097  10.442  0.9787  0.2915 -0.0338
  141SAPE   C3115379   2.576   5.195  10.380  0.0274 -0.5803 -0.3130
  141SAPE   O3215380   2.627   5.291  10.319  0.9240  0.0892 -0.2880
  141SAPE   C3215381   2.426   5.173  10.393  0.3588  0.4464 -0.1003
  141SAPE   H2X15382   2.396   5.215  10.491  2.1311  0.3810  0.5113
  141SAPE   H2Y15383   2.401   5.065  10.399  0.7989  0.3956  1.1470
  141SAPE   C2315384   3.291   4.989  10.334  0.3296  0.2714 -0.1054
  141SAPE   H3R15385   3.259   5.090  10.300 -0.3508  0.5212  1.2106
  141SAPE   H3S15386   3.269   4.916  10.254 -3.0066 -0.1025  0.9731
  141SAPE   C2415387   3.431   4.992  10.390 -0.2744 -0.4956 -0.0879
  141SAPE   H4R15388   3.441   5.066  10.472 -1.1446  0.6501 -0.9817
  141SAPE   H4S15389   3.499   5.038  10.315  0.2512  1.2793  1.3927
  141SAPE   C2515390   3.483   4.858  10.440  0.2743  0.3599 -0.2084
  141SAPE   H5R15391   3.497   4.853  10.549 -0.4343 -0.5065 -0.1476
  141SAPE   C2615392   3.511   4.747  10.372  0.6269 -0.0091  0.2329
  141SAPE   H6R15393   3.532   4.657  10.431 -1.4139  0.4195  1.7142
  141SAPE   C2715394   3.488   4.733  10.225 -0.4844 -0.5532  0.1689
  141SAPE   H7R15395   3.548   4.651  10.181 -0.0880  1.0917 -2.6120
  141SAPE   H7S15396   3.516   4.827  10.171  3.8579 -1.7605 -0.0255
  141SAPE   C2815397   3.352   4.685  10.189 -0.3305  0.9387  0.0879
  141SAPE   H8R15398   3.307   4.625  10.269  0.4627 -0.0008 -0.1522
  141SAPE   C2915399   3.279   4.694  10.073  0.0054  0.3086 -0.3915
  141SAPE   H9R15400   3.176   4.654  10.072 -0.0923  0.5581 -0.3902
  141SAPE  C21015401   3.324   4.763   9.951  0.0044 -0.3031  0.5480
  141SAPE  H10R15402   3.427   4.803   9.963 -1.5807  4.1502  1.2982
  141SAPE  H10S15403   3.257   4.850   9.933 -0.8433 -1.0838 -0.1182
  141SAPE  C21115404   3.341   4.675   9.829  0.6228  0.5709  0.2402
  141SAPE  H11R15405   3.395   4.581   9.847  1.6996  0.9414 -0.9198
  141SAPE  C21215406   3.316   4.717   9.703 -0.0870  0.8193 -0.0647
  141SAPE  H12R15407   3.323   4.635   9.630 -2.5757 -0.2225  0.7712
  141SAPE  C21315408   3.268   4.854   9.668  0.2447 -0.0325 -0.0618
  141SAPE  H13R15409   3.332   4.882   9.581 -0.7439  0.4683 -0.6430
  141SAPE  H13S15410   3.284   4.934   9.743 -0.4595 -0.7411  0.8728
  141SAPE  C21415411   3.119   4.858   9.638 -0.2139 -0.1477  0.3229
  141SAPE  H14R15412   3.044   4.845   9.717 -0.8947  2.6533  0.2396
  141SAPE  C21515413   3.067   4.870   9.517  0.1802 -0.5435 -0.4770
  141SAPE  H15R15414   2.958   4.864   9.503  0.0543  0.2349  0.1008
  141SAPE  C21615415   3.151   4.884   9.388  0.7453  0.1941 -0.4403
  141SAPE  H16R15416   3.217   4.795   9.390 -0.4952 -0.7648 -0.8991
  141SAPE  H16S15417   3.212   4.977   9.392  0.7661  0.1953 -0.7618
  141SAPE  C21715418   3.076   4.880   9.252  1.0580 -0.0656  0.4583
  141SAPE  H17R15419   3.019   4.973   9.234  1.4995  0.4080  1.4319
  141SAPE  H17S15420   3.014   4.788   9.251  1.8016 -0.6332 -2.7059
  141SAPE  C21815421   3.167   4.867   9.128  0.1122  0.5978 -0.7467
  141SAPE  H18R15422   3.222   4.770   9.128  0.2629  0.6803 -0.3447
  141SAPE  H18S15423   3.237   4.953   9.136 -0.6800  1.2182 -0.4397
  141SAPE  C21915424   3.104   4.886   8.986 -0.2097  0.2914 -0.3427
  141SAPE  H19R15425   3.177   4.857   8.907 -0.8250 -2.3060 -0.0659
  141SAPE  H19S15426   3.083   4.994   8.973 -2.2393  0.1329  1.1692
  141SAPE  C22015427   2.964   4.825   8.963  0.2058  0.2333  0.2847
  141SAPE  H20R15428   2.881   4.877   9.016  0.4523 -1.1394  2.1205
  141SAPE  H20S15429   2.955   4.721   9.000 -2.1073 -0.4726 -1.9302
  141SAPE  H20T15430   2.942   4.824   8.854 -0.1409  0.5942  0.3467
  141SAPE   C3315431   2.351   5.250  10.288  0.2094  0.6313  0.4604
  141SAPE   H3X15432   2.380   5.357  10.279  1.9337  0.0949 -1.1475
  141SAPE   H3Y15433   2.244   5.246  10.314  0.0256  3.9653  0.6524
  141SAPE   C3415434   2.366   5.190  10.142 -0.0331 -0.6069 -0.0141
  141SAPE   H4X15435   2.327   5.086  10.150 -0.8743 -0.5600 -2.5610
  141SAPE   H4Y15436   2.472   5.198  10.111  0.3352 -1.7868  0.8676
  141SAPE   C3515437   2.276   5.275  10.048  0.5053  0.2237  0.4337
  141SAPE   H5X15438   2.306   5.380  10.063 -0.6107  0.1064  4.9252
  141SAPE   H5Y15439   2.174   5.259  10.090  0.1568  0.2041 -0.3986
  141SAPE   C3615440   2.272   5.221   9.912  0.6387  0.3136  0.5164
  141SAPE   H6X15441   2.258   5.111   9.921  3.9379 -0.2047  0.5294
  141SAPE   H6Y15442   2.365   5.252   9.860  0.9552 -1.3523  0.0193
  141SAPE   C3715443   2.150   5.274   9.832  0.2427 -1.0546  0.3606
  141SAPE   H7X15444   2.141   5.385   9.841  0.3841 -1.1655  2.5480
  141SAPE   H7Y15445   2.059   5.240   9.885 -0.6216  0.1597 -0.3002
  141SAPE   C3815446   2.152   5.216   9.692 -0.9171  0.4270 -0.4529
  141SAPE   H8X15447   2.147   5.106   9.701  1.6443  0.2937 -0.0247
  141SAPE   H8Y15448   2.248   5.242   9.642 -1.1051  0.6137 -0.7222
  141SAPE   C3915449   2.039   5.269   9.609 -0.0061  0.3293  0.0576
  141SAPE   H9X15450   2.047   5.379   9.610  0.6747  0.3133 -1.3348
  141SAPE   H9Y15451   1.948   5.233   9.662  0.2327 -1.9948 -1.0000
  141SAPE  C31015452   2.028   5.199   9.474  0.0936 -0.6972  0.6763
  141SAPE  H10X15453   1.927   5.222   9.435  0.8294 -1.2621 -1.6927
  141SAPE  H10Y15454   2.016   5.089   9.474 -2.6010 -0.5741 -3.0607
  141SAPE  C31115455   2.137   5.228   9.370  0.3146  0.1630 -0.2329
  141SAPE  H11X15456   2.221   5.156   9.383 -0.7672 -0.9380  1.0361
  141SAPE  H11Y15457   2.186   5.326   9.385 -0.9307  0.5533  1.6718
  141SAPE  C31215458   2.092   5.196   9.226  0.3978  0.0332  0.1636
  141SAPE  H12X15459   2.025   5.278   9.191 -2.1124 -1.4261  1.2566
  141SAPE  H12Y15460   2.031   5.105   9.208 -1.8407  2.0000 -3.4149
  141SAPE  C31315461   2.205   5.198   9.122  0.9654 -0.3286 -0.2538
  141SAPE  H13X15462   2.274   5.113   9.140 -0.5270 -1.7626 -0.9823
  141SAPE  H13Y15463   2.263   5.291   9.139  0.5200 -0.1344  0.2207
  141SAPE  C31415464   2.146   5.186   8.984  0.0513  0.7613  0.4601
  141SAPE  H14X15465   2.101   5.288   8.974 -0.3523  0.4115 -2.0451
  141SAPE  H14Y15466   2.058   5.121   8.968 -0.7137  2.1103 -1.1727
  141SAPE  C31515467   2.255   5.167   8.879 -0.4502  0.5194  0.1941
  141SAPE  H15X15468   2.308   5.071   8.896  0.7795  1.0222 -0.6422
  141SAPE  H15Y15469   2.334   5.244   8.898 -1.0605  1.2897 -0.3187
  141SAPE  C31615470   2.211   5.179   8.730 -0.0514  0.0523 -0.4124
  141SAPE  H16X15471   2.152   5.270   8.706  1.6248  0.9193 -1.4289
  141SAPE  H16Y15472   2.139   5.096   8.714  2.1786 -1.8535 -1.2011
  141SAPE  C31715473   2.323   5.150   8.628  0.2775  0.3862  0.2227
  141SAPE  H17X15474   2.388   5.067   8.663 -0.3330  0.4870  1.6513
  141SAPE  H17Y15475   2.384   5.243   8.622  1.2155 -0.2896 -1.3332
  141SAPE  C31815476   2.255   5.108   8.487  0.0015 -0.4313 -0.6160
  141SAPE  H18X15477   2.329   5.061   8.418 -0.7613 -1.6208 -0.6583
  141SAPE  H18Y15478   2.205   5.186   8.426  2.5755  1.7392 -0.1367
  141SAPE  H18Z15479   2.182   5.034   8.524  0.2694 -0.6350 -0.4892
  142SAPE     N15480   5.309   5.021  10.793  0.3320 -0.1838  0.0631
  142SAPE   HN115481   5.305   4.918  10.800 -0.4423 -0.1786 -0.1560
  142SAPE   HN215482   5.224   5.057  10.746  0.0741  0.1280  0.7433
  142SAPE   HN315483   5.398   5.047  10.746  2.3814 -0.1494  3.5461
  142SAPE   C1215484   5.321   5.074  10.932 -0.0403 -0.0254  0.3499
  142SAPE  H12A15485   5.319   5.183  10.913  0.2476 -0.1532 -0.4412
  142SAPE  H12B15486   5.423   5.039  10.959  0.7298  2.3787  0.8177
  142SAPE   C1115487   5.197   5.040  11.017 -0.5595 -0.5949 -0.0913
  142SAPE  H11A15488   5.214   5.062  11.125 -2.0710 -0.1040  0.0752
  142SAPE  H11B15489   5.190   4.930  11.008 -0.3402 -0.5303 -1.2054
  142SAPE     P15490   4.971   5.179  11.032 -0.1323 -0.1149  0.1592
  142SAPE   O1315491   4.868   5.092  11.088  0.0816  0.1833  0.6505
  142SAPE   O1415492   5.033   5.267  11.132  0.1200 -0.1984 -0.8392
  142SAPE   O1215493   5.081   5.099  10.968 -0.2657  0.8230 -0.9872
  142SAPE   O1115494   4.901   5.266  10.922  0.0404  0.3400 -0.0764
  142SAPE    C115495   4.939   5.233  10.789  0.8499 -0.2474  0.1675
  142SAPE    HA15496   4.906   5.310  10.716 -1.0713 -1.2698 -0.1027
  142SAPE    HB15497   5.050   5.230  10.780  0.8349 -1.0587  0.1929
  142SAPE    C215498   4.873   5.100  10.739 -0.4242  0.0515  0.1024
  142SAPE    HS15499   4.920   5.014  10.791 -0.3906 -0.2585 -0.4446
  142SAPE   O2115500   4.877   5.087  10.592  0.1559 -0.3154 -0.0847
  142SAPE   C2115501   5.004   5.064  10.555  0.2407  0.1129  0.0189
  142SAPE   O2215502   5.099   5.049  10.629  0.0133  0.1218 -0.0050
  142SAPE   C2215503   5.015   5.031  10.404  0.4684 -0.5589 -0.0671
  142SAPE   H2R15504   4.997   5.123  10.344 -0.2533 -1.2468 -0.9230
  142SAPE   H2S15505   5.122   5.007  10.386  0.4559 -0.0786 -0.8362
  142SAPE    C315506   4.721   5.089  10.772  0.2836 -0.7427  0.1124
  142SAPE    HX15507   4.679   5.185  10.734  0.6078 -2.2419 -4.7162
  142SAPE    HY15508   4.679   5.091  10.875  0.4811 -1.6383  0.2222
  142SAPE   O3115509   4.658   4.977  10.705  0.3370  0.3472 -0.0030
  142SAPE   C3115510   4.558   5.005  10.625  0.1071 -0.3276 -0.5340
  142SAPE   O3215511   4.512   5.119  10.612 -0.1872  1.0483  0.2254
  142SAPE   C3215512   4.510   4.874  10.559 -0.0716 -0.5220  0.0025
  142SAPE   H2X15513   4.463   4.815  10.641 -1.1803 -0.6578 -0.7046
  142SAPE   H2Y15514   4.595   4.809  10.529  0.9620  0.9161 -0.2825
  142SAPE   C2315515   4.923   4.915  10.359 -0.9325 -0.4627 -0.3585
  142SAPE   H3R15516   4.820   4.934  10.395 -0.0199 -0.1239  2.2463
  142SAPE   H3S15517   4.955   4.813  10.391 -2.7956 -0.5179  1.5096
  142SAPE   C2415518   4.936   4.922  10.205 -0.6726 -0.4611 -0.4422
  142SAPE   H4R15519   5.042   4.932  10.172 -0.5051  1.1615  0.4876
  142SAPE   H4S15520   4.894   5.018  10.169  2.1243  0.3449 -1.9200
  142SAPE   C2515521   4.870   4.808  10.145 -0.3777 -0.3678 -0.2022
  142SAPE   H5R15522   4.789   4.773  10.210 -1.0863  1.2919 -0.1536
  142SAPE   C2615523   4.899   4.753  10.026  0.2709 -0.0734 -0.0189
  142SAPE   H6R15524   4.841   4.666   9.991  0.9961 -0.1173 -1.1840
  142SAPE   C2715525   4.995   4.807   9.921  0.4301 -0.6137  0.0265
  142SAPE   H7R15526   5.053   4.716   9.894 -0.4061 -0.9760 -0.6012
  142SAPE   H7S15527   5.063   4.889   9.950 -0.8908  0.2390  0.8037
  142SAPE   C2815528   4.906   4.859   9.804 -0.1961  0.5897 -0.0676
  142SAPE   H8R15529   4.833   4.939   9.825  0.3018  0.0281  5.0783
  142SAPE   C2915530   4.933   4.827   9.678 -0.3515 -0.3244  0.6486
  142SAPE   H9R15531   4.896   4.894   9.599  1.2923 -0.9610 -0.7185
  142SAPE  C21015532   5.034   4.733   9.613  0.2575 -0.6012 -0.3506
  142SAPE  H10R15533   5.118   4.707   9.681 -0.6432  0.9796  1.4767
  142SAPE  H10S15534   5.087   4.784   9.530 -2.9832 -0.0891 -2.2570
  142SAPE  C21115535   4.966   4.617   9.547 -0.2382  0.0212 -0.4297
  142SAPE  H11R15536   4.924   4.551   9.624 -2.1412  1.0925 -0.4675
  142SAPE  C21215537   4.958   4.583   9.414  0.3114 -0.6381 -0.3211
  142SAPE  H12R15538   4.914   4.484   9.391  0.0843 -0.0978 -2.4322
  142SAPE  C21315539   5.006   4.668   9.291  0.3296 -0.1878 -0.2835
  142SAPE  H13R15540   4.995   4.777   9.307  0.8263 -0.2696  0.6450
  142SAPE  H13S15541   4.934   4.649   9.208 -1.6120  2.0977  0.7319
  142SAPE  C21415542   5.142   4.621   9.237 -0.4928 -0.0195 -0.4081
  142SAPE  H14R15543   5.163   4.516   9.264  0.1096 -0.2031 -1.5117
  142SAPE  C21515544   5.239   4.698   9.194 -0.0599  0.5083  0.1040
  142SAPE  H15R15545   5.328   4.640   9.165 -0.5085 -0.4528  0.6288
  142SAPE  C21615546   5.237   4.848   9.196  0.0085 -0.7444  0.2133
  142SAPE  H16R15547   5.162   4.897   9.262 -0.7218 -1.5173 -0.0324
  142SAPE  H16S15548   5.218   4.882   9.092  1.7198 -0.0579  0.0863
  142SAPE  C21715549   5.375   4.911   9.237  0.4982  0.1403  0.2203
  142SAPE  H17R15550   5.382   5.020   9.214  0.9210  0.2980  1.0531
  142SAPE  H17S15551   5.464   4.859   9.196 -0.6501  0.0728 -2.3894
  142SAPE  C21815552   5.407   4.889   9.385 -0.1415 -0.6297  0.1653
  142SAPE  H18R15553   5.432   4.781   9.385 -2.6863 -1.2917 -1.8531
  142SAPE  H18S15554   5.316   4.907   9.445  0.0248 -1.9578  0.8484
  142SAPE  C21915555   5.513   4.985   9.433 -0.2388  0.5350  0.3389
  142SAPE  H19R15556   5.483   5.089   9.408  0.1688  1.0914  2.0101
  142SAPE  H19S15557   5.607   4.957   9.381 -0.4766 -0.8072  0.5749
  142SAPE  C22015558   5.543   4.986   9.579 -0.6012 -0.0763  0.2547
  142SAPE  H20R15559   5.557   4.881   9.611  0.3756  0.4120  1.5114
  142SAPE  H20S15560   5.465   5.031   9.644  1.3231  0.2997  2.4309
  142SAPE  H20T15561   5.644   5.031   9.589  0.4042 -1.8644 -1.1219
  142SAPE   C3315562   4.408   4.891  10.448 -0.0815  0.2358 -0.7066
  142SAPE   H3X15563   4.335   4.968  10.482  0.7181  1.6989 -2.1833
  142SAPE   H3Y15564   4.359   4.793  10.426 -0.6011  0.1024  0.8831
  142SAPE   C3415565   4.468   4.943  10.315 -0.1103 -0.8542  0.1553
  142SAPE   H4X15566   4.577   4.924  10.314  0.4597  2.1006 -0.9539
  142SAPE   H4Y15567   4.462   5.053  10.325  0.5072 -1.0010  3.2905
  142SAPE   C3515568   4.399   4.901  10.189 -0.5865  0.8116  0.0610
  142SAPE   H5X15569   4.305   4.960  10.179 -0.5647  0.8935  0.3306
  142SAPE   H5Y15570   4.372   4.794  10.194 -0.2750  0.6195 -1.6421
  142SAPE   C3615571   4.489   4.921  10.063 -0.0664  0.1187 -0.2987
  142SAPE   H6X15572   4.584   4.865  10.076  0.0390 -0.2330 -2.3602
  142SAPE   H6Y15573   4.513   5.028  10.047 -0.0650  0.1081 -0.3655
  142SAPE   C3715574   4.437   4.860   9.937  0.3094  0.3817 -0.0699
  142SAPE   H7X15575   4.339   4.905   9.910 -0.8836 -0.7719  2.0081
  142SAPE   H7Y15576   4.415   4.752   9.952  0.2121  0.5073  0.7711
  142SAPE   C3815577   4.533   4.864   9.815 -0.4499  0.1508 -0.1307
  142SAPE   H8X15578   4.600   4.776   9.824 -3.1185 -2.0939 -0.7503
  142SAPE   H8Y15579   4.606   4.947   9.819 -0.9412  0.6544 -1.2183
  142SAPE   C3915580   4.466   4.871   9.678 -0.0015  0.3529  0.4271
  142SAPE   H9X15581   4.547   4.870   9.602  1.4432  0.2214  1.9200
  142SAPE   H9Y15582   4.417   4.971   9.680 -0.4816  0.2025 -1.4591
  142SAPE  C31015583   4.355   4.767   9.647 -0.4542 -0.0114  0.1726
  142SAPE  H10X15584   4.272   4.779   9.720 -1.2235  0.4421 -0.7568
  142SAPE  H10Y15585   4.385   4.660   9.646 -3.7248 -1.0484 -0.7502
  142SAPE  C31115586   4.297   4.801   9.510 -0.4299  0.6759 -0.2895
  142SAPE  H11X15587   4.379   4.772   9.441  0.1525  2.1271 -0.2302
  142SAPE  H11Y15588   4.285   4.910   9.495  0.2605  0.6235 -1.3374
  142SAPE  C31215589   4.178   4.710   9.477  1.0167 -0.4855  0.1613
  142SAPE  H12X15590   4.083   4.721   9.532  0.2886  0.8179 -1.2886
  142SAPE  H12Y15591   4.219   4.607   9.481 -0.7764 -1.4868 -3.2931
  142SAPE  C31315592   4.136   4.726   9.322 -0.7045  0.0599 -0.4466
  142SAPE  H13X15593   4.233   4.714   9.270 -0.3197  0.8147  0.0685
  142SAPE  H13Y15594   4.100   4.830   9.316  0.3584  0.4323 -0.5944
  142SAPE  C31415595   4.033   4.623   9.277  0.3111  0.1791 -0.4111
  142SAPE  H14X15596   3.946   4.639   9.345  1.1353 -2.0779  1.3217
  142SAPE  H14Y15597   4.087   4.530   9.303 -1.8498 -1.4339 -1.3427
  142SAPE  C31515598   3.986   4.617   9.137  0.5268 -0.4354  0.2621
  142SAPE  H15X15599   3.895   4.554   9.133  0.9136 -0.9850 -0.0168
  142SAPE  H15Y15600   4.062   4.577   9.067 -0.4959  1.5231 -2.1519
  142SAPE  C31615601   3.942   4.755   9.077 -0.5860 -0.6452  0.4511
  142SAPE  H16X15602   4.028   4.825   9.076 -0.2209 -1.0842  0.6807
  142SAPE  H16Y15603   3.867   4.809   9.139 -1.5933 -0.6399 -0.7341
  142SAPE  C31715604   3.878   4.750   8.944  0.3733 -0.1001 -1.0637
  142SAPE  H17X15605   3.809   4.663   8.943 -1.3693  1.2257 -1.6016
  142SAPE  H17Y15606   3.961   4.729   8.874  1.1956 -3.0836  0.6421
  142SAPE  C31815607   3.795   4.872   8.896  0.1088  0.0848 -0.2192
  142SAPE  H18X15608   3.868   4.949   8.861  0.0544 -0.1836 -0.9443
  142SAPE  H18Y15609   3.717   4.905   8.968  0.8155  1.7205 -0.1607
  142SAPE  H18Z15610   3.733   4.838   8.810  0.1384  0.6549 -0.4745
  143SAPE     N15611   5.285   5.829  10.877 -0.2379 -0.8595 -0.2253
  143SAPE   HN115612   5.335   5.754  10.930 -0.4311 -0.0462  1.1697
  143SAPE   HN215613   5.351   5.905  10.850 -1.6161  0.5839  0.3243
  143SAPE   HN315614   5.215   5.865  10.945  1.3851 -0.6897  1.4288
  143SAPE   C1215615   5.204   5.759  10.771 -0.3553 -0.4247  0.0004
  143SAPE  H12A15616   5.271   5.758  10.683 -2.0011 -2.1551 -1.2769
  143SAPE  H12B15617   5.125   5.829  10.737  1.1458  1.1254 -0.4414
  143SAPE   C1115618   5.158   5.615  10.792  0.4620 -0.3983 -0.1975
  143SAPE  H11A15619   5.118   5.581  10.694  0.5312 -0.1720 -0.3050
  143SAPE  H11B15620   5.068   5.621  10.856 -0.7579  1.8705 -1.9907
  143SAPE     P15621   5.360   5.451  10.759 -0.1277 -0.2145 -0.0196
  143SAPE   O1315622   5.462   5.389  10.852  0.3949  0.0988  0.1018
  143SAPE   O1415623   5.296   5.368  10.655  0.3892  0.1543  0.0117
  143SAPE   O1215624   5.248   5.520  10.852 -0.7114 -0.0294 -0.0365
  143SAPE   O1115625   5.433   5.577  10.686  0.5510  0.3732  0.0725
  143SAPE    C115626   5.458   5.565  10.542  0.1599 -0.0955  0.2620
  143SAPE    HA15627   5.370   5.557  10.474  1.3771  1.0150 -1.5140
  143SAPE    HB15628   5.504   5.661  10.511 -2.8992  1.4553  0.1803
  143SAPE    C215629   5.561   5.447  10.503 -0.2142 -0.7849 -0.2420
  143SAPE    HS15630   5.514   5.347  10.514 -1.5150 -0.0160  1.7325
  143SAPE   O2115631   5.676   5.453  10.592  0.2162 -0.1548 -0.8007
  143SAPE   C2115632   5.742   5.338  10.611  0.0608 -0.0105  0.2562
  143SAPE   O2215633   5.709   5.229  10.571  0.8334 -0.5638  0.6526
  143SAPE   C2215634   5.875   5.369  10.680 -0.0816  0.5128  0.1521
  143SAPE   H2R15635   5.891   5.477  10.703 -1.2297  0.2184  2.6261
  143SAPE   H2S15636   5.861   5.323  10.780  0.7857 -1.5267 -0.6103
  143SAPE    C315637   5.610   5.462  10.357 -0.1519 -0.1308  0.4423
  143SAPE    HX15638   5.662   5.560  10.351  0.0644 -0.2845 -0.4597
  143SAPE    HY15639   5.518   5.471  10.296 -0.0642 -1.8923  0.0012
  143SAPE   O3115640   5.701   5.366  10.318 -0.1587 -0.3782 -0.4434
  143SAPE   C3115641   5.639   5.245  10.289  0.1455 -0.1284 -0.4469
  143SAPE   O3215642   5.521   5.220  10.302  0.1055 -0.7488  0.0991
  143SAPE   C3215643   5.737   5.141  10.227 -0.0730  0.3847 -0.0864
  143SAPE   H2X15644   5.686   5.047  10.197 -2.7605  1.8738 -0.4828
  143SAPE   H2Y15645   5.795   5.103  10.314 -2.1287  0.7627  1.5651
  143SAPE   C2315646   5.988   5.306  10.608  0.2247  0.1172  0.0767
  143SAPE   H3R15647   5.977   5.196  10.601 -0.1637  0.2020 -0.6763
  143SAPE   H3S15648   6.072   5.311  10.680  2.2686  0.1342 -2.2062
  143SAPE   C2415649   6.003   5.370  10.464 -0.7587  0.4752 -0.7973
  143SAPE   H4R15650   6.000   5.481  10.470 -0.7824  0.5176 -1.5516
  143SAPE   H4S15651   5.916   5.335  10.405 -0.9894  3.4794 -2.4285
  143SAPE   C2515652   6.130   5.319  10.409 -0.0058 -0.3680  0.1835
  143SAPE   H5R15653   6.179   5.236  10.462  0.8508 -0.3610 -0.5727
  143SAPE   C2615654   6.197   5.363  10.299  0.3599  0.3288 -0.1451
  143SAPE   H6R15655   6.290   5.311  10.273  0.3467 -0.3117  0.9925
  143SAPE   C2715656   6.148   5.475  10.205  0.1942 -0.1342 -0.0466
  143SAPE   H7R15657   6.061   5.530  10.249 -0.9066 -3.1607  1.8862
  143SAPE   H7S15658   6.101   5.424  10.119 -1.9333 -2.9904  2.6011
  143SAPE   C2815659   6.251   5.580  10.175 -0.4667  0.1638 -0.1046
  143SAPE   H8R15660   6.250   5.658  10.252  0.8943  0.8968 -0.8037
  143SAPE   C2915661   6.327   5.589  10.063  0.0811  0.4769 -0.7468
  143SAPE   H9R15662   6.403   5.669  10.067 -0.8382  1.3564  1.7036
  143SAPE  C21015663   6.323   5.496   9.939 -0.2695 -0.8400  0.7943
  143SAPE  H10R15664   6.406   5.534   9.876  0.8814 -3.9323  0.2362
  143SAPE  H10S15665   6.229   5.516   9.884 -1.1527  1.0288  2.8073
  143SAPE  C21115666   6.337   5.346   9.955 -0.4262 -0.4662 -0.3500
  143SAPE  H11R15667   6.355   5.313  10.059 -0.0282 -0.1481 -0.3128
  143SAPE  C21215668   6.356   5.248   9.870  0.3457 -0.6444 -1.3062
  143SAPE  H12R15669   6.375   5.150   9.917  0.0923 -0.8897 -1.7137
  143SAPE  C21315670   6.360   5.245   9.720  0.1676  0.3202  0.1148
  143SAPE  H13R15671   6.440   5.179   9.681 -0.8233 -0.7813 -0.0997
  143SAPE  H13S15672   6.387   5.340   9.669  0.8349 -1.1205 -2.3369
  143SAPE  C21415673   6.236   5.191   9.654 -0.3554 -0.8804 -0.9862
  143SAPE  H14R15674   6.151   5.158   9.716 -0.1819 -0.9832 -0.8012
  143SAPE  C21515675   6.237   5.166   9.528  0.1715  0.1897 -0.1346
  143SAPE  H15R15676   6.149   5.112   9.489 -0.7798  1.5047  0.1400
  143SAPE  C21615677   6.352   5.198   9.436 -0.2125 -0.5737  0.1958
  143SAPE  H16R15678   6.446   5.141   9.451 -0.3914 -0.4242  2.0518
  143SAPE  H16S15679   6.385   5.304   9.448  0.2879 -0.9058  2.0948
  143SAPE  C21715680   6.308   5.171   9.288 -0.6271  0.1624 -0.3823
  143SAPE  H17R15681   6.209   5.222   9.284 -0.1810  1.4321  2.6029
  143SAPE  H17S15682   6.294   5.062   9.273  1.6027 -0.6452  2.5546
  143SAPE  C21815683   6.390   5.245   9.178  0.5772 -0.1942 -0.2181
  143SAPE  H18R15684   6.492   5.208   9.155  0.5414 -0.2385 -0.3029
  143SAPE  H18S15685   6.383   5.353   9.201 -2.4352 -0.4844  0.6204
  143SAPE  C21915686   6.331   5.234   9.038  0.1908 -0.0802  0.0047
  143SAPE  H19R15687   6.220   5.232   9.033  0.1924 -1.7604  0.0354
  143SAPE  H19S15688   6.361   5.135   8.999  1.4645  1.3500 -2.8994
  143SAPE  C22015689   6.377   5.338   8.945 -0.2196  0.3337 -0.5537
  143SAPE  H20R15690   6.343   5.442   8.964 -1.2242  0.4865 -2.8697
  143SAPE  H20S15691   6.349   5.308   8.842 -2.1996  0.0758  0.0165
  143SAPE  H20T15692   6.488   5.337   8.956 -0.4165 -2.3354  2.6862
  143SAPE   C3315693   5.833   5.191  10.125  0.0326  0.2492  0.5466
  143SAPE   H3X15694   5.921   5.127  10.105  1.4127  1.5306  2.1458
  143SAPE   H3Y15695   5.864   5.295  10.152 -3.2954  1.3789  0.5008
  143SAPE   C3415696   5.753   5.203   9.989 -0.0025 -0.4388  0.6641
  143SAPE   H4X15697   5.654   5.254   9.994 -0.0486 -0.5965  1.6640
  143SAPE   H4Y15698   5.722   5.102   9.954 -1.2218  0.3328 -0.6076
  143SAPE   C3515699   5.825   5.272   9.867  0.1933  0.6682 -0.2185
  143SAPE   H5X15700   5.931   5.240   9.872  0.0363  0.2786  0.7048
  143SAPE   H5Y15701   5.825   5.383   9.876 -0.1473  0.6459  0.0485
  143SAPE   C3615702   5.765   5.221   9.741  0.3034  0.7689  1.1991
  143SAPE   H6X15703   5.659   5.251   9.726 -0.1213 -1.5659 -1.7008
  143SAPE   H6Y15704   5.772   5.110   9.732  0.4502  0.9388 -2.0921
  143SAPE   C3715705   5.839   5.288   9.618  0.5356 -0.2547  0.4380
  143SAPE   H7X15706   5.950   5.281   9.614  0.5538  0.3123 -1.8233
  143SAPE   H7Y15707   5.809   5.395   9.622  1.5937  0.0230  1.7858
  143SAPE   C3815708   5.761   5.253   9.493  0.3451 -0.0409  0.1728
  143SAPE   H8X15709   5.656   5.247   9.530  0.0640  1.5604 -0.2897
  143SAPE   H8Y15710   5.789   5.148   9.467  1.6721  1.0824 -3.6478
  143SAPE   C3915711   5.798   5.329   9.370 -0.2343  0.4633  0.8698
  143SAPE   H9X15712   5.903   5.304   9.345  0.2655  1.6497  1.6701
  143SAPE   H9Y15713   5.778   5.438   9.377 -0.8149  0.4037  0.2167
  143SAPE  C31015714   5.720   5.278   9.246 -0.1735  0.0882 -0.4629
  143SAPE  H10X15715   5.610   5.287   9.252 -0.1748 -0.4014  0.3912
  143SAPE  H10Y15716   5.742   5.172   9.222  1.3758  0.9624 -3.4158
  143SAPE  C31115717   5.765   5.342   9.111  0.3758  0.0843 -1.2650
  143SAPE  H11X15718   5.873   5.319   9.102  0.3959  0.3915 -1.8237
  143SAPE  H11Y15719   5.762   5.453   9.116  1.6739  0.0870  0.0177
  143SAPE  C31215720   5.684   5.289   8.990  0.1954  0.1272  0.7502
  143SAPE  H12X15721   5.746   5.210   8.943 -1.2916 -1.1400  0.8324
  143SAPE  H12Y15722   5.676   5.369   8.912  1.2679 -1.9108 -1.5827
  143SAPE  C31315723   5.551   5.219   9.015 -0.1786  0.0295 -0.7631
  143SAPE  H13X15724   5.484   5.280   9.079 -0.4258  0.1105 -1.0958
  143SAPE  H13Y15725   5.581   5.123   9.063  1.7917  0.4385 -1.1085
  143SAPE  C31415726   5.462   5.199   8.892  0.1492  0.2412 -0.4986
  143SAPE  H14X15727   5.532   5.179   8.808  0.3719  1.6573 -0.6687
  143SAPE  H14Y15728   5.411   5.295   8.867 -1.5741 -0.5428 -0.1683
  143SAPE  C31515729   5.361   5.079   8.908  0.0368  0.1314 -0.0488
  143SAPE  H15X15730   5.295   5.102   8.995  0.3130  2.2889 -0.3464
  143SAPE  H15Y15731   5.416   4.987   8.936 -0.9844 -0.4669  0.0444
  143SAPE  C31615732   5.265   5.065   8.792 -0.0534  0.0588  0.7661
  143SAPE  H16X15733   5.206   5.158   8.784 -1.5849 -0.9825 -0.5946
  143SAPE  H16Y15734   5.196   4.980   8.810 -2.1068  0.8191 -2.6631
  143SAPE  C31715735   5.335   5.047   8.650  0.3989  0.3770  0.1780
  143SAPE  H17X15736   5.359   4.939   8.634  0.9796  0.7020 -1.3073
  143SAPE  H17Y15737   5.437   5.090   8.649  0.9763 -0.8677  1.4903
  143SAPE  C31815738   5.250   5.083   8.533 -0.8348 -0.4316  0.6135
  143SAPE  H18X15739   5.165   5.012   8.529  0.3096 -1.9053  1.5031
  143SAPE  H18Y15740   5.315   5.081   8.442 -0.2541  0.2108  1.0041
  143SAPE  H18Z15741   5.211   5.186   8.546  2.2030  1.0331 -0.7244
  144SAPE     N15742   1.887   2.925  11.086  0.0311  0.3741 -0.1368
  144SAPE   HN115743   1.793   2.943  11.047 -0.2211 -1.1674 -0.2920
  144SAPE   HN215744   1.881   2.942  11.189  2.4364 -3.5894  0.8921
  144SAPE   HN315745   1.951   2.997  11.046  1.9687 -1.5620 -0.7619
  144SAPE   C1215746   1.943   2.791  11.068 -0.3469  0.0826 -0.3107
  144SAPE  H12A15747   1.871   2.719  11.112  0.3337  0.1618  0.9635
  144SAPE  H12B15748   2.039   2.790  11.123  0.4916 -0.1246 -1.7156
  144SAPE   C1115749   1.968   2.752  10.916 -0.0890 -0.0912  0.5087
  144SAPE  H11A15750   2.004   2.647  10.915 -0.8287 -0.3745  1.6520
  144SAPE  H11B15751   2.041   2.819  10.867 -1.7305  0.2912 -1.5885
  144SAPE     P15752   1.834   2.720  10.693  0.5233 -0.0955  0.1037
  144SAPE   O1315753   1.814   2.573  10.681 -0.4126  0.5477 -0.0782
  144SAPE   O1415754   1.727   2.811  10.648  0.3510 -0.3155 -0.2277
  144SAPE   O1215755   1.844   2.760  10.843 -0.4285 -0.6794  0.0295
  144SAPE   O1115756   1.962   2.767  10.632 -0.2813  0.4468 -0.7095
  144SAPE    C115757   2.090   2.688  10.613 -0.2169  0.1301 -0.0007
  144SAPE    HA15758   2.180   2.744  10.643 -0.1940 -0.4292  1.0248
  144SAPE    HB15759   2.084   2.602  10.683  2.8611 -0.9582 -0.9245
  144SAPE    C215760   2.111   2.652  10.459 -0.1557  0.6176  0.2365
  144SAPE    HS15761   2.188   2.573  10.444 -1.0767 -0.5225  1.2821
  144SAPE   O2115762   2.143   2.780  10.389 -0.2632  0.0301  0.5992
  144SAPE   C2115763   2.270   2.800  10.382 -0.2408 -0.2482  0.3957
  144SAPE   O2215764   2.355   2.743  10.446 -0.0671 -0.4639  0.0619
  144SAPE   C2215765   2.309   2.907  10.275  0.0401  0.1056 -0.0956
  144SAPE   H2R15766   2.216   2.965  10.253  0.4241  0.4277 -0.8969
  144SAPE   H2S15767   2.371   2.971  10.341 -1.5671  0.5774  1.0408
  144SAPE    C315768   1.980   2.590  10.389  0.0237 -0.7105  0.2761
  144SAPE    HX15769   1.910   2.676  10.390 -0.6099 -1.0744 -3.0969
  144SAPE    HY15770   1.942   2.502  10.444 -0.5557 -1.9744 -2.0214
  144SAPE   O3115771   2.018   2.553  10.255  0.3414  0.2666 -0.3654
  144SAPE   C3115772   1.922   2.491  10.186 -0.0930 -0.8184  0.4820
  144SAPE   O3215773   1.815   2.469  10.237  0.7719  0.3011  0.2038
  144SAPE   C3215774   1.966   2.439  10.048  0.6616  0.5348  0.1822
  144SAPE   H2X15775   2.044   2.362  10.067  0.1923  0.0913  0.3556
  144SAPE   H2Y15776   2.005   2.524   9.989  3.8848 -1.9705 -1.6602
  144SAPE   C2315777   2.373   2.849  10.145 -0.3298  0.0449 -0.6675
  144SAPE   H3R15778   2.299   2.783  10.094  0.9055 -1.0967 -1.0487
  144SAPE   H3S15779   2.454   2.779  10.173  0.1412  0.2775 -1.4158
  144SAPE   C2415780   2.420   2.961  10.056 -0.4102 -0.4699  0.0940
  144SAPE   H4R15781   2.489   2.926   9.977  1.3963  3.1765 -0.1283
  144SAPE   H4S15782   2.474   3.019  10.134  0.8644 -2.3422  0.6583
  144SAPE   C2515783   2.304   3.043  10.011  0.7325 -0.5209  0.7038
  144SAPE   H5R15784   2.240   3.081  10.093  1.6496  0.7097  0.8621
  144SAPE   C2615785   2.279   3.095   9.888 -0.7344 -0.2146  0.1232
  144SAPE   H6R15786   2.198   3.166   9.864 -0.1217  0.3948 -0.1765
  144SAPE   C2715787   2.359   3.063   9.756 -0.1780  0.2598  0.4399
  144SAPE   H7R15788   2.463   3.081   9.788  1.0823 -1.5094 -2.2629
  144SAPE   H7S15789   2.335   3.155   9.699 -0.1934  0.1857  0.3270
  144SAPE   C2815790   2.347   2.937   9.676 -0.1413 -0.3190  0.0313
  144SAPE   H8R15791   2.327   2.850   9.740  1.1123  0.0636  0.9669
  144SAPE   C2915792   2.396   2.924   9.551 -0.3782  0.4915  0.0300
  144SAPE   H9R15793   2.381   2.825   9.504  2.8455 -0.4722  0.8094
  144SAPE  C21015794   2.440   3.028   9.447  0.2217 -0.1810 -0.7266
  144SAPE  H10R15795   2.410   3.128   9.487  0.4600 -0.3777 -0.0398
  144SAPE  H10S15796   2.382   3.019   9.353 -0.1783 -1.7410 -0.3636
  144SAPE  C21115797   2.584   3.047   9.441 -0.1144  0.2638 -0.0917
  144SAPE  H11R15798   2.620   3.080   9.539 -1.7919  0.2129  0.5648
  144SAPE  C21215799   2.670   3.010   9.346 -0.2163 -0.8313  0.2281
  144SAPE  H12R15800   2.777   3.030   9.357  0.1097 -1.4298 -1.5372
  144SAPE  C21315801   2.626   2.955   9.207 -0.1354  0.9441  0.7262
  144SAPE  H13R15802   2.537   2.889   9.219  1.0344 -1.0854 -1.1123
  144SAPE  H13S15803   2.699   2.879   9.172 -2.6567 -0.0220 -3.1127
  144SAPE  C21415804   2.609   3.070   9.104  0.3694  0.2367 -0.0707
  144SAPE  H14R15805   2.545   3.153   9.138  0.6447 -0.4592  2.3959
  144SAPE  C21515806   2.670   3.081   8.988 -0.0500  0.1667  0.7574
  144SAPE  H15R15807   2.645   3.167   8.926 -0.2493 -0.1242  0.4335
  144SAPE  C21615808   2.774   2.977   8.934 -0.2497 -0.0538  0.9853
  144SAPE  H16R15809   2.726   2.878   8.919 -2.6110  1.0571  0.8004
  144SAPE  H16S15810   2.851   2.958   9.012  1.3767  2.0995 -0.0131
  144SAPE  C21715811   2.839   3.038   8.814 -0.6310 -0.3010 -0.1349
  144SAPE  H17R15812   2.934   2.983   8.793  1.3991  1.8238  2.5932
  144SAPE  H17S15813   2.875   3.140   8.837 -0.5538 -0.4895  0.6103
  144SAPE  C21815814   2.747   3.035   8.693  0.3700  0.0409  0.0814
  144SAPE  H18R15815   2.659   3.100   8.708  0.1060  0.2774 -2.1664
  144SAPE  H18S15816   2.706   2.935   8.666 -0.0107 -0.2860  1.7123
  144SAPE  C21915817   2.814   3.092   8.559  0.3863 -0.3490 -0.0152
  144SAPE  H19R15818   2.794   3.017   8.480  0.6924  0.4685 -0.8924
  144SAPE  H19S15819   2.923   3.080   8.574  0.0227 -1.8676  1.8409
  144SAPE  C22015820   2.762   3.223   8.508  0.0065  0.0300 -0.2389
  144SAPE  H20R15821   2.795   3.271   8.414 -0.9521  2.1142  0.4234
  144SAPE  H20S15822   2.770   3.301   8.587  2.1116 -2.0277  1.7224
  144SAPE  H20T15823   2.654   3.204   8.490 -0.1692  0.6238  0.1328
  144SAPE   C3315824   1.855   2.357   9.982 -0.1923 -0.8440  0.0309
  144SAPE   H3X15825   1.779   2.436   9.967  0.6756  0.1689  0.8133
  144SAPE   H3Y15826   1.808   2.282  10.050  0.1432 -0.7386  0.3842
  144SAPE   C3415827   1.897   2.299   9.853 -0.7730 -0.1675  0.9559
  144SAPE   H4X15828   1.989   2.240   9.871  0.0057  0.5730 -0.3961
  144SAPE   H4Y15829   1.924   2.383   9.784  2.0739 -1.3577  0.4896
  144SAPE   C3515830   1.781   2.231   9.788  0.4099  0.4016  0.4698
  144SAPE   H5X15831   1.699   2.303   9.765 -1.1267 -1.4688 -0.2323
  144SAPE   H5Y15832   1.730   2.177   9.872  1.1427  0.8766  1.2363
  144SAPE   C3615833   1.805   2.143   9.661 -0.5524  0.0888 -0.4466
  144SAPE   H6X15834   1.731   2.060   9.663 -1.1655  0.5710  3.0640
  144SAPE   H6Y15835   1.903   2.092   9.666 -0.3322  0.4903 -0.5711
  144SAPE   C3715836   1.801   2.226   9.535 -0.3273 -0.2274  0.4284
  144SAPE   H7X15837   1.883   2.301   9.534 -0.5215 -0.0048  0.8949
  144SAPE   H7Y15838   1.701   2.271   9.519 -0.4730 -0.6159  0.2309
  144SAPE   C3815839   1.818   2.139   9.413 -0.1977  0.0691  0.3538
  144SAPE   H8X15840   1.736   2.064   9.415 -0.3085 -0.0039 -2.5970
  144SAPE   H8Y15841   1.917   2.089   9.410  0.3308  1.0741  0.5425
  144SAPE   C3915842   1.796   2.211   9.278  0.5387 -0.1086 -0.0624
  144SAPE   H9X15843   1.864   2.298   9.273  1.8974 -1.2012 -1.7249
  144SAPE   H9Y15844   1.691   2.246   9.280 -0.5166 -2.9739  1.9997
  144SAPE  C31015845   1.816   2.131   9.154 -0.1101  0.0270 -0.1884
  144SAPE  H10X15846   1.779   2.026   9.161  1.7085 -0.5620  1.4296
  144SAPE  H10Y15847   1.925   2.124   9.135 -0.1995  1.4719 -1.4397
  144SAPE  C31115848   1.745   2.202   9.040 -0.1033  0.9017 -0.2559
  144SAPE  H11X15849   1.800   2.296   9.020 -0.3258  1.3552  1.1028
  144SAPE  H11Y15850   1.648   2.241   9.076 -1.3567 -0.7760 -1.6788
  144SAPE  C31215851   1.728   2.105   8.920 -0.1651  0.3493 -0.2813
  144SAPE  H12X15852   1.678   2.012   8.954  0.8812 -0.2248 -0.2909
  144SAPE  H12Y15853   1.830   2.086   8.881  0.6250 -0.0919  1.8797
  144SAPE  C31315854   1.638   2.171   8.807 -0.1037 -0.2883 -0.0015
  144SAPE  H13X15855   1.692   2.263   8.777 -0.0930 -0.2879  0.0185
  144SAPE  H13Y15856   1.536   2.204   8.837  0.1220 -0.7577  1.3384
  144SAPE  C31415857   1.634   2.094   8.675 -0.1435  0.4158  0.0496
  144SAPE  H14X15858   1.592   1.992   8.687 -0.4639  0.5649  0.2229
  144SAPE  H14Y15859   1.739   2.087   8.639  0.4070 -0.6026  1.7645
  144SAPE  C31515860   1.548   2.167   8.560 -0.0584  0.3593 -0.7099
  144SAPE  H15X15861   1.605   2.257   8.532  1.1233  0.1700  0.9817
  144SAPE  H15Y15862   1.454   2.195   8.612  0.5515 -0.4252  0.8670
  144SAPE  C31615863   1.531   2.084   8.430 -0.2089 -0.7604  0.3235
  144SAPE  H16X15864   1.487   1.985   8.457 -0.9861 -0.3701  0.5249
  144SAPE  H16Y15865   1.633   2.071   8.388  0.0929  2.3204 -0.0978
  144SAPE  C31715866   1.436   2.152   8.327 -0.3750  0.3709 -0.2063
  144SAPE  H17X15867   1.335   2.156   8.374  0.3138  0.6532  1.3105
  144SAPE  H17Y15868   1.439   2.098   8.230  1.0790  0.5977 -0.2987
  144SAPE  C31815869   1.475   2.298   8.302 -0.7097 -0.2170  0.1210
  144SAPE  H18X15870   1.396   2.348   8.241 -0.9335  0.3867  0.8869
  144SAPE  H18Y15871   1.580   2.308   8.267 -0.9424  1.0378 -0.2659
  144SAPE  H18Z15872   1.466   2.350   8.399 -0.0820  0.3934 -0.1352
  145SAPE     N15873   5.751   4.892  11.051 -0.0088  0.0226 -1.4054
  145SAPE   HN115874   5.683   4.863  10.977 -0.2760 -1.0197 -0.7772
  145SAPE   HN215875   5.787   4.806  11.098  1.8522  2.1986  1.4187
  145SAPE   HN315876   5.689   4.931  11.125 -1.0278 -1.9814 -1.1320
  145SAPE   C1215877   5.857   4.984  10.995  0.1341 -0.1878 -0.4054
  145SAPE  H12A15878   5.813   5.085  10.981  2.4694  0.7716 -1.2833
  145SAPE  H12B15879   5.902   4.929  10.910 -1.1873  0.4076 -1.5203
  145SAPE   C1115880   5.979   5.011  11.092  0.0662  0.2184  0.0587
  145SAPE  H11A15881   6.017   4.914  11.130 -4.0711 -1.0477  1.5346
  145SAPE  H11B15882   5.933   5.054  11.183 -1.0798  0.5756 -0.6584
  145SAPE     P15883   6.226   5.088  11.051  0.4526 -0.1588  0.1480
  145SAPE   O1315884   6.288   5.209  11.101  0.1500 -0.3324  0.4776
  145SAPE   O1415885   6.256   4.960  11.119 -0.1043  0.9379 -0.0214
  145SAPE   O1215886   6.064   5.112  11.032  0.3036 -0.0859  0.2360
  145SAPE   O1115887   6.286   5.074  10.904 -0.3591 -0.8673 -0.1479
  145SAPE    C115888   6.211   5.025  10.789  0.3215 -0.0049  0.8260
  145SAPE    HA15889   6.103   5.054  10.788  0.4499  0.4983 -0.3865
  145SAPE    HB15890   6.254   5.074  10.699 -1.7580  0.7653  0.1721
  145SAPE    C215891   6.220   4.873  10.767 -0.7028 -0.3707 -0.2702
  145SAPE    HS15892   6.224   4.829  10.869  0.7695 -1.0366 -0.5886
  145SAPE   O2115893   6.347   4.845  10.709 -0.0299 -0.0324  0.6453
  145SAPE   C2115894   6.397   4.728  10.712 -0.3619  0.2335  0.1138
  145SAPE   O2215895   6.346   4.629  10.763  0.0827  1.3525 -0.0044
  145SAPE   C2215896   6.528   4.724  10.631  0.6917 -0.2778 -0.6530
  145SAPE   H2R15897   6.504   4.743  10.524 -0.5012 -0.5487 -0.4484
  145SAPE   H2S15898   6.600   4.799  10.670 -0.2425 -0.9230  2.6459
  145SAPE    C315899   6.111   4.822  10.675 -0.6813  0.0539 -0.1074
  145SAPE    HX15900   6.018   4.821  10.736  0.0172  2.7119  1.1505
  145SAPE    HY15901   6.129   4.716  10.651  0.5326  0.4307 -0.9340
  145SAPE   O3115902   6.096   4.894  10.554 -0.0397  0.7594 -0.0992
  145SAPE   C3115903   6.112   4.825  10.438  0.7703  0.7572 -1.0707
  145SAPE   O3215904   6.148   4.712  10.429  0.2183 -0.5548  0.2918
  145SAPE   C3215905   6.076   4.919  10.326 -0.3254 -0.1340 -0.3529
  145SAPE   H2X15906   6.113   5.019  10.360 -1.5869 -0.2457  1.5364
  145SAPE   H2Y15907   5.965   4.919  10.326 -0.3634  0.9585  1.2502
  145SAPE   C2315908   6.598   4.589  10.630  0.4742  0.2730 -0.0694
  145SAPE   H3R15909   6.542   4.525  10.559  1.9568 -0.3731 -0.6842
  145SAPE   H3S15910   6.600   4.538  10.729 -0.4526 -0.1765 -0.2720
  145SAPE   C2415911   6.744   4.613  10.600  0.3299 -0.1633  0.9775
  145SAPE   H4R15912   6.796   4.670  10.679 -0.6449 -1.8689  2.9714
  145SAPE   H4S15913   6.750   4.686  10.517  1.2752 -0.3849  0.8396
  145SAPE   C2515914   6.825   4.496  10.557  0.3315  0.1915  0.2064
  145SAPE   H5R15915   6.848   4.414  10.627  1.8277 -1.2309 -1.8454
  145SAPE   C2615916   6.875   4.473  10.439  0.2390 -0.2870  0.6676
  145SAPE   H6R15917   6.911   4.371  10.418 -0.1762 -0.2471 -0.2981
  145SAPE   C2715918   6.855   4.559  10.318 -0.1551 -0.0449 -0.2304
  145SAPE   H7R15919   6.749   4.588  10.304 -0.1605  0.3269  0.4826
  145SAPE   H7S15920   6.880   4.494  10.231 -0.6553  0.2512 -0.5976
  145SAPE   C2815921   6.940   4.677  10.295 -0.6121  0.1741 -0.3088
  145SAPE   H8R15922   7.005   4.715  10.376  0.4692  2.0097 -1.9321
  145SAPE   C2915923   6.934   4.755  10.178  0.2971  0.0543 -0.3795
  145SAPE   H9R15924   7.002   4.840  10.164  2.5865 -1.2241  1.9997
  145SAPE  C21015925   6.843   4.730  10.072  0.1940  0.7442  0.1809
  145SAPE  H10R15926   6.743   4.775  10.089  0.5609  0.9458  1.9413
  145SAPE  H10S15927   6.826   4.620  10.062 -0.9360  1.0906 -2.7860
  145SAPE  C21115928   6.886   4.779   9.938 -0.1022  0.4175  0.5782
  145SAPE  H11R15929   6.925   4.882   9.936 -2.1726  1.2468  1.2692
  145SAPE  C21215930   6.898   4.707   9.822  0.0893  0.3028 -0.6857
  145SAPE  H12R15931   6.947   4.765   9.743  2.0513 -1.0855 -0.5769
  145SAPE  C21315932   6.864   4.560   9.799  0.1786  0.1013 -0.4985
  145SAPE  H13R15933   6.754   4.547   9.791  0.0397  0.1360  1.1214
  145SAPE  H13S15934   6.882   4.510   9.896 -2.4077  0.8382  0.4611
  145SAPE  C21415935   6.936   4.488   9.684  1.1462 -0.7557  0.1544
  145SAPE  H14R15936   6.987   4.393   9.705  1.8937 -0.7143 -1.3644
  145SAPE  C21515937   6.926   4.512   9.556 -0.0383 -0.1644  0.4350
  145SAPE  H15R15938   6.993   4.449   9.495 -0.3198  1.1037 -1.2672
  145SAPE  C21615939   6.851   4.625   9.488 -0.2442  0.7173  0.3600
  145SAPE  H16R15940   6.791   4.695   9.551  0.4908  3.7891 -2.0880
  145SAPE  H16S15941   6.764   4.584   9.432 -0.7061  1.7913  0.2599
  145SAPE  C21715942   6.928   4.721   9.385 -0.2640  0.1228  0.3720
  145SAPE  H17R15943   7.009   4.781   9.434  1.1966 -1.3480 -0.1491
  145SAPE  H17S15944   6.849   4.793   9.357  1.8824  2.0482 -1.1422
  145SAPE  C21815945   6.973   4.659   9.251 -0.3754 -0.5446  0.3370
  145SAPE  H18R15946   7.024   4.564   9.277  0.7857 -0.2956 -0.9094
  145SAPE  H18S15947   7.043   4.722   9.192 -1.3953  0.7116  0.4167
  145SAPE  C21915948   6.856   4.628   9.152 -0.3412 -0.5249 -0.2550
  145SAPE  H19R15949   6.810   4.725   9.125 -1.7403 -1.8069 -2.8205
  145SAPE  H19S15950   6.787   4.557   9.203  0.6601 -2.0047 -0.8951
  145SAPE  C22015951   6.906   4.563   9.028 -0.4894  0.3403 -0.1415
  145SAPE  H20R15952   6.954   4.640   8.964  1.3642  0.1809  0.9934
  145SAPE  H20S15953   6.828   4.517   8.964 -0.3503 -1.9943  1.2483
  145SAPE  H20T15954   6.979   4.483   9.052 -0.5806  1.1501  3.3930
  145SAPE   C3315955   6.158   4.892  10.195 -0.2526  0.5245 -0.0134
  145SAPE   H3X15956   6.126   4.968  10.120 -2.3614  0.7394  1.0350
  145SAPE   H3Y15957   6.128   4.794  10.152 -0.7621  0.9669 -0.6918
  145SAPE   C3415958   6.307   4.894  10.225  0.2100  0.1192 -0.6499
  145SAPE   H4X15959   6.330   4.802  10.282  1.4125  0.2585 -0.8835
  145SAPE   H4Y15960   6.332   4.976  10.296  0.8933 -1.9249  1.5864
  145SAPE   C3515961   6.395   4.906  10.094  0.1144 -0.0061 -0.6657
  145SAPE   H5X15962   6.500   4.891  10.127  0.1371  2.7572  0.7827
  145SAPE   H5Y15963   6.381   5.012  10.063 -1.0625  0.1395  0.2874
  145SAPE   C3615964   6.368   4.813   9.968  0.1289 -1.0947 -0.8538
  145SAPE   H6X15965   6.264   4.811   9.930 -0.1580  2.3355 -0.5766
  145SAPE   H6Y15966   6.396   4.708   9.990 -2.8979 -1.7824  0.1211
  145SAPE   C3715967   6.461   4.858   9.858 -0.8120 -0.3637  0.1159
  145SAPE   H7X15968   6.565   4.860   9.896 -0.6204 -0.6258 -0.3765
  145SAPE   H7Y15969   6.436   4.963   9.831  1.2692 -0.1425 -1.1147
  145SAPE   C3815970   6.436   4.765   9.742  0.4024 -0.6240  0.5191
  145SAPE   H8X15971   6.326   4.761   9.728  0.3126 -0.5086  1.1625
  145SAPE   H8Y15972   6.482   4.664   9.757  1.1366 -0.5557 -1.0741
  145SAPE   C3915973   6.486   4.815   9.613 -0.1638 -0.0213 -0.1848
  145SAPE   H9X15974   6.597   4.810   9.615 -0.1164  0.9151  2.0386
  145SAPE   H9Y15975   6.462   4.923   9.606  2.1755  0.4767 -2.8019
  145SAPE  C31015976   6.425   4.733   9.497  0.1612 -0.6173 -1.0922
  145SAPE  H10X15977   6.317   4.752   9.513  0.4281  1.0589 -1.0525
  145SAPE  H10Y15978   6.447   4.625   9.507 -0.5688 -0.6148  0.9929
  145SAPE  C31115979   6.461   4.795   9.366 -0.7263  0.3540  0.5124
  145SAPE  H11X15980   6.569   4.785   9.344 -1.3765 -1.1415 -2.4908
  145SAPE  H11Y15981   6.433   4.901   9.349 -0.1182  0.3387 -0.6902
  145SAPE  C31215982   6.405   4.713   9.249  0.0405 -0.8209  0.4198
  145SAPE  H12X15983   6.294   4.721   9.240  0.1172 -0.3621 -0.1749
  145SAPE  H12Y15984   6.434   4.607   9.267  0.2721 -1.0798 -1.3139
  145SAPE  C31315985   6.475   4.746   9.113 -0.0156 -0.4082 -0.0715
  145SAPE  H13X15986   6.427   4.679   9.039  0.1395 -0.1090 -0.4462
  145SAPE  H13Y15987   6.580   4.719   9.137  1.1624  1.7178 -2.3662
  145SAPE  C31415988   6.454   4.886   9.052  0.7213 -0.1550 -0.3843
  145SAPE  H14X15989   6.469   4.969   9.124 -2.1733 -0.4417  0.6837
  145SAPE  H14Y15990   6.343   4.883   9.046  0.6290 -0.4364  1.0548
  145SAPE  C31515991   6.520   4.924   8.924  0.2570  0.2159 -0.5773
  145SAPE  H15X15992   6.630   4.918   8.939  0.3492  1.6162 -0.5817
  145SAPE  H15Y15993   6.487   5.026   8.894  1.2837  0.4205 -1.0507
  145SAPE  C31615994   6.478   4.839   8.796 -0.9408 -0.1541  0.4281
  145SAPE  H16X15995   6.372   4.814   8.819 -1.0539 -0.2786 -0.2141
  145SAPE  H16Y15996   6.539   4.746   8.792  0.0603  0.5056  0.0464
  145SAPE  C31715997   6.495   4.904   8.654  0.3704 -0.2705 -0.6245
  145SAPE  H17X15998   6.602   4.930   8.642  0.3475 -0.1251 -0.5092
  145SAPE  H17Y15999   6.434   4.996   8.639  0.4062 -0.1540 -0.0520
  145SAPE  C31816000   6.456   4.805   8.547 -0.6555 -0.3899  0.6842
  145SAPE  H18X16001   6.359   4.754   8.564 -1.1992 -0.7815 -2.8524
  145SAPE  H18Y16002   6.538   4.731   8.549  0.8012  1.1048 -0.7674
  145SAPE  H18Z16003   6.452   4.850   8.446 -0.0606 -1.5450  0.1291
  146SAPE     N16004   3.308   3.671  10.763 -0.2374 -0.9163 -0.5161
  146SAPE   HN116005   3.366   3.611  10.825  1.3711  1.1008  0.0353
  146SAPE   HN216006   3.367   3.741  10.714 -0.7258 -0.2253 -0.1281
  146SAPE   HN316007   3.244   3.726  10.824  0.4508 -2.0606  1.3133
  146SAPE   C1216008   3.240   3.596  10.659 -0.0075 -0.5084 -0.3343
  146SAPE  H12A16009   3.183   3.668  10.597 -0.8004 -1.0210 -0.2104
  146SAPE  H12B16010   3.166   3.530  10.710 -1.9607  1.0969 -0.9754
  146SAPE   C1116011   3.339   3.527  10.569 -0.3551  0.7665 -1.2997
  146SAPE  H11A16012   3.384   3.613  10.515  0.3704  2.5910  1.9510
  146SAPE  H11B16013   3.287   3.449  10.509 -1.7204 -0.2822  1.1010
  146SAPE     P16014   3.421   3.344  10.749  0.5092 -0.0566  0.0494
  146SAPE   O1316015   3.544   3.266  10.779  0.3849  0.2846  0.3919
  146SAPE   O1416016   3.341   3.391  10.868 -0.5769 -0.4781  0.2046
  146SAPE   O1216017   3.445   3.468  10.644  0.7265 -0.1484 -0.6604
  146SAPE   O1116018   3.325   3.249  10.665 -0.1089  0.0285 -0.4860
  146SAPE    C116019   3.365   3.123  10.627  0.1247  1.1911  1.3386
  146SAPE    HA16020   3.402   3.059  10.710  2.8187  1.0592  0.1285
  146SAPE    HB16021   3.278   3.068  10.584 -0.1484  1.8144  1.0761
  146SAPE    C216022   3.481   3.123  10.513 -0.3371 -0.5193 -0.4850
  146SAPE    HS16023   3.572   3.151  10.570 -1.5750 -0.6462  1.6611
  146SAPE   O2116024   3.444   3.227  10.417  0.3818 -0.4388  0.1286
  146SAPE   C2116025   3.550   3.295  10.377  1.0354 -0.4791  0.3101
  146SAPE   O2216026   3.664   3.275  10.411  0.1478  0.3377 -0.2739
  146SAPE   C2216027   3.508   3.405  10.275 -0.3270 -0.2913  0.1555
  146SAPE   H2R16028   3.420   3.457  10.318  1.0138  0.8799  1.5818
  146SAPE   H2S16029   3.594   3.474  10.274  0.0433 -0.7032 -1.7718
  146SAPE    C316030   3.488   2.982  10.442 -0.2730 -0.1129  0.0471
  146SAPE    HX16031   3.395   2.981  10.383  0.0223  3.8232 -0.7467
  146SAPE    HY16032   3.495   2.907  10.524  1.6138  2.1155  2.0910
  146SAPE   O3116033   3.601   2.964  10.352  0.2812 -0.2733  0.3278
  146SAPE   C3116034   3.726   2.949  10.399 -0.4337  0.3816 -0.5305
  146SAPE   O3216035   3.761   2.909  10.506  0.0386  0.3830 -0.4867
  146SAPE   C3216036   3.820   2.990  10.282  0.5011  0.3063 -0.0478
  146SAPE   H2X16037   3.766   3.027  10.192  2.3679  1.7890 -0.6230
  146SAPE   H2Y16038   3.867   2.895  10.250  0.8341 -0.3215  2.1063
  146SAPE   C2316039   3.480   3.348  10.137  0.4300 -0.4109  0.8776
  146SAPE   H3R16040   3.453   3.436  10.075  2.5752 -1.6632 -2.0449
  146SAPE   H3S16041   3.392   3.281  10.138 -2.5192  3.1152  0.0195
  146SAPE   C2416042   3.594   3.281  10.065  0.4676  0.2307 -0.7903
  146SAPE   H4R16043   3.554   3.256   9.964  1.2208  0.5511 -1.1737
  146SAPE   H4S16044   3.622   3.180  10.102  1.4905  1.0091  0.6326
  146SAPE   C2516045   3.728   3.357  10.064  0.3250 -0.0485 -0.7061
  146SAPE   H5R16046   3.762   3.361  10.168 -1.0455  1.0457 -0.2647
  146SAPE   C2616047   3.795   3.407   9.961  0.0049 -0.2654  0.5167
  146SAPE   H6R16048   3.884   3.470   9.978  0.5587 -0.5347 -1.2377
  146SAPE   C2716049   3.757   3.409   9.814  0.0058  0.2988 -0.0419
  146SAPE   H7R16050   3.814   3.495   9.774  1.9049  0.1734  2.1709
  146SAPE   H7S16051   3.649   3.432   9.803  0.1262  0.1282 -1.7333
  146SAPE   C2816052   3.776   3.276   9.761  0.1866  0.3661  0.2059
  146SAPE   H8R16053   3.770   3.191   9.831  0.4531  0.8029  0.7760
  146SAPE   C2916054   3.809   3.251   9.634 -0.4690 -0.1426  0.0803
  146SAPE   H9R16055   3.826   3.145   9.609  2.2899  0.3727 -0.5322
  146SAPE  C21016056   3.839   3.358   9.533  0.1150 -0.3997  0.3086
  146SAPE  H10R16057   3.909   3.439   9.563  0.9056 -1.4498  1.3590
  146SAPE  H10S16058   3.743   3.409   9.507 -0.2473  0.6948  3.4046
  146SAPE  C21116059   3.899   3.305   9.404 -0.7975  0.2948 -0.1241
  146SAPE  H11R16060   3.913   3.197   9.397 -1.6991 -0.1120  2.9496
  146SAPE  C21216061   3.936   3.389   9.297  0.3002  0.7233 -0.8649
  146SAPE  H12R16062   3.994   3.351   9.212 -1.5078  0.8264 -2.1878
  146SAPE  C21316063   3.923   3.538   9.282 -0.1938  0.4211 -0.5907
  146SAPE  H13R16064   3.856   3.573   9.363  0.4323 -0.5239  0.3699
  146SAPE  H13S16065   3.864   3.556   9.190  0.3994  2.1222 -0.6772
  146SAPE  C21416066   4.047   3.615   9.278  0.3363  0.4767 -0.5671
  146SAPE  H14R16067   4.096   3.618   9.376  2.1203 -0.8598 -1.3671
  146SAPE  C21516068   4.106   3.669   9.169 -0.3865  0.2321  1.3881
  146SAPE  H15R16069   4.180   3.749   9.184  0.7815 -0.6336  0.4765
  146SAPE  C21616070   4.061   3.671   9.021 -0.1381 -0.0220 -0.8624
  146SAPE  H16R16071   3.964   3.621   9.001  0.5486 -1.6415 -0.2583
  146SAPE  H16S16072   4.130   3.623   8.949 -0.2785 -2.3438  0.4624
  146SAPE  C21716073   4.043   3.814   8.969  0.3108  0.1517 -0.1770
  146SAPE  H17R16074   4.129   3.882   8.987  0.3424  0.2113 -0.5399
  146SAPE  H17S16075   3.950   3.849   9.020 -1.8773 -0.3274 -3.5022
  146SAPE  C21816076   4.005   3.820   8.816  0.7056 -1.0870  0.6455
  146SAPE  H18R16077   3.951   3.915   8.796 -0.4408 -1.6710  0.8895
  146SAPE  H18S16078   3.931   3.739   8.797 -0.4109  0.2279 -0.9242
  146SAPE  C21916079   4.124   3.809   8.721  0.5019  0.1222 -0.3739
  146SAPE  H19R16080   4.168   3.707   8.724 -1.1815 -0.6181  0.8588
  146SAPE  H19S16081   4.197   3.892   8.738 -0.5734  0.8447  0.9292
  146SAPE  C22016082   4.074   3.819   8.574 -0.2826 -0.0578  0.1464
  146SAPE  H20R16083   4.042   3.921   8.545 -0.9235 -0.1944  0.3555
  146SAPE  H20S16084   3.998   3.739   8.558  0.4714 -0.3336 -2.4099
  146SAPE  H20T16085   4.151   3.798   8.498 -1.1304  3.4057 -1.8917
  146SAPE   C3316086   3.927   3.093  10.334  0.2658  0.3246 -0.6222
  146SAPE   H3X16087   3.991   3.032  10.400 -0.6815  0.2972  0.2998
  146SAPE   H3Y16088   3.870   3.176  10.381  1.8397 -0.5994  3.3209
  146SAPE   C3416089   4.011   3.132  10.214 -0.0295  0.7642 -0.4054
  146SAPE   H4X16090   3.952   3.180  10.133 -1.9098 -2.8421 -1.4286
  146SAPE   H4Y16091   4.054   3.043  10.164 -2.7362 -0.0021 -1.5896
  146SAPE   C3516092   4.121   3.233  10.256  0.2599  0.1890 -0.7974
  146SAPE   H5X16093   4.163   3.196  10.352 -2.5543 -2.7025 -0.5051
  146SAPE   H5Y16094   4.083   3.334  10.280 -1.3372 -1.1419  3.0932
  146SAPE   C3616095   4.240   3.233  10.159  0.4692 -0.1361 -0.1198
  146SAPE   H6X16096   4.273   3.128  10.144  0.2179 -0.1008 -0.9676
  146SAPE   H6Y16097   4.311   3.307  10.201  1.0444 -0.9871  0.4400
  146SAPE   C3716098   4.198   3.289  10.023  0.1656 -0.3657 -0.3472
  146SAPE   H7X16099   4.177   3.396  10.042  1.5831 -0.1784  0.3226
  146SAPE   H7Y16100   4.118   3.223   9.983  0.2706 -0.3248 -0.6276
  146SAPE   C3816101   4.308   3.281   9.921 -0.1981  0.7010  0.1393
  146SAPE   H8X16102   4.335   3.175   9.899  2.7019  1.4805 -0.4561
  146SAPE   H8Y16103   4.397   3.321   9.973 -1.5675  0.9348  2.4029
  146SAPE   C3916104   4.279   3.356   9.789  0.2741  0.0569  0.3107
  146SAPE   H9X16105   4.234   3.453   9.820 -1.0193 -1.2270  2.7438
  146SAPE   H9Y16106   4.215   3.293   9.724  0.9791  1.0296 -1.3706
  146SAPE  C31016107   4.405   3.381   9.707  0.4475 -0.5950 -0.1955
  146SAPE  H10X16108   4.477   3.297   9.708  0.7717 -0.3318 -0.6608
  146SAPE  H10Y16109   4.452   3.466   9.762  0.0138 -0.6714  0.2978
  146SAPE  C31116110   4.363   3.410   9.567 -0.3605 -0.1192  0.0439
  146SAPE  H11X16111   4.284   3.488   9.576  0.2037  0.5609 -0.7858
  146SAPE  H11Y16112   4.318   3.318   9.523 -1.2488  1.4026 -2.4912
  146SAPE  C31216113   4.482   3.460   9.478  0.6003  0.3244 -0.7290
  146SAPE  H12X16114   4.557   3.379   9.489  0.0962 -0.2698 -1.5507
  146SAPE  H12Y16115   4.517   3.558   9.518  1.2221 -1.3525  3.2899
  146SAPE  C31316116   4.455   3.476   9.326 -0.2061  0.4769  0.0665
  146SAPE  H13X16117   4.553   3.488   9.275 -0.5677  1.1855 -0.4886
  146SAPE  H13Y16118   4.408   3.574   9.303  1.0647  1.3513  1.0659
  146SAPE  C31416119   4.378   3.361   9.261 -0.2659 -0.2567 -0.2143
  146SAPE  H14X16120   4.277   3.363   9.306 -0.0581 -0.2484  0.2552
  146SAPE  H14Y16121   4.419   3.262   9.288 -0.7697 -0.4945 -0.3145
  146SAPE  C31516122   4.364   3.371   9.111  0.4559 -0.4967  0.0078
  146SAPE  H15X16123   4.301   3.457   9.079 -1.4942 -2.3659 -1.5662
  146SAPE  H15Y16124   4.306   3.282   9.078 -0.5434 -0.4596  1.5904
  146SAPE  C31616125   4.493   3.385   9.036 -0.2591  0.1972  0.1456
  146SAPE  H16X16126   4.564   3.303   9.057 -1.9754 -1.3938  0.0040
  146SAPE  H16Y16127   4.552   3.474   9.066  0.8022 -0.6822  0.7065
  146SAPE  C31716128   4.474   3.394   8.882  0.2183 -0.0065 -0.5402
  146SAPE  H17X16129   4.388   3.330   8.854  0.8071 -0.8737 -0.3792
  146SAPE  H17Y16130   4.558   3.353   8.823  1.1491  0.9794  0.0523
  146SAPE  C31816131   4.453   3.547   8.841 -1.2600  0.4618 -0.0861
  146SAPE  H18X16132   4.365   3.594   8.889 -0.7362  2.4552 -0.9678
  146SAPE  H18Y16133   4.431   3.542   8.732 -2.5234 -1.5377  0.2119
  146SAPE  H18Z16134   4.542   3.609   8.868 -0.8075 -1.1677  2.5585
  147SAPE     N16135   4.848   0.887   6.236 -0.4563 -0.8006  0.2214
  147SAPE   HN116136   4.941   0.884   6.283 -0.1451 -0.6296 -0.3795
  147SAPE   HN216137   4.870   0.863   6.138 -2.4422  1.2299 -0.8097
  147SAPE   HN316138   4.816   0.985   6.243 -3.4025 -1.7923  3.2862
  147SAPE   C1216139   4.733   0.814   6.305 -0.1011  0.0269  0.4013
  147SAPE  H12A16140   4.702   0.866   6.398 -0.0417  1.7176 -0.4854
  147SAPE  H12B16141   4.771   0.714   6.335 -0.8674  0.3744  2.7018
  147SAPE   C1116142   4.603   0.792   6.225 -0.4246  0.0012  0.0174
  147SAPE  H11A16143   4.549   0.725   6.296  0.6454 -1.6412 -0.6501
  147SAPE  H11B16144   4.618   0.724   6.138  0.4267 -0.0286  0.1818
  147SAPE     P16145   4.378   0.913   6.203  0.2203  0.1135 -0.4167
  147SAPE   O1316146   4.318   1.029   6.145 -0.0134 -0.8570 -0.3404
  147SAPE   O1416147   4.335   0.779   6.147 -0.4868  0.0307 -0.7171
  147SAPE   O1216148   4.532   0.914   6.185 -0.2508  0.3610 -0.2647
  147SAPE   O1116149   4.365   0.917   6.355 -0.1047  0.3513  0.1185
  147SAPE    C116150   4.450   1.000   6.428 -0.5314 -0.5440 -0.2025
  147SAPE    HA16151   4.495   0.949   6.515 -0.9862 -1.1687 -0.3269
  147SAPE    HB16152   4.534   1.041   6.367 -0.1190 -3.1328 -1.5503
  147SAPE    C216153   4.379   1.118   6.496  0.1519 -0.1011 -0.0202
  147SAPE    HS16154   4.462   1.172   6.546  1.4359 -1.2401 -0.8122
  147SAPE   O2116155   4.286   1.067   6.599  0.1370  0.1649 -0.7353
  147SAPE   C2116156   4.338   1.032   6.715  0.1892  0.3202  0.2231
  147SAPE   O2216157   4.458   1.042   6.745 -0.4188  0.2289  0.1961
  147SAPE   C2216158   4.231   0.989   6.810  0.1967  0.1953 -0.2085
  147SAPE   H2R16159   4.132   0.999   6.760  0.4388 -1.5004 -1.1177
  147SAPE   H2S16160   4.248   0.881   6.833  2.0911  0.0861 -1.9285
  147SAPE    C316161   4.298   1.216   6.401  0.2552 -0.0567  0.7053
  147SAPE    HX16162   4.219   1.148   6.362 -0.6604  2.2838 -1.8296
  147SAPE    HY16163   4.361   1.236   6.312  1.0762 -3.0486  0.4984
  147SAPE   O3116164   4.255   1.342   6.471  0.3262 -0.5710  0.8705
  147SAPE   C3116165   4.325   1.451   6.451  0.0589  0.1894  0.3139
  147SAPE   O3216166   4.428   1.457   6.385  0.1356 -0.3911 -0.3227
  147SAPE   C3216167   4.263   1.556   6.537 -0.1781 -0.5338 -0.2191
  147SAPE   H2X16168   4.154   1.537   6.548 -0.5837  1.9590  0.6551
  147SAPE   H2Y16169   4.277   1.657   6.493 -0.3289 -0.1673  0.5498
  147SAPE   C2316170   4.236   1.088   6.939 -0.2604  0.2942 -0.1666
  147SAPE   H3R16171   4.205   1.188   6.903 -2.6142  0.5781  2.3546
  147SAPE   H3S16172   4.340   1.089   6.979 -0.5468 -0.6414  0.6400
  147SAPE   C2416173   4.139   1.047   7.054 -0.3208 -0.0294 -0.4394
  147SAPE   H4R16174   4.037   1.043   7.011 -0.4444  0.9012 -0.2525
  147SAPE   H4S16175   4.132   1.129   7.128 -1.4337  0.7855 -1.4149
  147SAPE   C2516176   4.187   0.920   7.121  0.4407  0.3756  0.2664
  147SAPE   H5R16177   4.132   0.829   7.092  2.1513 -0.4258 -0.6452
  147SAPE   C2616178   4.279   0.927   7.222  0.2256 -0.0148 -0.0848
  147SAPE   H6R16179   4.320   0.841   7.276  0.4265  0.6721  0.8687
  147SAPE   C2716180   4.354   1.054   7.266 -0.7590 -0.0903 -0.7292
  147SAPE   H7R16181   4.308   1.083   7.363  1.4760 -1.5413  0.8568
  147SAPE   H7S16182   4.354   1.136   7.191  1.0044  0.3926 -0.2464
  147SAPE   C2816183   4.503   1.026   7.287 -0.4535 -0.4813  0.2428
  147SAPE   H8R16184   4.555   0.951   7.226  1.1661  1.3135 -0.6899
  147SAPE   C2916185   4.584   1.107   7.361  1.1259  0.3727 -0.6619
  147SAPE   H9R16186   4.684   1.067   7.385  1.1104  0.4298 -0.4995
  147SAPE  C21016187   4.546   1.237   7.429 -0.6627  0.2809 -0.1131
  147SAPE  H10R16188   4.474   1.280   7.356 -1.0390 -0.9501 -0.4981
  147SAPE  H10S16189   4.637   1.300   7.431 -0.2575 -0.2881 -0.3434
  147SAPE  C21116190   4.483   1.226   7.564  0.2050  0.7241  0.5447
  147SAPE  H11R16191   4.442   1.130   7.600 -0.6467  0.3705 -1.2716
  147SAPE  C21216192   4.480   1.318   7.660  0.7105 -0.6857  0.6161
  147SAPE  H12R16193   4.415   1.302   7.747 -0.4214  1.5681  0.2668
  147SAPE  C21316194   4.534   1.459   7.657  0.6777  0.1071 -0.5408
  147SAPE  H13R16195   4.454   1.535   7.649 -0.0556 -0.7683 -2.0432
  147SAPE  H13S16196   4.586   1.466   7.559  1.5058 -1.7058 -0.2727
  147SAPE  C21416197   4.609   1.485   7.788 -0.1660  0.0468  0.7350
  147SAPE  H14R16198   4.559   1.436   7.873 -0.0262 -1.7962 -0.1692
  147SAPE  C21516199   4.716   1.560   7.805 -0.1248 -0.0590  0.0240
  147SAPE  H15R16200   4.753   1.590   7.904  0.5214  1.9027 -0.7630
  147SAPE  C21616201   4.781   1.634   7.695 -0.4461  0.8471  0.5817
  147SAPE  H16R16202   4.733   1.627   7.595  0.9990  1.2181 -0.1703
  147SAPE  H16S16203   4.887   1.606   7.676 -0.6500  0.4983 -0.0641
  147SAPE  C21716204   4.771   1.789   7.720 -0.1709  0.9953 -0.4236
  147SAPE  H17R16205   4.803   1.822   7.821  3.5848  2.3958 -1.8867
  147SAPE  H17S16206   4.666   1.819   7.703 -0.0857  0.1432 -2.9396
  147SAPE  C21816207   4.872   1.859   7.630 -0.8004 -0.2204  0.3718
  147SAPE  H18R16208   4.862   1.839   7.521 -1.6741 -0.4770  0.4945
  147SAPE  H18S16209   4.976   1.827   7.656 -0.2678 -0.4964 -1.8728
  147SAPE  C21916210   4.880   2.008   7.643 -0.0447 -0.4076  0.8179
  147SAPE  H19R16211   4.793   2.049   7.587  1.0716 -1.7894 -2.1453
  147SAPE  H19S16212   4.970   2.049   7.594 -1.1789  1.7508  0.4263
  147SAPE  C22016213   4.881   2.067   7.787  0.0406  0.5136 -0.1090
  147SAPE  H20R16214   4.834   2.167   7.795 -1.4614 -0.2463  1.3037
  147SAPE  H20S16215   4.985   2.075   7.826  0.8180  1.9274 -2.2864
  147SAPE  H20T16216   4.826   2.001   7.858 -1.5662  0.8586 -1.0090
  147SAPE   C3316217   4.336   1.557   6.676 -0.0286 -0.3243 -0.0348
  147SAPE   H3X16218   4.328   1.661   6.715 -1.0205 -0.5312  0.3382
  147SAPE   H3Y16219   4.445   1.539   6.671  0.2674  0.8781  1.3173
  147SAPE   C3416220   4.263   1.468   6.782 -0.7111 -0.8446 -0.1409
  147SAPE   H4X16221   4.257   1.361   6.754 -1.3942 -0.7834 -0.2441
  147SAPE   H4Y16222   4.162   1.515   6.780  0.0931  0.9673 -1.0737
  147SAPE   C3516223   4.317   1.490   6.923 -0.6736 -0.4630  0.1558
  147SAPE   H5X16224   4.316   1.601   6.929  0.4787 -0.3656 -0.8651
  147SAPE   H5Y16225   4.422   1.458   6.943  0.2221  2.4095  0.5574
  147SAPE   C3616226   4.238   1.434   7.042 -0.0608 -0.1718  0.3775
  147SAPE   H6X16227   4.288   1.335   7.053  1.5818  0.4370 -0.9859
  147SAPE   H6Y16228   4.135   1.410   7.008  0.1055  0.2618 -0.4634
  147SAPE   C3716229   4.245   1.504   7.178 -0.3165 -0.7713 -0.1608
  147SAPE   H7X16230   4.205   1.607   7.187  0.2415 -0.5163 -0.5251
  147SAPE   H7Y16231   4.355   1.515   7.194 -0.4434  0.0467  0.1941
  147SAPE   C3816232   4.191   1.411   7.285  0.2973 -0.3173  0.0904
  147SAPE   H8X16233   4.232   1.308   7.278  0.2047 -0.2577 -1.7087
  147SAPE   H8Y16234   4.082   1.394   7.270  0.7266 -1.6954 -1.9057
  147SAPE   C3916235   4.207   1.473   7.423  0.4040  0.2321 -0.5218
  147SAPE   H9X16236   4.185   1.582   7.416 -2.6690 -0.3689 -1.5893
  147SAPE   H9Y16237   4.312   1.451   7.452 -0.2209 -1.4421  0.6134
  147SAPE  C31016238   4.120   1.403   7.534 -0.1795 -0.3482  0.4672
  147SAPE  H10X16239   4.151   1.296   7.529  0.3506 -0.2310  1.1421
  147SAPE  H10Y16240   4.011   1.408   7.513 -0.2775  4.0923  1.1496
  147SAPE  C31116241   4.144   1.450   7.679 -0.2591 -0.1906 -0.3510
  147SAPE  H11X16242   4.071   1.533   7.698 -0.9910 -0.5251 -1.5514
  147SAPE  H11Y16243   4.246   1.486   7.701 -0.9013  0.2218  2.2005
  147SAPE  C31216244   4.128   1.350   7.796  0.5818  0.0522  0.6850
  147SAPE  H12X16245   4.216   1.284   7.784  0.2957 -0.3179  0.6140
  147SAPE  H12Y16246   4.047   1.275   7.788 -0.6123  1.1205  2.1546
  147SAPE  C31316247   4.137   1.413   7.942  0.5690 -0.1573  0.5426
  147SAPE  H13X16248   4.148   1.332   8.016 -1.6655 -0.4236  0.6447
  147SAPE  H13Y16249   4.039   1.464   7.956 -0.2672 -1.3538 -0.7139
  147SAPE  C31416250   4.259   1.503   7.946  0.8098 -0.1644 -0.6683
  147SAPE  H14X16251   4.235   1.593   7.885  1.9302  2.3035  2.2122
  147SAPE  H14Y16252   4.354   1.461   7.906  0.0177 -3.4102  0.6217
  147SAPE  C31516253   4.281   1.564   8.088 -0.0450 -0.2998 -0.2204
  147SAPE  H15X16254   4.260   1.489   8.167  1.2382 -0.0277  0.3873
  147SAPE  H15Y16255   4.210   1.648   8.105  0.3769 -0.1237  0.7287
  147SAPE  C31616256   4.426   1.616   8.101  0.3498 -0.4002  0.2555
  147SAPE  H16X16257   4.444   1.664   8.002  0.6194  0.4156  0.6835
  147SAPE  H16Y16258   4.493   1.529   8.112 -0.8178 -1.3645 -0.1181
  147SAPE  C31716259   4.443   1.716   8.216 -0.5166  0.0137 -0.1470
  147SAPE  H17X16260   4.397   1.813   8.186 -0.0127  0.8142  1.5012
  147SAPE  H17Y16261   4.553   1.728   8.231 -0.1106 -0.1882 -2.6790
  147SAPE  C31816262   4.370   1.679   8.352  0.7023  0.5253  0.0923
  147SAPE  H18X16263   4.263   1.672   8.323  0.9367 -2.5821 -0.3653
  147SAPE  H18Y16264   4.384   1.753   8.432  0.0382  2.0396 -1.1396
  147SAPE  H18Z16265   4.402   1.579   8.390  0.9264  1.2563  1.8946
  148SAPE     N16266   6.096   6.248   6.292 -0.4267  0.8641  0.0559
  148SAPE   HN116267   6.079   6.344   6.255  2.6137  0.7815 -1.9465
  148SAPE   HN216268   6.197   6.225   6.278  0.4752  0.9566  4.7438
  148SAPE   HN316269   6.026   6.182   6.254 -2.2516  1.8761  1.5229
  148SAPE   C1216270   6.071   6.239   6.444 -0.1806 -0.1058 -0.2027
  148SAPE  H12A16271   6.137   6.323   6.476  0.5429 -0.3798 -0.9184
  148SAPE  H12B16272   6.116   6.147   6.485  2.9078  2.1112  1.8330
  148SAPE   C1116273   5.924   6.260   6.465 -0.3227 -0.9522 -0.0598
  148SAPE  H11A16274   5.903   6.360   6.420 -0.2824 -1.7194 -1.8565
  148SAPE  H11B16275   5.906   6.276   6.574  1.3118 -2.3446  0.4540
  148SAPE     P16276   5.823   6.030   6.478 -0.4690  0.2786  0.0268
  148SAPE   O1316277   5.698   5.971   6.430 -0.1128 -0.3146  0.2271
  148SAPE   O1416278   5.941   5.952   6.431  0.4858  0.2985 -0.1345
  148SAPE   O1216279   5.826   6.174   6.414 -0.1990  0.0848  0.1810
  148SAPE   O1116280   5.823   6.039   6.632  0.1864  0.6519  0.1118
  148SAPE    C116281   5.707   6.064   6.708 -0.0466  0.1249 -0.3306
  148SAPE    HA16282   5.664   6.165   6.689 -0.6135 -0.0775 -0.1627
  148SAPE    HB16283   5.625   5.990   6.692  0.4046 -0.7509  1.2738
  148SAPE    C216284   5.739   6.074   6.863 -0.2686  0.1694  0.3464
  148SAPE    HS16285   5.779   6.176   6.878  0.4712 -0.4032  2.8072
  148SAPE   O2116286   5.842   5.984   6.914 -0.1014  0.3354 -0.2729
  148SAPE   C2116287   5.968   6.017   6.876 -0.2045 -0.1664  0.4625
  148SAPE   O2216288   6.002   6.123   6.820  0.8368  0.3019  0.3069
  148SAPE   C2216289   6.065   5.903   6.927  0.0773  0.6907 -1.1189
  148SAPE   H2R16290   6.007   5.822   6.977  1.2300  0.1838 -0.5607
  148SAPE   H2S16291   6.113   5.863   6.836 -0.0880  0.6031 -1.1672
  148SAPE    C316292   5.614   6.073   6.944 -0.2471  0.4575 -0.0681
  148SAPE    HX16293   5.585   5.966   6.939  3.9879 -0.8934  0.4058
  148SAPE    HY16294   5.533   6.139   6.907 -1.1875  0.0547  1.2066
  148SAPE   O3116295   5.643   6.101   7.084 -0.0935 -0.0868  0.7378
  148SAPE   C3116296   5.624   6.227   7.114 -1.0759  0.1949  0.2633
  148SAPE   O3216297   5.617   6.318   7.038 -0.0191 -0.0347  0.0843
  148SAPE   C3216298   5.627   6.251   7.265  0.2864 -0.3142 -1.1443
  148SAPE   H2X16299   5.526   6.236   7.308  0.2319 -0.0081 -1.1676
  148SAPE   H2Y16300   5.671   6.352   7.282  0.1670 -0.2670 -1.1199
  148SAPE   C2316301   6.178   5.964   7.013 -0.2787  0.2860  0.1672
  148SAPE   H3R16302   6.138   6.001   7.111 -0.4103 -0.3015  0.3400
  148SAPE   H3S16303   6.229   6.049   6.963  0.5984  0.0638  0.6792
  148SAPE   C2416304   6.277   5.855   7.050 -0.2083 -0.6559 -0.1889
  148SAPE   H4R16305   6.224   5.777   7.110 -1.1589 -0.1552 -0.3476
  148SAPE   H4S16306   6.348   5.901   7.122 -1.4739  0.0234  0.6848
  148SAPE   C2516307   6.346   5.787   6.940 -0.4807  0.2888 -0.6358
  148SAPE   H5R16308   6.290   5.793   6.845 -2.2698  0.7971  0.4085
  148SAPE   C2616309   6.466   5.730   6.942  0.2249 -0.8426  0.0768
  148SAPE   H6R16310   6.487   5.655   6.865 -0.5555 -0.4459 -0.5292
  148SAPE   C2716311   6.550   5.730   7.066 -0.6854 -0.2530 -0.0847
  148SAPE   H7R16312   6.595   5.628   7.067  0.4868  0.2104 -1.7229
  148SAPE   H7S16313   6.480   5.706   7.149 -1.7197  0.0216 -0.8507
  148SAPE   C2816314   6.645   5.839   7.111 -1.4535 -0.1217  0.0707
  148SAPE   H8R16315   6.632   5.942   7.074 -0.7740 -0.1474 -0.2649
  148SAPE   C2916316   6.749   5.809   7.195  0.0882  0.0921 -0.6152
  148SAPE   H9R16317   6.816   5.888   7.231  0.2349 -0.1645 -0.3237
  148SAPE  C21016318   6.770   5.670   7.250 -0.4138  0.9620  0.7757
  148SAPE  H10R16319   6.808   5.607   7.166  0.0520  0.1839  1.5612
  148SAPE  H10S16320   6.673   5.628   7.283 -0.3877  0.4715  0.2485
  148SAPE  C21116321   6.863   5.656   7.367 -0.7289  0.4566  0.9221
  148SAPE  H11R16322   6.959   5.609   7.342 -1.0067  1.4594 -2.6025
  148SAPE  C21216323   6.837   5.688   7.492  0.6541 -0.6698  0.2253
  148SAPE  H12R16324   6.919   5.669   7.563 -1.7391 -2.2646  2.7458
  148SAPE  C21316325   6.704   5.741   7.545 -0.3057  0.2284 -0.0462
  148SAPE  H13R16326   6.646   5.647   7.551  0.1512 -0.0567 -0.0868
  148SAPE  H13S16327   6.658   5.804   7.466 -0.9649 -0.1515  0.0336
  148SAPE  C21416328   6.729   5.817   7.676 -0.1422 -0.1276 -0.1476
  148SAPE  H14R16329   6.760   5.922   7.669  1.8221 -0.6227  0.4931
  148SAPE  C21516330   6.741   5.760   7.797 -0.7322 -0.3587 -0.3284
  148SAPE  H15R16331   6.776   5.824   7.879  0.1497 -0.9348 -0.2473
  148SAPE  C21616332   6.725   5.612   7.827  0.9072 -0.0233 -0.7427
  148SAPE  H16R16333   6.692   5.557   7.736 -1.2192  0.4037 -0.2796
  148SAPE  H16S16334   6.636   5.599   7.892  0.1201 -1.1567 -1.9974
  148SAPE  C21716335   6.840   5.550   7.896 -0.1214  0.2796 -0.3179
  148SAPE  H17R16336   6.928   5.545   7.828  0.2043  2.0277 -0.0779
  148SAPE  H17S16337   6.805   5.450   7.927  1.7239  0.3013  2.1866
  148SAPE  C21816338   6.870   5.624   8.033  0.1288 -0.1640  0.6202
  148SAPE  H18R16339   6.780   5.629   8.098  0.7852 -1.7709  1.7400
  148SAPE  H18S16340   6.908   5.723   8.000 -0.2345 -0.2770 -0.1640
  148SAPE  C21916341   6.974   5.548   8.108 -0.2492 -0.3639 -0.0761
  148SAPE  H19R16342   7.079   5.567   8.077 -0.0940 -1.4896 -0.2679
  148SAPE  H19S16343   6.954   5.440   8.095 -0.3562 -0.6836  2.2791
  148SAPE  C22016344   6.974   5.570   8.264 -0.5117 -0.3419 -0.1843
  148SAPE  H20R16345   7.027   5.496   8.328  0.3363  1.1750  0.9165
  148SAPE  H20S16346   6.869   5.568   8.302 -0.5124 -0.3338 -0.1856
  148SAPE  H20T16347   7.022   5.661   8.306  1.3081 -0.7008 -1.3842
  148SAPE   C3316348   5.691   6.135   7.352  0.2258  0.3010  0.1617
  148SAPE   H3X16349   5.797   6.128   7.320  0.4367  0.7237  0.7571
  148SAPE   H3Y16350   5.636   6.039   7.337 -0.0090  0.3537  0.6682
  148SAPE   C3416351   5.685   6.180   7.495  0.5655  0.4589 -0.1516
  148SAPE   H4X16352   5.577   6.202   7.509  0.6176  2.2043 -2.0512
  148SAPE   H4Y16353   5.738   6.276   7.513 -0.6748  1.2810 -0.6818
  148SAPE   C3516354   5.726   6.073   7.597 -0.0055 -0.2323 -0.2231
  148SAPE   H5X16355   5.833   6.051   7.577  0.7036  2.1582  0.5410
  148SAPE   H5Y16356   5.661   5.988   7.567 -3.0838  1.4629  1.1587
  148SAPE   C3616357   5.713   6.100   7.750 -0.5692  0.1830  0.3727
  148SAPE   H6X16358   5.735   6.208   7.765  0.7520 -0.1960  1.3490
  148SAPE   H6Y16359   5.793   6.038   7.797 -1.1967  0.6123  2.0478
  148SAPE   C3716360   5.577   6.066   7.809  0.0868  0.6553 -0.3404
  148SAPE   H7X16361   5.556   5.957   7.808 -2.0892  1.0305 -0.8286
  148SAPE   H7Y16362   5.489   6.113   7.759 -0.5321  0.8373  0.8849
  148SAPE   C3816363   5.579   6.117   7.956  0.9194 -0.0783  0.5763
  148SAPE   H8X16364   5.560   6.225   7.935 -1.3408 -0.5646 -0.1831
  148SAPE   H8Y16365   5.667   6.093   8.017 -0.9271 -4.5819  1.8274
  148SAPE   C3916366   5.460   6.065   8.052 -0.3070  0.7107  0.1873
  148SAPE   H9X16367   5.394   6.004   7.988  0.7993 -0.1918 -0.1389
  148SAPE   H9Y16368   5.410   6.157   8.089  1.4241  1.9097 -0.3042
  148SAPE  C31016369   5.511   5.977   8.163  0.3231 -0.6136 -0.7059
  148SAPE  H10X16370   5.573   6.038   8.232 -3.1441 -1.5317  3.6338
  148SAPE  H10Y16371   5.575   5.893   8.127  2.3751  0.6164 -0.0709
  148SAPE  C31116372   5.394   5.907   8.239  0.0880  0.0552 -0.8159
  148SAPE  H11X16373   5.345   5.832   8.175 -1.2414 -0.4814  0.7745
  148SAPE  H11Y16374   5.312   5.980   8.260 -0.5786 -0.9151  0.0446
  148SAPE  C31216375   5.427   5.837   8.368  0.3226  0.3301  0.7486
  148SAPE  H12X16376   5.344   5.843   8.441 -1.2949  3.1657 -1.1427
  148SAPE  H12Y16377   5.512   5.900   8.404  0.8000  1.3691 -1.9418
  148SAPE  C31316378   5.464   5.691   8.351  0.0274  0.0447  0.5455
  148SAPE  H13X16379   5.492   5.670   8.245 -0.3075 -0.7247  0.6013
  148SAPE  H13Y16380   5.381   5.619   8.370  1.2971 -2.1095 -1.4787
  148SAPE  C31416381   5.584   5.654   8.433  0.6237 -0.0816  0.3621
  148SAPE  H14X16382   5.577   5.705   8.532 -0.2752  0.8636 -0.1685
  148SAPE  H14Y16383   5.679   5.695   8.393  0.2788 -1.1242 -1.6630
  148SAPE  C31516384   5.603   5.501   8.447  0.4942 -0.7611  0.3314
  148SAPE  H15X16385   5.617   5.471   8.341 -0.1159  2.2187 -0.7004
  148SAPE  H15Y16386   5.514   5.447   8.486 -0.7409  0.3861 -0.8186
  148SAPE  C31616387   5.726   5.476   8.542 -0.6799 -0.3635 -0.0199
  148SAPE  H16X16388   5.698   5.522   8.640 -4.5955  0.4812 -1.3582
  148SAPE  H16Y16389   5.819   5.527   8.510 -0.5879  0.4345  1.4439
  148SAPE  C31716390   5.754   5.329   8.561  0.3859  0.2423  0.1663
  148SAPE  H17X16391   5.752   5.282   8.460 -1.5469  1.9187 -0.6352
  148SAPE  H17Y16392   5.671   5.281   8.616  1.0033 -1.3840 -0.2675
  148SAPE  C31816393   5.884   5.305   8.641 -0.4138  0.5863  0.0089
  148SAPE  H18X16394   5.883   5.195   8.656  0.7988  0.6900  1.0279
  148SAPE  H18Y16395   5.872   5.347   8.743 -0.1109 -0.0819  0.3296
  148SAPE  H18Z16396   5.979   5.332   8.589 -1.1797 -2.0228 -3.1223
  149SAPE     N16397   4.000   0.210   6.022  0.2442  0.0031  0.5328
  149SAPE   HN116398   3.971   0.204   5.922 -2.9781  0.2369  1.3390
  149SAPE   HN216399   3.937   0.282   6.063  0.9191  1.9655 -1.6598
  149SAPE   HN316400   4.095   0.253   6.020 -0.1890  0.9922  0.5966
  149SAPE   C1216401   3.983   0.081   6.117  0.4092  0.2160  0.0805
  149SAPE  H12A16402   4.071   0.016   6.095  0.6632  0.6384 -0.1665
  149SAPE  H12B16403   3.892   0.031   6.076  0.1540  1.0984 -0.4678
  149SAPE   C1116404   3.979   0.117   6.265  0.2821 -0.1477 -0.2649
  149SAPE  H11A16405   4.079   0.140   6.307  0.8810 -2.2069 -0.4719
  149SAPE  H11B16406   3.950   0.025   6.319  0.8298  0.2577  0.7545
  149SAPE     P16407   3.758   0.213   6.387 -0.1001 -0.2414  0.1201
  149SAPE   O1316408   3.653   0.305   6.334 -0.9568  0.3175 -0.2476
  149SAPE   O1416409   3.721   0.069   6.415 -0.3593 -0.0492  0.2336
  149SAPE   O1216410   3.883   0.222   6.289 -0.4411  0.1435 -0.3637
  149SAPE   O1116411   3.813   0.279   6.514 -1.0459  0.0492  0.7104
  149SAPE    C116412   3.947   0.319   6.534  0.1425 -0.3270 -0.4365
  149SAPE    HA16413   4.006   0.243   6.589  1.3564  1.1595  0.4169
  149SAPE    HB16414   3.994   0.361   6.442  1.6395  1.8652  1.2214
  149SAPE    C216415   3.950   0.439   6.635  0.0856 -0.1060  0.0832
  149SAPE    HS16416   4.056   0.465   6.658  0.4330 -0.9076 -0.5652
  149SAPE   O2116417   3.883   0.397   6.759  0.2360 -0.2066  0.1117
  149SAPE   C2116418   3.936   0.299   6.831  0.1386 -0.0092 -0.0626
  149SAPE   O2216419   4.051   0.250   6.823  0.2956  0.4632 -0.2160
  149SAPE   C2216420   3.831   0.243   6.928  1.0405  0.0175  0.3577
  149SAPE   H2R16421   3.779   0.323   6.983 -0.5911  0.0884 -1.1978
  149SAPE   H2S16422   3.758   0.184   6.868 -1.9833  1.4041  2.4181
  149SAPE    C316423   3.886   0.567   6.576  0.2648  0.2400 -0.5046
  149SAPE    HX16424   3.797   0.546   6.513  0.5153  0.2353 -0.8602
  149SAPE    HY16425   3.960   0.624   6.516  2.2181  0.3372  1.8668
  149SAPE   O3116426   3.832   0.644   6.679 -0.7376 -0.2600  0.4472
  149SAPE   C3116427   3.902   0.744   6.730 -0.4094  0.4639  0.1131
  149SAPE   O3216428   4.013   0.777   6.692  0.3951 -0.0772 -0.3769
  149SAPE   C3216429   3.825   0.797   6.853  0.0124 -0.4316  0.7571
  149SAPE   H2X16430   3.716   0.803   6.830  0.2100  1.5380  0.1019
  149SAPE   H2Y16431   3.850   0.906   6.850 -0.9820 -0.2058  0.3677
  149SAPE   C2316432   3.898   0.157   7.037  0.0332  0.4818  0.0773
  149SAPE   H3R16433   3.978   0.214   7.090 -1.1778  1.7244  0.6272
  149SAPE   H3S16434   3.964   0.088   6.980  0.7750  0.1969  1.2423
  149SAPE   C2416435   3.817   0.085   7.144 -0.2863 -0.1681  0.6592
  149SAPE   H4R16436   3.868  -0.004   7.187 -0.8214  0.5889  3.0267
  149SAPE   H4S16437   3.718   0.060   7.100 -0.4539  2.1091 -0.3687
  149SAPE   C2516438   3.786   0.176   7.258 -0.3114  0.3438  0.0473
  149SAPE   H5R16439   3.689   0.228   7.250  0.2611  1.3288 -0.7210
  149SAPE   C2616440   3.851   0.195   7.372 -0.4933  0.1275  0.1686
  149SAPE   H6R16441   3.820   0.265   7.450  0.8821  0.8536  0.0884
  149SAPE   C2716442   3.986   0.139   7.397 -0.4606  1.0971  0.1499
  149SAPE   H7R16443   4.055   0.226   7.394 -0.7877  1.3330 -2.0040
  149SAPE   H7S16444   4.025   0.075   7.315 -0.9559  0.5781  0.3117
  149SAPE   C2816445   3.985   0.058   7.524  0.1553  0.2987 -0.9083
  149SAPE   H8R16446   3.943  -0.040   7.500 -1.7924  0.9865 -0.5174
  149SAPE   C2916447   4.001   0.107   7.652  0.0242  0.2608 -0.2581
  149SAPE   H9R16448   4.002   0.026   7.727 -2.5454 -0.5219 -0.9713
  149SAPE  C21016449   4.040   0.238   7.700 -0.4503 -0.6472  0.3530
  149SAPE  H10R16450   3.956   0.310   7.710  1.5427  1.4780  4.0291
  149SAPE  H10S16451   4.112   0.279   7.626 -1.4317  0.0154 -0.2567
  149SAPE  C21116452   4.124   0.235   7.833  0.1194  0.1994 -0.1147
  149SAPE  H11R16453   4.219   0.181   7.824  0.5624  0.2627  2.9723
  149SAPE  C21216454   4.092   0.308   7.947  0.2418 -0.0485  0.0653
  149SAPE  H12R16455   4.154   0.289   8.036  0.2335  0.4052  0.1720
  149SAPE  C21316456   3.973   0.398   7.964  0.6896 -1.1222  0.1327
  149SAPE  H13R16457   3.946   0.451   7.870 -0.7297  1.5063  1.8957
  149SAPE  H13S16458   4.012   0.483   8.023 -0.2642 -0.0961 -0.6831
  149SAPE  C21416459   3.853   0.337   8.034 -0.4575 -0.9647 -0.4380
  149SAPE  H14R16460   3.802   0.253   7.984  1.0094 -1.2104 -1.5835
  149SAPE  C21516461   3.801   0.373   8.153 -0.2177 -0.1906 -0.2356
  149SAPE  H15R16462   3.713   0.316   8.189 -0.4255  0.5975  0.5406
  149SAPE  C21616463   3.838   0.486   8.244  0.1651  0.0006  0.5797
  149SAPE  H16R16464   3.744   0.541   8.266 -1.1352 -1.9731  0.2384
  149SAPE  H16S16465   3.909   0.559   8.198 -1.8178  0.6947 -1.5789
  149SAPE  C21716466   3.905   0.440   8.372 -0.1622 -0.3460  0.4467
  149SAPE  H17R16467   3.928   0.536   8.423  1.5160 -1.1210  1.1995
  149SAPE  H17S16468   4.006   0.396   8.362  0.5546  1.3551 -0.2512
  149SAPE  C21816469   3.818   0.349   8.473 -0.4616  0.2364  0.6640
  149SAPE  H18R16470   3.840   0.243   8.449  2.2561  0.8559  0.0900
  149SAPE  H18S16471   3.711   0.377   8.456  0.0717  1.1465 -1.5900
  149SAPE  C21916472   3.852   0.390   8.619 -0.6374 -0.1091  0.4668
  149SAPE  H19R16473   3.844   0.501   8.614  0.7534 -0.0332 -0.6894
  149SAPE  H19S16474   3.958   0.366   8.641 -0.8720 -0.7162  0.9794
  149SAPE  C22016475   3.769   0.328   8.735 -0.2816 -0.5587 -0.2496
  149SAPE  H20R16476   3.783   0.395   8.822 -0.4632 -0.4615 -0.2946
  149SAPE  H20S16477   3.790   0.224   8.767 -2.6556 -0.9920  0.0261
  149SAPE  H20T16478   3.663   0.324   8.705 -0.6745 -1.1399  1.1661
  149SAPE   C3316479   3.867   0.746   6.991  0.3817  0.1188 -0.2272
  149SAPE   H3X16480   3.863   0.833   7.060  2.3916  0.0461  0.0387
  149SAPE   H3Y16481   3.968   0.700   6.999 -0.8624 -2.6994  0.0191
  149SAPE   C3416482   3.766   0.642   7.031 -0.4139 -0.2016 -0.5877
  149SAPE   H4X16483   3.765   0.570   6.947 -0.4614  1.1286 -1.7646
  149SAPE   H4Y16484   3.676   0.707   7.036  0.6338  1.2449  1.4501
  149SAPE   C3516485   3.777   0.584   7.173 -0.7763  0.5265  0.2469
  149SAPE   H5X16486   3.881   0.550   7.187 -0.9638  0.1979  0.8983
  149SAPE   H5Y16487   3.702   0.503   7.184  0.1407 -0.9959 -3.3180
  149SAPE   C3616488   3.737   0.685   7.287 -0.6632  0.4724  0.0105
  149SAPE   H6X16489   3.626   0.693   7.287 -0.6180  1.5901  1.4355
  149SAPE   H6Y16490   3.782   0.787   7.285 -1.6733  0.9845  1.4886
  149SAPE   C3716491   3.771   0.626   7.426 -0.4738 -0.1120 -0.3881
  149SAPE   H7X16492   3.880   0.606   7.434  0.0219  2.4675  0.0624
  149SAPE   H7Y16493   3.709   0.536   7.448 -0.5835 -0.3131 -1.4734
  149SAPE   C3816494   3.749   0.717   7.543 -0.0836  0.5821 -0.4295
  149SAPE   H8X16495   3.643   0.749   7.536  0.0064  1.0853  0.3926
  149SAPE   H8Y16496   3.811   0.809   7.535  0.0722  0.5293  0.1563
  149SAPE   C3916497   3.758   0.647   7.682  0.2268  0.0514  0.2446
  149SAPE   H9X16498   3.857   0.598   7.691  1.2053  2.2201  2.2308
  149SAPE   H9Y16499   3.670   0.579   7.689 -0.0373  0.4670  1.0572
  149SAPE  C31016500   3.756   0.738   7.804  0.0237 -0.3595 -0.4980
  149SAPE  H10X16501   3.752   0.668   7.891 -1.2453  0.1942 -0.0819
  149SAPE  H10Y16502   3.656   0.785   7.792  0.0190  0.0678  0.9510
  149SAPE  C31116503   3.861   0.850   7.808 -0.4000 -0.0200  0.0498
  149SAPE  H11X16504   3.849   0.926   7.728  0.8637  0.4734  0.3113
  149SAPE  H11Y16505   3.965   0.811   7.803 -0.5699 -0.6714  1.2319
  149SAPE  C31216506   3.855   0.926   7.943 -0.3333  0.9976 -0.4929
  149SAPE  H12X16507   3.747   0.949   7.946 -0.8255 -1.1197 -0.4211
  149SAPE  H12Y16508   3.929   1.010   7.944  2.3381 -1.1330 -2.3663
  149SAPE  C31316509   3.883   0.835   8.069  0.3175  0.2505 -0.5754
  149SAPE  H13X16510   3.964   0.765   8.038 -1.5437 -2.9417  1.2514
  149SAPE  H13Y16511   3.794   0.779   8.102 -0.6856  3.1061  2.0241
  149SAPE  C31416512   3.957   0.906   8.187  0.0699  0.3182 -0.2069
  149SAPE  H14X16513   4.067   0.908   8.173  0.2524 -0.7126  0.9019
  149SAPE  H14Y16514   3.949   0.833   8.270 -0.1625 -1.3249 -1.5978
  149SAPE  C31516515   3.899   1.035   8.243 -0.3106 -0.8420 -0.1954
  149SAPE  H15X16516   3.909   1.119   8.171  1.8256  0.8753  1.9508
  149SAPE  H15Y16517   3.963   1.070   8.327 -1.5514 -1.6105  1.1315
  149SAPE  C31616518   3.746   1.030   8.292 -0.4652  0.1297  0.1400
  149SAPE  H16X16519   3.742   0.932   8.345  1.0954  1.8497  3.8027
  149SAPE  H16Y16520   3.684   1.045   8.201 -0.2897  1.2332  0.1975
  149SAPE  C31716521   3.700   1.133   8.393 -0.5613  0.2549 -0.7272
  149SAPE  H17X16522   3.589   1.143   8.391 -0.5590  0.2422 -0.8741
  149SAPE  H17Y16523   3.740   1.229   8.354 -0.0964  0.0900 -0.6641
  149SAPE  C31816524   3.748   1.119   8.537 -0.2329 -0.1036 -0.2439
  149SAPE  H18X16525   3.857   1.097   8.534 -0.1271  0.5101 -1.3056
  149SAPE  H18Y16526   3.685   1.038   8.579 -0.2311  1.7462  3.7853
  149SAPE  H18Z16527   3.733   1.205   8.606  3.0507  1.1679 -0.8928
  150SAPE     N16528   2.382   2.848   6.189  0.2564 -0.3058 -0.4819
  150SAPE   HN116529   2.411   2.820   6.094  2.7797  0.9359 -0.1711
  150SAPE   HN216530   2.278   2.847   6.191  0.1936 -3.3259  1.0006
  150SAPE   HN316531   2.417   2.945   6.199 -1.1219  0.1602  0.1291
  150SAPE   C1216532   2.446   2.767   6.297 -0.1467 -0.4901  0.1030
  150SAPE  H12A16533   2.450   2.660   6.271  0.1415 -0.2268 -0.9715
  150SAPE  H12B16534   2.383   2.774   6.388 -2.5294  0.4527 -1.5077
  150SAPE   C1116535   2.588   2.819   6.311 -0.5788 -0.5753 -0.1988
  150SAPE  H11A16536   2.651   2.748   6.369  0.4974 -0.3003 -0.9808
  150SAPE  H11B16537   2.583   2.915   6.367 -0.4007  0.2489 -1.5626
  150SAPE     P16538   2.784   2.914   6.171  0.0706  0.4192  0.4750
  150SAPE   O1316539   2.891   2.811   6.172 -0.2734 -0.0201  0.5522
  150SAPE   O1416540   2.775   3.002   6.055 -0.0115  0.1742 -0.0560
  150SAPE   O1216541   2.643   2.844   6.187 -0.4259 -0.7928  0.6211
  150SAPE   O1116542   2.788   3.001   6.300  0.2099  0.0811 -0.6918
  150SAPE    C116543   2.891   3.078   6.355 -0.7450 -0.3633 -0.4810
  150SAPE    HA16544   2.984   3.057   6.299  0.7842 -0.0444  1.8247
  150SAPE    HB16545   2.866   3.186   6.342  2.8340  0.8425  1.3200
  150SAPE    C216546   2.923   3.048   6.507  0.5333  0.3838  0.1098
  150SAPE    HS16547   3.012   3.111   6.531  1.5702 -0.1739 -2.0365
  150SAPE   O2116548   2.948   2.905   6.521  0.4661 -0.1428 -0.5224
  150SAPE   C2116549   3.035   2.877   6.615 -0.6256 -0.9952 -0.0258
  150SAPE   O2216550   3.108   2.954   6.673  0.3260  0.1880 -0.4245
  150SAPE   C2216551   3.045   2.726   6.632 -0.7992 -0.0074  0.3150
  150SAPE   H2R16552   3.009   2.672   6.542 -1.8491 -2.1211  1.8949
  150SAPE   H2S16553   3.155   2.718   6.650 -1.2298  0.8325  4.2641
  150SAPE    C316554   2.803   3.096   6.594 -1.0075 -0.8997  0.2736
  150SAPE    HX16555   2.712   3.038   6.565 -1.9864 -0.7107  2.7652
  150SAPE    HY16556   2.788   3.204   6.572  0.8961 -0.2909  1.7001
  150SAPE   O3116557   2.850   3.088   6.725 -0.1050 -0.4503 -0.3505
  150SAPE   C3116558   2.786   3.002   6.807 -0.4199  0.3129 -0.3298
  150SAPE   O3216559   2.693   2.929   6.778  0.6363 -0.2190  0.4278
  150SAPE   C3216560   2.842   3.019   6.952 -0.1335 -0.4277  0.0065
  150SAPE   H2X16561   2.791   3.110   6.990 -0.0978 -0.1307 -0.6526
  150SAPE   H2Y16562   2.951   3.038   6.944 -0.1798 -0.8675 -2.2978
  150SAPE   C2316563   2.980   2.677   6.765  0.0474 -0.1690  0.5037
  150SAPE   H3R16564   2.877   2.719   6.760  0.2339  0.1698 -0.6401
  150SAPE   H3S16565   3.025   2.722   6.856  1.1822  1.2210 -0.6908
  150SAPE   C2416566   2.971   2.518   6.764  0.1137 -0.4221 -0.3070
  150SAPE   H4R16567   2.924   2.475   6.674 -1.8592 -0.3747  0.6485
  150SAPE   H4S16568   2.905   2.493   6.850  2.5142  0.1780  1.8682
  150SAPE   C2516569   3.100   2.447   6.788 -0.0543 -0.0512 -0.1063
  150SAPE   H5R16570   3.148   2.399   6.701 -1.8070 -1.4902 -0.3378
  150SAPE   C2616571   3.157   2.435   6.906  0.4901 -0.0064  0.8455
  150SAPE   H6R16572   3.257   2.388   6.905  2.8236  4.1324 -3.9068
  150SAPE   C2716573   3.111   2.476   7.046  0.4284 -0.4637 -0.3643
  150SAPE   H7R16574   3.082   2.579   7.016 -0.1426 -0.9191 -1.4176
  150SAPE   H7S16575   3.195   2.478   7.119  0.0311  1.2649  0.0927
  150SAPE   C2816576   2.985   2.419   7.098 -0.1773  0.2297 -0.1836
  150SAPE   H8R16577   2.917   2.366   7.030  0.3212 -0.4378 -0.1747
  150SAPE   C2916578   2.950   2.418   7.227  0.2467 -0.3477  0.8062
  150SAPE   H9R16579   2.865   2.353   7.253 -0.1066  0.3769  1.4796
  150SAPE  C21016580   3.031   2.472   7.350 -0.3922  0.5197  0.4712
  150SAPE  H10R16581   2.962   2.505   7.431  1.0450  0.5532  1.7223
  150SAPE  H10S16582   3.082   2.568   7.326  0.1307 -0.2309 -1.6156
  150SAPE  C21116583   3.137   2.370   7.388  0.7793  0.2234  0.5333
  150SAPE  H11R16584   3.203   2.342   7.306  0.2994  0.0804  0.1917
  150SAPE  C21216585   3.156   2.320   7.509 -0.1605 -0.0110 -1.0698
  150SAPE  H12R16586   3.242   2.253   7.528 -0.9393 -1.4780 -2.5028
  150SAPE  C21316587   3.073   2.332   7.638  0.9223  0.5568  0.0556
  150SAPE  H13R16588   3.008   2.242   7.649  1.8544 -0.0763  0.4923
  150SAPE  H13S16589   3.003   2.419   7.630  0.3281  0.4585  3.1230
  150SAPE  C21416590   3.156   2.371   7.758  0.3369  0.3098  0.6573
  150SAPE  H14R16591   3.259   2.403   7.739  0.9664 -1.0916  1.5750
  150SAPE  C21516592   3.115   2.342   7.883  0.3340  0.4858  0.2873
  150SAPE  H15R16593   3.180   2.352   7.971  0.6122  0.4791  0.0838
  150SAPE  C21616594   2.986   2.264   7.932 -0.0350 -0.5618  0.1572
  150SAPE  H16R16595   2.929   2.224   7.845 -1.2077  0.8867  0.2093
  150SAPE  H16S16596   2.909   2.333   7.973  1.6230  0.8333  1.0590
  150SAPE  C21716597   3.002   2.148   8.034 -0.5226  0.2529 -0.5568
  150SAPE  H17R16598   3.076   2.076   7.995 -1.1293  0.0017 -1.2776
  150SAPE  H17S16599   2.909   2.087   8.036  0.2469 -0.9202  1.0347
  150SAPE  C21816600   3.041   2.178   8.177 -0.1792 -0.6404  0.4605
  150SAPE  H18R16601   2.955   2.233   8.221 -1.0558 -0.6267 -1.2037
  150SAPE  H18S16602   3.135   2.237   8.187 -0.8023  0.4209  0.2053
  150SAPE  C21916603   3.080   2.054   8.255 -0.8238  0.3137 -0.0600
  150SAPE  H19R16604   3.173   2.004   8.221 -0.5294 -0.3421  1.6294
  150SAPE  H19S16605   3.000   1.978   8.240  0.6302 -1.7263  1.9576
  150SAPE  C22016606   3.088   2.067   8.405  0.1852  0.4133 -0.1678
  150SAPE  H20R16607   3.162   2.134   8.454  1.0345 -0.2790 -0.4653
  150SAPE  H20S16608   3.096   1.963   8.443  3.1174  0.1457 -1.2526
  150SAPE  H20T16609   2.988   2.106   8.430 -1.7954 -1.3286 -4.2841
  150SAPE   C3316610   2.806   2.904   7.049  0.0586  0.6960 -0.7579
  150SAPE   H3X16611   2.853   2.815   7.003  1.2638  0.4342  0.9094
  150SAPE   H3Y16612   2.696   2.888   7.042  0.2702 -0.2365 -2.5658
  150SAPE   C3416613   2.862   2.912   7.195  0.9968 -0.5506  0.5030
  150SAPE   H4X16614   2.843   3.014   7.233 -0.6189 -0.5246 -0.2911
  150SAPE   H4Y16615   2.969   2.882   7.190  0.5006 -2.4168  0.3324
  150SAPE   C3516616   2.795   2.817   7.290 -0.6973  0.1403 -0.2246
  150SAPE   H5X16617   2.829   2.713   7.270  0.7570  0.4806  0.3720
  150SAPE   H5Y16618   2.686   2.816   7.267 -0.0890 -1.7873 -3.8197
  150SAPE   C3616619   2.836   2.839   7.435 -0.5510  0.0235 -0.0670
  150SAPE   H6X16620   2.801   2.937   7.474  1.2345  0.6768 -0.0068
  150SAPE   H6Y16621   2.947   2.834   7.448 -0.6547 -0.8723  0.5715
  150SAPE   C3716622   2.765   2.744   7.537 -0.3180  0.5785  0.6425
  150SAPE   H7X16623   2.789   2.638   7.515  1.1092  0.3160  3.0908
  150SAPE   H7Y16624   2.656   2.763   7.541 -0.3550  0.2655  1.1893
  150SAPE   C3816625   2.822   2.760   7.676  0.0815 -0.6508 -0.4867
  150SAPE   H8X16626   2.743   2.745   7.752  2.1491 -2.7015  1.4212
  150SAPE   H8Y16627   2.863   2.862   7.686 -2.4836  0.4996 -0.9350
  150SAPE   C3916628   2.935   2.662   7.716 -0.0224 -0.2430 -0.7075
  150SAPE   H9X16629   3.014   2.666   7.638  0.7103 -1.5433 -0.0764
  150SAPE   H9Y16630   2.909   2.556   7.739  0.3717 -0.2501 -0.2643
  150SAPE  C31016631   3.006   2.712   7.846 -0.2614 -0.2014 -0.0053
  150SAPE  H10X16632   3.039   2.816   7.822 -1.8704  0.1873 -0.6886
  150SAPE  H10Y16633   3.099   2.653   7.853  1.3814  2.0857 -1.1297
  150SAPE  C31116634   2.927   2.692   7.970  0.2077 -0.1591 -0.0278
  150SAPE  H11X16635   2.890   2.588   7.979 -0.5145  0.1993  1.6549
  150SAPE  H11Y16636   2.841   2.762   7.984 -0.9254 -1.1761 -1.5641
  150SAPE  C31216637   3.026   2.720   8.080 -0.9614  0.5906  0.0312
  150SAPE  H12X16638   3.086   2.810   8.054 -0.6558  1.0952  2.2894
  150SAPE  H12Y16639   3.103   2.641   8.095 -0.7383  0.7280 -0.3479
  150SAPE  C31316640   2.959   2.740   8.212 -0.1480  0.2407 -0.0265
  150SAPE  H13X16641   2.892   2.652   8.221  0.6069 -0.4790 -1.1343
  150SAPE  H13Y16642   2.902   2.835   8.215 -1.6675 -0.6449  0.4730
  150SAPE  C31416643   3.058   2.725   8.333 -0.2254 -0.3659  0.8292
  150SAPE  H14X16644   3.121   2.635   8.322  1.4209  0.8796 -0.6235
  150SAPE  H14Y16645   2.992   2.710   8.421 -1.2328 -1.8583 -0.1473
  150SAPE  C31516646   3.131   2.863   8.336  0.4690  0.0732 -0.1051
  150SAPE  H15X16647   3.058   2.941   8.305  1.5953  1.8923  1.5957
  150SAPE  H15Y16648   3.212   2.851   8.261 -0.7356 -0.9850 -1.2919
  150SAPE  C31616649   3.198   2.903   8.469 -0.0992 -0.3239 -0.6730
  150SAPE  H16X16650   3.262   2.822   8.511 -2.7988 -1.6610  1.0976
  150SAPE  H16Y16651   3.118   2.914   8.544  1.4347 -2.6922  1.4742
  150SAPE  C31716652   3.287   3.026   8.459  0.3864 -0.7224 -0.4083
  150SAPE  H17X16653   3.219   3.092   8.400 -0.3390 -0.8448  0.2759
  150SAPE  H17Y16654   3.363   3.020   8.377  0.3856  2.5579 -0.7923
  150SAPE  C31816655   3.337   3.093   8.580  0.0051 -0.2346 -0.1582
  150SAPE  H18X16656   3.399   3.176   8.538  2.0889 -2.9375 -2.8654
  150SAPE  H18Y16657   3.392   3.031   8.654 -0.5595 -1.3845 -0.6846
  150SAPE  H18Z16658   3.259   3.148   8.637 -1.0595  0.5790 -2.2977
  151SAPE     N16659   5.319   5.754   6.257 -0.2763 -0.1940 -0.1699
  151SAPE   HN116660   5.311   5.857   6.244  1.4036  0.2093  1.5232
  151SAPE   HN216661   5.221   5.725   6.235 -0.1939 -0.2814 -0.4287
  151SAPE   HN316662   5.326   5.734   6.358 -1.0645  1.2561  0.1908
  151SAPE   C1216663   5.414   5.678   6.166  0.0037  0.3948  0.3799
  151SAPE  H12A16664   5.516   5.719   6.184 -0.3667  1.5779 -0.1134
  151SAPE  H12B16665   5.398   5.700   6.058  2.3425 -0.3325 -0.1723
  151SAPE   C1116666   5.414   5.527   6.206  0.5951 -0.4698  0.1920
  151SAPE  H11A16667   5.496   5.472   6.155  0.5083 -1.4742  1.0967
  151SAPE  H11B16668   5.318   5.478   6.179  1.1443 -1.5324  0.1155
  151SAPE     P16669   5.512   5.416   6.429 -0.3265  0.2985  0.0931
  151SAPE   O1316670   5.439   5.388   6.557 -0.0672  0.3746  0.5431
  151SAPE   O1416671   5.550   5.300   6.344 -0.1242  0.5081  0.2397
  151SAPE   O1216672   5.424   5.515   6.347  0.2211  0.2160  0.2633
  151SAPE   O1116673   5.642   5.505   6.463  0.1353  0.0811  0.0670
  151SAPE    C116674   5.639   5.615   6.547  0.3647 -0.8156 -0.2074
  151SAPE    HA16675   5.699   5.700   6.508 -1.4163  0.5169 -0.1379
  151SAPE    HB16676   5.535   5.653   6.553  1.1616  2.0795 -2.5116
  151SAPE    C216677   5.700   5.586   6.688  0.7326 -0.8733 -1.1227
  151SAPE    HS16678   5.802   5.547   6.669  0.9913 -0.3590 -0.7984
  151SAPE   O2116679   5.612   5.492   6.753 -0.1543 -0.3005  0.0797
  151SAPE   C2116680   5.665   5.374   6.789  0.6431  0.3625 -0.9527
  151SAPE   O2216681   5.770   5.327   6.756 -0.3413  0.2953  0.2898
  151SAPE   C2216682   5.570   5.310   6.896 -0.0097 -0.1158 -0.2910
  151SAPE   H2R16683   5.593   5.365   6.990  0.6769 -1.6422  0.4856
  151SAPE   H2S16684   5.465   5.317   6.860  0.2094 -0.2457 -0.9697
  151SAPE    C316685   5.710   5.718   6.778 -0.4790  0.0634 -0.3275
  151SAPE    HX16686   5.615   5.774   6.764 -0.0065  0.9637 -0.0463
  151SAPE    HY16687   5.792   5.787   6.748 -0.5460 -0.4188 -1.7062
  151SAPE   O3116688   5.718   5.679   6.918 -0.3440 -0.0428  0.4731
  151SAPE   C3116689   5.607   5.673   6.990  0.9236 -0.4525  0.0343
  151SAPE   O3216690   5.490   5.689   6.951 -0.2127  0.4588  0.0001
  151SAPE   C3216691   5.651   5.645   7.133  0.2073 -0.1985 -0.3196
  151SAPE   H2X16692   5.698   5.545   7.145 -2.7679 -1.5840  0.7081
  151SAPE   H2Y16693   5.560   5.635   7.195  0.1324  0.2358 -0.3556
  151SAPE   C2316694   5.622   5.173   6.927  0.0227 -0.3424 -0.0439
  151SAPE   H3R16695   5.730   5.174   6.953  0.1145  1.8928 -0.3711
  151SAPE   H3S16696   5.598   5.121   6.832 -0.4081 -0.5379  0.1654
  151SAPE   C2416697   5.564   5.105   7.055  0.3317  0.2090 -0.2604
  151SAPE   H4R16698   5.597   5.159   7.146  0.6105  1.9741 -1.3535
  151SAPE   H4S16699   5.603   5.002   7.067 -1.8332 -0.5430  0.7387
  151SAPE   C2516700   5.416   5.092   7.047  0.0081  0.7113  0.0804
  151SAPE   H5R16701   5.377   5.019   6.974 -2.1442  1.1751  0.6897
  151SAPE   C2616702   5.334   5.179   7.107  0.2055 -0.5874 -0.3848
  151SAPE   H6R16703   5.226   5.161   7.096 -0.2543 -0.1568  2.6427
  151SAPE   C2716704   5.371   5.298   7.190  0.7240  0.0522 -0.5308
  151SAPE   H7R16705   5.455   5.351   7.140  1.6497 -0.8113  0.0933
  151SAPE   H7S16706   5.414   5.261   7.285 -2.4321  1.6157  1.6791
  151SAPE   C2816707   5.261   5.399   7.210 -0.2784  0.2346 -0.6097
  151SAPE   H8R16708   5.254   5.459   7.118  0.5409 -1.3843 -1.7709
  151SAPE   C2916709   5.186   5.411   7.323  0.6795 -0.0723 -0.3482
  151SAPE   H9R16710   5.108   5.488   7.326  0.4740 -0.2577 -0.7392
  151SAPE  C21016711   5.207   5.338   7.455  0.0615 -0.3239  0.2308
  151SAPE  H10R16712   5.145   5.376   7.539 -0.8671 -0.5453 -0.3324
  151SAPE  H10S16713   5.317   5.348   7.469 -0.1129  2.9751 -0.0861
  151SAPE  C21116714   5.180   5.185   7.455 -0.0867 -0.2850  0.5753
  151SAPE  H11R16715   5.120   5.157   7.367  0.7991  2.4809 -1.0412
  151SAPE  C21216716   5.233   5.092   7.542  0.5927 -0.6013  0.4001
  151SAPE  H12R16717   5.205   4.987   7.523 -1.2781  0.3112 -2.5742
  151SAPE  C21316718   5.319   5.109   7.666 -0.3144 -0.0588 -0.4696
  151SAPE  H13R16719   5.359   5.212   7.669  1.9417 -0.8814 -0.0237
  151SAPE  H13S16720   5.418   5.065   7.642  1.0283  0.9836  2.6194
  151SAPE  C21416721   5.269   5.036   7.793 -0.7368 -0.2975  0.1199
  151SAPE  H14R16722   5.166   4.998   7.783 -2.0853  3.0517  0.0021
  151SAPE  C21516723   5.337   5.011   7.905  0.2115  0.3536  0.1292
  151SAPE  H15R16724   5.283   4.949   7.979 -0.2579 -0.8583 -1.1930
  151SAPE  C21616725   5.478   5.048   7.938  0.2385 -0.6980  0.2812
  151SAPE  H16R16726   5.540   5.052   7.846  0.0087  0.3396  0.1622
  151SAPE  H16S16727   5.519   4.970   8.006  0.0047 -0.8166  0.2892
  151SAPE  C21716728   5.485   5.188   7.995  1.4942  0.1739  0.1351
  151SAPE  H17R16729   5.420   5.251   7.929  0.6532 -0.7065  0.1064
  151SAPE  H17S16730   5.585   5.236   7.984  0.9486  1.0320 -1.5353
  151SAPE  C21816731   5.431   5.190   8.138 -1.0141 -0.0191 -0.3605
  151SAPE  H18R16732   5.501   5.147   8.212 -0.8683 -2.4655 -1.8337
  151SAPE  H18S16733   5.335   5.135   8.141 -1.6625  0.9481 -1.7846
  151SAPE  C21916734   5.395   5.332   8.190  0.2348 -0.5946  0.6968
  151SAPE  H19R16735   5.484   5.396   8.175 -0.7697  0.5127 -0.8004
  151SAPE  H19S16736   5.378   5.325   8.299 -3.3964 -4.7488  0.1275
  151SAPE  C22016737   5.270   5.395   8.127 -0.7039  0.6057  0.2292
  151SAPE  H20R16738   5.197   5.312   8.137  1.7937 -1.7200  0.7728
  151SAPE  H20S16739   5.245   5.491   8.177  1.6636  1.2400  0.3421
  151SAPE  H20T16740   5.289   5.407   8.018  1.9980  2.7953  0.8249
  151SAPE   C3316741   5.743   5.759   7.190 -0.4650  0.0385  0.5161
  151SAPE   H3X16742   5.683   5.842   7.232 -2.6094 -1.3258  0.3224
  151SAPE   H3Y16743   5.804   5.809   7.112 -1.1072  0.7220  0.4439
  151SAPE   C3416744   5.854   5.712   7.288  0.4522 -0.9550 -0.1736
  151SAPE   H4X16745   5.918   5.640   7.232 -0.2079 -0.2737 -1.8432
  151SAPE   H4Y16746   5.809   5.649   7.368  0.8731 -0.8424  0.1615
  151SAPE   C3516747   5.938   5.825   7.353  0.4016 -0.3606  0.0275
  151SAPE   H5X16748   5.866   5.889   7.409 -0.9891 -0.1400 -1.9272
  151SAPE   H5Y16749   5.989   5.891   7.280  0.8168 -0.7746 -0.0622
  151SAPE   C3616750   6.062   5.777   7.440  0.6561  0.2606  0.3720
  151SAPE   H6X16751   6.110   5.691   7.388  1.8269  0.4815  1.0523
  151SAPE   H6Y16752   6.032   5.747   7.543  0.7780  1.7564  0.8610
  151SAPE   C3716753   6.174   5.882   7.446 -0.0018 -0.1583 -0.1373
  151SAPE   H7X16754   6.134   5.975   7.491 -0.1792 -0.3201  0.0432
  151SAPE   H7Y16755   6.208   5.903   7.342  0.7451 -0.9567 -0.0694
  151SAPE   C3816756   6.291   5.847   7.533  0.4795  0.6541  0.1542
  151SAPE   H8X16757   6.371   5.925   7.531  0.1788  0.9519 -0.4340
  151SAPE   H8Y16758   6.335   5.751   7.501  1.4698  1.8311 -2.2565
  151SAPE   C3916759   6.244   5.826   7.676  0.3793 -0.8137 -0.4585
  151SAPE   H9X16760   6.175   5.740   7.688  0.8538 -0.8844  2.6479
  151SAPE   H9Y16761   6.188   5.913   7.716  1.2703  0.3618 -1.7028
  151SAPE  C31016762   6.357   5.805   7.775  0.1378  0.2528 -0.5076
  151SAPE  H10X16763   6.430   5.889   7.764  0.8427 -0.1241  1.0078
  151SAPE  H10Y16764   6.419   5.715   7.760  0.8466  0.1403  2.4345
  151SAPE  C31116765   6.311   5.794   7.917 -0.3692  0.2746 -0.5381
  151SAPE  H11X16766   6.256   5.700   7.936  2.0641 -0.5640  3.7238
  151SAPE  H11Y16767   6.239   5.871   7.952 -0.1822  0.6133 -0.8955
  151SAPE  C31216768   6.428   5.798   8.019 -0.2400 -0.1113 -0.3251
  151SAPE  H12X16769   6.442   5.908   8.033 -1.7402  0.0542  0.0316
  151SAPE  H12Y16770   6.524   5.768   7.973  0.5332  1.4448  0.2140
  151SAPE  C31316771   6.416   5.714   8.143  0.3221  0.6454  0.3865
  151SAPE  H13X16772   6.431   5.610   8.109  2.5214  1.0268  0.0409
  151SAPE  H13Y16773   6.310   5.737   8.166 -0.4937 -0.4082 -1.9981
  151SAPE  C31416774   6.520   5.737   8.252 -0.0625 -0.2110 -1.1432
  151SAPE  H14X16775   6.624   5.712   8.224 -0.1023  0.1374 -1.6158
  151SAPE  H14Y16776   6.498   5.682   8.346 -0.7949  1.6788 -0.1421
  151SAPE  C31516777   6.524   5.887   8.307 -0.0525 -0.8800 -1.0262
  151SAPE  H15X16778   6.418   5.912   8.331  1.2357  2.0813  2.3881
  151SAPE  H15Y16779   6.562   5.951   8.225  1.8054  0.3222  0.7023
  151SAPE  C31616780   6.611   5.905   8.429 -0.0863  0.5608  0.7067
  151SAPE  H16X16781   6.712   5.873   8.396 -0.3082 -0.9707  1.4595
  151SAPE  H16Y16782   6.575   5.845   8.514 -2.2267 -0.1253 -0.6086
  151SAPE  C31716783   6.641   6.052   8.471  0.0957 -0.0812  0.1026
  151SAPE  H17X16784   6.541   6.079   8.511 -0.8937 -0.6033 -1.8854
  151SAPE  H17Y16785   6.667   6.123   8.390  0.5951  0.2053  0.5092
  151SAPE  C31816786   6.759   6.070   8.571  0.5999  0.0133  0.7457
  151SAPE  H18X16787   6.725   6.062   8.676 -0.2033 -3.0569  0.3698
  151SAPE  H18Y16788   6.791   6.176   8.561 -1.2490  0.5615  0.1228
  151SAPE  H18Z16789   6.850   6.008   8.553 -0.8169 -1.6240 -1.3420
  152SAPE     N16790   3.563   1.526   6.134  0.1375  0.3314 -0.4489
  152SAPE   HN116791   3.483   1.501   6.196 -1.4212 -1.6409 -3.0218
  152SAPE   HN216792   3.520   1.559   6.045  0.0125 -2.7266 -1.6360
  152SAPE   HN316793   3.610   1.434   6.119 -1.2843 -0.6285  0.7009
  152SAPE   C1216794   3.660   1.616   6.213  0.0783  0.0703  0.4804
  152SAPE  H12A16795   3.744   1.643   6.146 -0.2262  1.5044  0.6273
  152SAPE  H12B16796   3.695   1.554   6.298 -0.8279 -0.2504  0.6286
  152SAPE   C1116797   3.585   1.741   6.262  0.6961 -0.7184  0.3839
  152SAPE  H11A16798   3.647   1.795   6.336  0.8577 -1.4053  0.7540
  152SAPE  H11B16799   3.495   1.708   6.318 -0.9397  0.4840 -1.3610
  152SAPE     P16800   3.527   1.978   6.168  0.2051 -0.2503  0.2514
  152SAPE   O1316801   3.643   2.032   6.100 -0.2068 -0.5353  0.3750
  152SAPE   O1416802   3.392   2.015   6.117  0.3386 -0.1771  0.4275
  152SAPE   O1216803   3.537   1.827   6.157 -0.1922  0.6028  0.0929
  152SAPE   O1116804   3.534   1.996   6.322 -0.3009 -0.1527 -0.0568
  152SAPE    C116805   3.475   2.109   6.394 -0.3971  0.0346  0.1111
  152SAPE    HA16806   3.528   2.199   6.354 -2.3594  1.1192 -0.1577
  152SAPE    HB16807   3.368   2.127   6.371 -0.3988  1.1854  0.9182
  152SAPE    C216808   3.479   2.068   6.542 -0.5435 -0.4079  0.4332
  152SAPE    HS16809   3.432   2.155   6.592 -1.7317 -0.5752 -0.3315
  152SAPE   O2116810   3.614   2.048   6.584  0.0717  0.3940  0.2700
  152SAPE   C2116811   3.705   2.138   6.569  0.1008 -0.0408 -0.3958
  152SAPE   O2216812   3.697   2.247   6.507 -0.0915  0.6671 -0.1323
  152SAPE   C2216813   3.838   2.075   6.616  0.3683  0.6014  0.0370
  152SAPE   H2R16814   3.912   2.098   6.537  1.2913 -0.5202  0.5473
  152SAPE   H2S16815   3.877   2.135   6.701 -1.0969 -0.8809  1.8402
  152SAPE    C316816   3.399   1.940   6.570  0.2445 -0.0017 -1.4383
  152SAPE    HX16817   3.462   1.851   6.546 -0.9568 -1.3941  0.2679
  152SAPE    HY16818   3.309   1.934   6.506  0.1661 -1.5437 -1.2413
  152SAPE   O3116819   3.370   1.926   6.711 -0.3271 -0.3439  0.0047
  152SAPE   C3116820   3.269   1.996   6.749 -0.3068  0.2056  0.1019
  152SAPE   O3216821   3.211   2.080   6.682 -0.6569 -0.0609 -0.7822
  152SAPE   C3216822   3.248   1.959   6.898 -0.3362 -0.2157  0.4551
  152SAPE   H2X16823   3.347   1.947   6.947 -0.8181 -1.0251  1.2713
  152SAPE   H2Y16824   3.199   1.861   6.917 -1.7905  0.9372  3.3604
  152SAPE   C2316825   3.854   1.931   6.677 -0.5595 -0.3292  0.7219
  152SAPE   H3R16826   3.837   1.866   6.589 -1.0445  0.5314  0.1566
  152SAPE   H3S16827   3.775   1.921   6.754 -1.1042  1.1692  0.4021
  152SAPE   C2416828   3.998   1.916   6.724  0.2804 -0.5111  0.7492
  152SAPE   H4R16829   4.016   2.004   6.790 -1.4265  1.7695 -1.6328
  152SAPE   H4S16830   4.075   1.933   6.646 -1.2512  0.5269 -0.5954
  152SAPE   C2516831   4.014   1.779   6.778 -0.5473  0.8429  0.1217
  152SAPE   H5R16832   4.005   1.693   6.711  1.0185 -0.4339  1.4730
  152SAPE   C2616833   4.041   1.749   6.909 -0.0933 -0.1180 -0.3566
  152SAPE   H6R16834   4.061   1.644   6.936  0.9214 -0.0219 -0.6871
  152SAPE   C2716835   4.076   1.836   7.031 -0.1197  0.1458  0.2373
  152SAPE   H7R16836   4.075   1.769   7.119 -1.0289  1.4445  1.2414
  152SAPE   H7S16837   3.993   1.908   7.045  0.5620  0.6806  1.8207
  152SAPE   C2816838   4.213   1.914   7.022  0.5349 -0.2538  0.3820
  152SAPE   H8R16839   4.298   1.868   6.970  0.6480  1.7122 -1.2760
  152SAPE   C2916840   4.233   2.028   7.093 -0.2238 -0.2577  0.4208
  152SAPE   H9R16841   4.332   2.077   7.092 -0.9499  1.2687  0.6319
  152SAPE  C21016842   4.128   2.096   7.181 -0.2699 -0.1132  0.8738
  152SAPE  H10R16843   4.152   2.067   7.285 -2.1924 -2.6800  0.6913
  152SAPE  H10S16844   4.028   2.050   7.169  1.0232 -3.2376  1.1614
  152SAPE  C21116845   4.120   2.247   7.171  0.1372  0.5515 -0.0624
  152SAPE  H11R16846   4.160   2.293   7.262 -4.1005 -1.1432  2.9995
  152SAPE  C21216847   4.072   2.318   7.068  0.1103  0.2703 -1.0108
  152SAPE  H12R16848   4.079   2.427   7.072  2.0050  0.2552 -2.6625
  152SAPE  C21316849   3.992   2.265   6.951 -0.6551 -0.6092  0.2291
  152SAPE  H13R16850   3.947   2.167   6.977 -0.7200 -0.3064  1.2782
  152SAPE  H13S16851   4.069   2.264   6.871 -0.6376  0.5780  0.2189
  152SAPE  C21416852   3.883   2.361   6.910  0.4589 -0.4601 -0.2840
  152SAPE  H14R16853   3.908   2.446   6.844 -1.6844 -0.7383 -1.5777
  152SAPE  C21516854   3.754   2.341   6.927 -0.4912  0.3126 -0.0497
  152SAPE  H15R16855   3.682   2.420   6.900 -0.7829  1.3206  3.1989
  152SAPE  C21616856   3.696   2.225   7.004 -0.3766 -0.4158  0.1763
  152SAPE  H16R16857   3.698   2.127   6.951 -0.6228  0.3669 -1.3421
  152SAPE  H16S16858   3.586   2.244   7.010 -0.8192 -1.7398 -2.3293
  152SAPE  C21716859   3.744   2.201   7.152 -0.4833 -0.0475  0.1793
  152SAPE  H17R16860   3.846   2.242   7.171 -0.4105  0.3863 -1.0595
  152SAPE  H17S16861   3.760   2.091   7.153  1.3015  0.1108 -1.9742
  152SAPE  C21816862   3.641   2.246   7.259  0.5750  0.1874 -0.2301
  152SAPE  H18R16863   3.551   2.184   7.242  0.6061  0.0924 -0.0463
  152SAPE  H18S16864   3.629   2.354   7.235  0.9058  0.1708 -0.4820
  152SAPE  C21916865   3.691   2.230   7.407  0.1872  0.1867  0.2415
  152SAPE  H19R16866   3.769   2.309   7.417 -1.1453  1.5833  0.0370
  152SAPE  H19S16867   3.740   2.131   7.422  2.1034  1.4046  2.9595
  152SAPE  C22016868   3.591   2.252   7.514  0.2526  0.2261 -0.4533
  152SAPE  H20R16869   3.555   2.357   7.516  0.7256  0.4016  1.7650
  152SAPE  H20S16870   3.645   2.229   7.608  3.1486  0.0223 -2.0440
  152SAPE  H20T16871   3.515   2.172   7.504 -0.1060  0.3572  1.0630
  152SAPE   C3316872   3.175   2.075   6.975  0.1206  0.4216  0.7888
  152SAPE   H3X16873   3.079   2.087   6.920 -0.1373 -3.1208  0.2261
  152SAPE   H3Y16874   3.226   2.173   6.966 -0.2839  0.4556 -2.5785
  152SAPE   C3416875   3.131   2.036   7.112  0.3483 -1.1367 -0.0041
  152SAPE   H4X16876   3.073   1.942   7.118  0.4423 -1.1705  0.4122
  152SAPE   H4Y16877   3.060   2.117   7.141  0.6096 -1.1409  0.6774
  152SAPE   C3516878   3.244   2.015   7.218 -0.5956 -0.0641 -0.2367
  152SAPE   H5X16879   3.224   2.067   7.314 -1.7679  1.7401 -1.3921
  152SAPE   H5Y16880   3.340   2.064   7.192 -1.5162  1.4025 -1.0217
  152SAPE   C3616881   3.266   1.865   7.258  0.6936  0.7455  0.7603
  152SAPE   H6X16882   3.307   1.816   7.168  0.5118  0.7250  0.6888
  152SAPE   H6Y16883   3.169   1.819   7.286  0.3513  1.2063  0.3481
  152SAPE   C3716884   3.361   1.852   7.376 -0.1186  0.4244  0.7059
  152SAPE   H7X16885   3.455   1.903   7.346 -0.6211 -0.1005 -2.0159
  152SAPE   H7Y16886   3.391   1.746   7.388  0.7350  0.6474  0.5905
  152SAPE   C3816887   3.304   1.902   7.513  0.5834  0.4279  0.8403
  152SAPE   H8X16888   3.213   1.842   7.538  1.0255 -0.3029  0.7264
  152SAPE   H8Y16889   3.278   2.008   7.494 -0.2587  0.0586 -0.2297
  152SAPE   C3916890   3.404   1.905   7.631 -0.4129 -0.1151 -0.0804
  152SAPE   H9X16891   3.487   1.979   7.624  0.2149 -0.5469  2.0201
  152SAPE   H9Y16892   3.457   1.808   7.630 -0.7880 -0.3344  0.6526
  152SAPE  C31016893   3.344   1.946   7.770 -0.5244  0.2647  0.2887
  152SAPE  H10X16894   3.263   1.877   7.801  0.0313 -0.0127  1.1550
  152SAPE  H10Y16895   3.283   2.038   7.756  1.5097  1.6157 -0.2805
  152SAPE  C31116896   3.431   1.986   7.884 -0.1424  0.3945 -0.3938
  152SAPE  H11X16897   3.477   1.893   7.925 -1.7392  0.2366  1.1419
  152SAPE  H11Y16898   3.376   2.030   7.970  3.7550  1.6153  1.7337
  152SAPE  C31216899   3.536   2.090   7.847 -0.2030  0.6662 -0.0380
  152SAPE  H12X16900   3.485   2.167   7.785 -1.9464 -0.4806 -0.1084
  152SAPE  H12Y16901   3.619   2.048   7.787  0.3774  0.9619  0.5356
  152SAPE  C31316902   3.609   2.153   7.970 -0.7523  0.4030  0.8123
  152SAPE  H13X16903   3.708   2.195   7.942 -0.7861  0.0777  0.1733
  152SAPE  H13Y16904   3.630   2.075   8.047  1.7914  1.2387  1.0435
  152SAPE  C31416905   3.538   2.274   8.038  0.3444  0.2676 -0.1641
  152SAPE  H14X16906   3.435   2.254   8.074  0.4429 -0.1745 -0.1233
  152SAPE  H14Y16907   3.520   2.358   7.968  1.4128 -0.2081 -1.0241
  152SAPE  C31516908   3.605   2.322   8.165  0.6067 -0.0576  0.6551
  152SAPE  H15X16909   3.715   2.325   8.148  0.3312  1.7886 -1.3162
  152SAPE  H15Y16910   3.578   2.262   8.254  1.7081  0.3914  1.3220
  152SAPE  C31616911   3.567   2.470   8.201 -0.5748  0.2482 -0.1110
  152SAPE  H16X16912   3.599   2.538   8.120 -0.5291  0.9285  0.4653
  152SAPE  H16Y16913   3.630   2.507   8.284  0.4616  1.0458 -1.2256
  152SAPE  C31716914   3.416   2.510   8.210 -0.1416 -0.0197 -1.3711
  152SAPE  H17X16915   3.362   2.497   8.114 -0.9202 -0.6041 -0.8721
  152SAPE  H17Y16916   3.402   2.615   8.243  1.1372 -0.0459 -0.7032
  152SAPE  C31816917   3.341   2.437   8.326  0.0576  0.7011  0.4259
  152SAPE  H18X16918   3.321   2.332   8.296  0.0670  0.5517  0.9282
  152SAPE  H18Y16919   3.240   2.483   8.333 -1.4386 -1.8508 -2.2952
  152SAPE  H18Z16920   3.395   2.422   8.422  1.1802 -2.5814 -0.5954
  153SAPE     N16921   6.737   3.985   5.785 -0.3791 -0.2561  0.7233
  153SAPE   HN116922   6.750   4.081   5.824  2.1988 -1.0532  2.0645
  153SAPE   HN216923   6.797   3.979   5.701 -1.2017 -3.7931  0.2446
  153SAPE   HN316924   6.640   3.963   5.754 -0.0908 -0.2250 -0.2455
  153SAPE   C1216925   6.790   3.907   5.893  0.7793  0.1227 -0.1165
  153SAPE  H12A16926   6.900   3.889   5.883  0.6911  0.7385 -3.5375
  153SAPE  H12B16927   6.749   3.804   5.885  1.6040 -0.4567  2.2512
  153SAPE   C1116928   6.736   3.970   6.021  0.3493  0.5992 -0.3515
  153SAPE  H11A16929   6.773   4.073   6.040  0.7041 -0.0311  2.9740
  153SAPE  H11B16930   6.794   3.928   6.105  1.2024  1.4807 -0.4871
  153SAPE     P16931   6.487   3.863   6.068  0.0095  0.0685 -0.2168
  153SAPE   O1316932   6.356   3.919   6.092  0.7016 -0.3042  0.4099
  153SAPE   O1416933   6.487   3.764   5.960 -0.2749  0.5988  0.1185
  153SAPE   O1216934   6.588   3.979   6.031 -0.4869  0.2095 -0.3894
  153SAPE   O1116935   6.562   3.797   6.195 -0.0035  0.2120 -0.3261
  153SAPE    C116936   6.552   3.872   6.316 -0.5161 -0.1787 -0.1073
  153SAPE    HA16937   6.651   3.921   6.319 -0.6357  0.0345  0.5780
  153SAPE    HB16938   6.470   3.948   6.321  0.3467  0.9539 -2.0677
  153SAPE    C216939   6.529   3.788   6.442 -0.8732  0.4775  0.2598
  153SAPE    HS16940   6.600   3.702   6.441 -1.1879  0.2136  0.5194
  153SAPE   O2116941   6.396   3.734   6.441 -0.0118  0.1227 -0.1613
  153SAPE   C2116942   6.377   3.621   6.508  0.2017  0.7305 -0.7214
  153SAPE   O2216943   6.470   3.546   6.538  0.5792  0.3576  0.2173
  153SAPE   C2216944   6.236   3.580   6.523  0.0830 -0.9876  0.2943
  153SAPE   H2R16945   6.167   3.640   6.461  0.6641 -0.2339  0.3581
  153SAPE   H2S16946   6.218   3.476   6.489 -1.4863  0.0738 -2.3671
  153SAPE    C316947   6.555   3.883   6.556 -0.1567 -0.2114  0.0245
  153SAPE    HX16948   6.477   3.962   6.548 -1.8367 -1.8923 -0.9335
  153SAPE    HY16949   6.657   3.927   6.558 -0.5151  0.6220  2.0067
  153SAPE   O3116950   6.534   3.821   6.682  0.2934 -0.3475 -0.4919
  153SAPE   C3116951   6.627   3.741   6.722  0.6372 -0.3240 -0.0882
  153SAPE   O3216952   6.730   3.717   6.664 -0.0704  0.3718  0.1471
  153SAPE   C3216953   6.592   3.688   6.861  0.2534  0.0346 -0.1138
  153SAPE   H2X16954   6.642   3.590   6.848 -0.2236 -0.1462 -0.6764
  153SAPE   H2Y16955   6.483   3.668   6.867 -0.4108  3.1641 -0.2775
  153SAPE   C2316956   6.193   3.583   6.675  0.2559 -0.4862  0.0561
  153SAPE   H3R16957   6.083   3.576   6.685  0.1608  0.7590  0.1138
  153SAPE   H3S16958   6.231   3.678   6.720  2.9286 -1.8186  0.8212
  153SAPE   C2416959   6.240   3.473   6.768 -0.2772  0.4794  0.3222
  153SAPE   H4R16960   6.350   3.475   6.753 -0.0876 -1.6800  1.0603
  153SAPE   H4S16961   6.198   3.385   6.715 -0.7311  1.2025 -0.5436
  153SAPE   C2516962   6.188   3.485   6.914 -0.0618  0.1392  0.1146
  153SAPE   H5R16963   6.169   3.586   6.953 -1.1298  0.2123 -0.5773
  153SAPE   C2616964   6.136   3.382   6.984  0.0518 -0.2332 -1.0930
  153SAPE   H6R16965   6.115   3.401   7.090  1.0194  0.0494 -0.9495
  153SAPE   C2716966   6.113   3.238   6.952 -0.1402 -0.3885 -0.5400
  153SAPE   H7R16967   6.138   3.229   6.844 -1.4669  0.7186 -0.9739
  153SAPE   H7S16968   6.006   3.213   6.969 -0.9135  1.9722 -1.6455
  153SAPE   C2816969   6.207   3.143   7.033  0.2511  0.1884 -0.1196
  153SAPE   H8R16970   6.255   3.065   6.972  3.7195  1.2319  1.0779
  153SAPE   C2916971   6.237   3.148   7.168 -0.4533  0.7195 -0.5171
  153SAPE   H9R16972   6.301   3.068   7.209 -1.8903 -1.1799 -1.8065
  153SAPE  C21016973   6.193   3.250   7.275 -0.4420  0.3135 -0.2012
  153SAPE  H10R16974   6.084   3.265   7.263 -0.6254 -0.8678 -0.1305
  153SAPE  H10S16975   6.251   3.345   7.272 -3.2892  2.1516 -1.5208
  153SAPE  C21116976   6.200   3.188   7.415 -0.4222  0.0819  0.2507
  153SAPE  H11R16977   6.278   3.113   7.439 -1.3738 -1.0267 -0.0251
  153SAPE  C21216978   6.116   3.225   7.515  0.0188 -0.3747  0.4449
  153SAPE  H12R16979   6.137   3.186   7.616  2.1108 -1.4957 -0.3579
  153SAPE  C21316980   5.996   3.320   7.505  0.6013 -0.0859 -0.8444
  153SAPE  H13R16981   6.002   3.397   7.425 -1.1787  2.1652  1.0696
  153SAPE  H13S16982   5.984   3.374   7.601  0.8882 -2.4337  0.5989
  153SAPE  C21416983   5.873   3.235   7.489 -0.1186  0.8652 -0.6099
  153SAPE  H14R16984   5.851   3.204   7.386 -0.3817 -0.2871 -0.2162
  153SAPE  C21516985   5.779   3.207   7.582 -0.3123  0.3141 -0.2348
  153SAPE  H15R16986   5.681   3.160   7.561 -0.4397 -0.3942  1.7015
  153SAPE  C21616987   5.783   3.263   7.719  0.0831  0.3839  0.2766
  153SAPE  H16R16988   5.734   3.363   7.722 -1.1715 -0.2242  2.6015
  153SAPE  H16S16989   5.888   3.281   7.751  0.1112  1.1649 -0.2300
  153SAPE  C21716990   5.721   3.177   7.832  0.3991 -0.1334  0.4007
  153SAPE  H17R16991   5.784   3.090   7.856 -0.1615 -0.7814 -0.4203
  153SAPE  H17S16992   5.616   3.152   7.806 -0.2439  0.2954  2.4432
  153SAPE  C21816993   5.701   3.262   7.963 -0.0938  0.0776 -0.0038
  153SAPE  H18R16994   5.654   3.194   8.038 -2.5341 -0.0923 -1.5610
  153SAPE  H18S16995   5.638   3.353   7.948 -1.0514 -0.5957 -0.1906
  153SAPE  C21916996   5.829   3.307   8.034  0.2777  0.7165  0.7301
  153SAPE  H19R16997   5.861   3.392   7.971  2.1285 -2.4088 -2.9096
  153SAPE  H19S16998   5.912   3.234   8.021  1.0946  2.1018 -2.5618
  153SAPE  C22016999   5.814   3.340   8.182 -0.2579 -0.1753  0.2556
  153SAPE  H20R17000   5.900   3.406   8.202  0.1867  0.0911 -2.1976
  153SAPE  H20S17001   5.809   3.252   8.250 -0.5062 -0.9042 -0.6719
  153SAPE  H20T17002   5.720   3.400   8.188 -0.1264  0.1526 -0.8012
  153SAPE   C3317003   6.649   3.778   6.967  0.2807 -0.8844  0.3803
  153SAPE   H3X17004   6.587   3.869   6.985  1.5097 -0.4490  2.9225
  153SAPE   H3Y17005   6.755   3.806   6.949  0.2301 -2.2467 -2.5654
  153SAPE   C3417006   6.635   3.711   7.105 -0.0438 -0.3920  0.3879
  153SAPE   H4X17007   6.713   3.631   7.110 -2.4384 -2.8880  0.3696
  153SAPE   H4Y17008   6.538   3.659   7.117  0.2477 -0.8348  0.9533
  153SAPE   C3517009   6.666   3.802   7.226 -0.0345 -0.6086  0.3052
  153SAPE   H5X17010   6.584   3.875   7.240 -0.0250  0.0171 -2.3896
  153SAPE   H5Y17011   6.759   3.857   7.201 -0.1054 -0.4998  0.2840
  153SAPE   C3617012   6.693   3.725   7.357  0.3149  0.5200 -0.2054
  153SAPE   H6X17013   6.772   3.650   7.337 -0.8086 -0.7086 -0.1549
  153SAPE   H6Y17014   6.610   3.653   7.374  1.7236 -1.8274 -2.4695
  153SAPE   C3717015   6.725   3.811   7.484  0.3426 -0.0134  0.3675
  153SAPE   H7X17016   6.664   3.904   7.479 -2.6856 -1.4702  4.4391
  153SAPE   H7Y17017   6.832   3.837   7.495  0.2323 -0.0462  1.6673
  153SAPE   C3817018   6.684   3.745   7.609 -0.0351  0.0825 -0.2863
  153SAPE   H8X17019   6.576   3.724   7.599 -0.9004  2.5300  2.6286
  153SAPE   H8Y17020   6.691   3.826   7.684 -1.4510 -1.0490  1.1255
  153SAPE   C3917021   6.765   3.623   7.645  0.0600 -0.0341 -1.0140
  153SAPE   H9X17022   6.875   3.628   7.642  0.0514  0.2733 -0.8279
  153SAPE   H9Y17023   6.739   3.550   7.565 -3.1206  0.3127 -0.4428
  153SAPE  C31017024   6.725   3.571   7.780 -0.2442 -0.0093  0.1498
  153SAPE  H10X17025   6.621   3.532   7.779 -0.2561  0.0123  0.3675
  153SAPE  H10Y17026   6.719   3.658   7.850 -0.4992  0.7533 -0.8001
  153SAPE  C31117027   6.824   3.462   7.841 -0.2261 -0.8013 -0.0485
  153SAPE  H11X17028   6.926   3.494   7.810 -0.5134  1.7267  1.3416
  153SAPE  H11Y17029   6.790   3.364   7.802 -3.4461  1.1429 -2.6815
  153SAPE  C31217030   6.823   3.463   7.993 -0.3703  0.8954 -0.2847
  153SAPE  H12X17031   6.819   3.563   8.042 -2.2056  0.3846  0.7226
  153SAPE  H12Y17032   6.909   3.402   8.029  0.9482  2.0059 -1.4422
  153SAPE  C31317033   6.698   3.396   8.053 -0.1497 -0.3358  0.0466
  153SAPE  H13X17034   6.698   3.300   7.998  0.5121  0.9323 -2.2710
  153SAPE  H13Y17035   6.603   3.450   8.033 -0.2202 -0.6771 -0.5519
  153SAPE  C31417036   6.728   3.359   8.196  0.5274  0.2877 -0.3308
  153SAPE  H14X17037   6.755   3.448   8.257 -1.9989 -0.0520  1.4655
  153SAPE  H14Y17038   6.812   3.287   8.196 -1.0617 -1.7259  1.3541
  153SAPE  C31517039   6.620   3.273   8.264  0.0243  0.0954 -0.1319
  153SAPE  H15X17040   6.659   3.236   8.361 -2.2005  1.1211  1.2065
  153SAPE  H15Y17041   6.601   3.182   8.203  2.6796  0.0706 -1.0631
  153SAPE  C31617042   6.492   3.344   8.291 -0.2778 -0.3181 -0.2347
  153SAPE  H16X17043   6.447   3.395   8.203 -2.1792 -0.4263  0.6203
  153SAPE  H16Y17044   6.505   3.428   8.364 -0.9485 -1.4348  1.2251
  153SAPE  C31717045   6.375   3.258   8.344  0.0569  0.0437  0.4020
  153SAPE  H17X17046   6.403   3.234   8.449 -1.6803  1.1940  1.1768
  153SAPE  H17Y17047   6.376   3.165   8.284  0.5296  1.0862 -1.2882
  153SAPE  C31817048   6.239   3.324   8.353 -0.1699 -0.2830  0.1626
  153SAPE  H18X17049   6.240   3.422   8.405  0.5563 -0.6672  0.8774
  153SAPE  H18Y17050   6.179   3.246   8.404  2.2017 -1.7911  0.7474
  153SAPE  H18Z17051   6.201   3.328   8.248 -0.1530 -0.9003  0.1283
  154SAPE     N17052   4.273   1.757   6.058 -0.6492 -0.2433 -0.7490
  154SAPE   HN117053   4.302   1.666   6.017  0.4354 -0.1626 -0.2091
  154SAPE   HN217054   4.182   1.740   6.106 -0.9133 -1.7533 -1.7376
  154SAPE   HN317055   4.282   1.831   5.985 -1.1335  0.3000 -0.2647
  154SAPE   C1217056   4.364   1.771   6.175  0.7070 -0.1575 -0.3613
  154SAPE  H12A17057   4.329   1.707   6.259 -0.4624  1.4001  0.4043
  154SAPE  H12B17058   4.350   1.873   6.216  0.4707 -0.5637  0.5945
  154SAPE   C1117059   4.514   1.746   6.149 -0.1369 -0.7825 -0.0543
  154SAPE  H11A17060   4.536   1.638   6.136 -0.8418 -0.7336 -2.0738
  154SAPE  H11B17061   4.551   1.784   6.247 -0.9906  1.1598 -0.4450
  154SAPE     P17062   4.584   1.963   6.033  0.6744 -0.1059  0.0530
  154SAPE   O1317063   4.670   2.009   5.921  0.1447  0.2904  0.4794
  154SAPE   O1417064   4.453   2.029   6.042 -0.1176  0.2625  0.7474
  154SAPE   O1217065   4.566   1.812   6.037 -0.0467  0.4343 -0.5237
  154SAPE   O1117066   4.668   1.993   6.159 -0.4613  0.1335  0.3289
  154SAPE    C117067   4.802   1.964   6.180 -0.5369  0.6353 -0.2400
  154SAPE    HA17068   4.841   1.865   6.150 -0.3657  1.0408 -1.4297
  154SAPE    HB17069   4.866   2.038   6.125  0.2152  1.7968  2.0594
  154SAPE    C217070   4.846   1.972   6.331  0.0275  0.4407 -0.0352
  154SAPE    HS17071   4.954   1.954   6.348 -0.1229 -2.1847 -1.2551
  154SAPE   O2117072   4.751   1.883   6.403  0.4336 -0.0341 -0.3837
  154SAPE   C2117073   4.798   1.760   6.393 -0.1567 -0.2076 -0.1031
  154SAPE   O2217074   4.904   1.728   6.344  0.4560  0.3410 -0.1871
  154SAPE   C2217075   4.704   1.667   6.465  0.3005 -0.5944  0.2204
  154SAPE   H2R17076   4.668   1.722   6.554  3.1840  2.9278 -0.5497
  154SAPE   H2S17077   4.617   1.667   6.396  0.7608  0.8469 -0.3910
  154SAPE    C317078   4.825   2.115   6.374  0.8779  0.2666  0.0706
  154SAPE    HX17079   4.718   2.127   6.404  0.9641  2.0681 -0.2416
  154SAPE    HY17080   4.855   2.179   6.289  1.9244  0.8119  0.8285
  154SAPE   O3117081   4.897   2.134   6.495 -0.2479  0.1945  0.5842
  154SAPE   C3117082   4.890   2.260   6.533 -0.2073 -0.9546 -0.2397
  154SAPE   O3217083   4.831   2.349   6.479 -0.4268 -0.3683  0.0313
  154SAPE   C3217084   4.982   2.273   6.650 -0.6872 -0.1369  1.0923
  154SAPE   H2X17085   5.041   2.364   6.625  0.9907 -2.0158 -2.4894
  154SAPE   H2Y17086   5.050   2.185   6.658 -0.4796 -0.5831 -3.2038
  154SAPE   C2317087   4.768   1.531   6.486 -0.0676  0.0679  0.2974
  154SAPE   H3R17088   4.825   1.488   6.401 -1.1019 -0.2961 -0.2214
  154SAPE   H3S17089   4.694   1.452   6.508  0.6445 -0.9024 -0.6703
  154SAPE   C2417090   4.860   1.531   6.612  0.0340 -0.2788  0.2208
  154SAPE   H4R17091   4.804   1.580   6.695 -0.9020 -0.4120 -0.3134
  154SAPE   H4S17092   4.946   1.595   6.581  0.1460 -1.2587 -1.6328
  154SAPE   C2517093   4.889   1.381   6.638 -0.3532 -0.7403  0.5127
  154SAPE   H5R17094   4.970   1.331   6.582 -0.3024 -1.5161  1.2537
  154SAPE   C2617095   4.815   1.305   6.714  0.3402  0.1270 -0.1133
  154SAPE   H6R17096   4.840   1.200   6.735 -1.1125 -0.4932 -1.2725
  154SAPE   C2717097   4.684   1.353   6.774 -0.0286 -0.0799  0.6408
  154SAPE   H7R17098   4.600   1.337   6.704  0.5439  0.4573 -0.1884
  154SAPE   H7S17099   4.672   1.461   6.797 -1.1012 -0.0413 -0.0551
  154SAPE   C2817100   4.658   1.281   6.896  0.1420  0.0752  0.7045
  154SAPE   H8R17101   4.652   1.172   6.880  1.2155 -0.0816  1.2313
  154SAPE   C2917102   4.666   1.329   7.017 -0.1557  0.4093 -0.8277
  154SAPE   H9R17103   4.630   1.262   7.097 -1.7504 -0.1690 -1.9901
  154SAPE  C21017104   4.694   1.467   7.060 -0.6931  0.6158  0.6667
  154SAPE  H10R17105   4.598   1.517   7.034  0.0800  2.2567  0.8359
  154SAPE  H10S17106   4.766   1.519   6.994 -0.8497  2.6889  2.0598
  154SAPE  C21117107   4.750   1.494   7.196  0.4055  0.6084 -0.5464
  154SAPE  H11R17108   4.835   1.426   7.216  0.4818  0.6758 -0.6425
  154SAPE  C21217109   4.712   1.585   7.289  0.2530 -0.1785  0.9115
  154SAPE  H12R17110   4.776   1.589   7.378  1.0205  0.6094  0.3344
  154SAPE  C21317111   4.607   1.689   7.272  0.4627 -0.3583  0.4645
  154SAPE  H13R17112   4.531   1.632   7.329  1.7962 -2.5579  0.1843
  154SAPE  H13S17113   4.585   1.689   7.163  1.3973 -0.8926  0.2610
  154SAPE  C21417114   4.629   1.826   7.322 -0.1907 -0.3515  0.3208
  154SAPE  H14R17115   4.734   1.857   7.326 -0.6894  1.9920 -1.9064
  154SAPE  C21517116   4.526   1.905   7.368  1.2380  0.2246  0.2102
  154SAPE  H15R17117   4.540   2.009   7.400  0.2476  0.1550  0.9353
  154SAPE  C21617118   4.377   1.868   7.384  0.5601  0.3730 -0.4166
  154SAPE  H16R17119   4.357   1.778   7.321 -0.1058  1.7881 -2.3196
  154SAPE  H16S17120   4.303   1.942   7.347 -1.6070 -1.2400  0.4482
  154SAPE  C21717121   4.319   1.833   7.529  0.4036  0.3862  1.0446
  154SAPE  H17R17122   4.375   1.748   7.574  1.3411  1.0246  1.1071
  154SAPE  H17S17123   4.210   1.819   7.512  0.6179  0.2626 -0.3259
  154SAPE  C21817124   4.337   1.945   7.628  0.1926  0.2421  0.1825
  154SAPE  H18R17125   4.262   2.023   7.603  0.1835  0.7317  1.6686
  154SAPE  H18S17126   4.440   1.978   7.600 -0.4610  0.4049 -2.2705
  154SAPE  C21917127   4.314   1.897   7.773  0.5738  0.1249  0.3128
  154SAPE  H19R17128   4.394   1.825   7.800  1.7903 -0.2816 -3.6185
  154SAPE  H19S17129   4.213   1.851   7.777  0.8993 -0.6341 -0.0227
  154SAPE  C22017130   4.312   2.008   7.881 -0.7775 -0.0057  0.0920
  154SAPE  H20R17131   4.243   1.973   7.961 -1.1744 -1.2669 -0.7697
  154SAPE  H20S17132   4.279   2.103   7.834  0.3547 -0.2071 -1.1573
  154SAPE  H20T17133   4.412   2.028   7.926 -0.2617  2.1013 -1.7939
  154SAPE   C3317134   4.901   2.298   6.780 -0.2410  0.1373 -0.1038
  154SAPE   H3X17135   4.848   2.205   6.808 -0.1887  0.6307  1.8187
  154SAPE   H3Y17136   4.818   2.369   6.760  0.7918  0.9708 -1.6498
  154SAPE   C3417137   4.988   2.331   6.902 -0.5851 -0.6844 -0.0146
  154SAPE   H4X17138   5.043   2.426   6.887 -1.2679 -0.6331 -2.8358
  154SAPE   H4Y17139   5.068   2.254   6.895 -0.5082 -0.6149  0.0954
  154SAPE   C3517140   4.906   2.335   7.034  0.0092  0.2333 -0.1519
  154SAPE   H5X17141   4.849   2.240   7.046 -0.1508  0.3289 -0.1485
  154SAPE   H5Y17142   4.822   2.407   7.030 -1.2364 -1.0181  1.6482
  154SAPE   C3617143   4.985   2.368   7.162 -0.2024 -0.3267  0.1657
  154SAPE   H6X17144   5.049   2.459   7.152  0.3826 -0.8630 -1.1638
  154SAPE   H6Y17145   5.061   2.291   7.185  1.7753  1.8955  1.5859
  154SAPE   C3717146   4.889   2.378   7.285 -0.3632 -0.5118 -0.0724
  154SAPE   H7X17147   4.819   2.293   7.297  0.3466 -1.4863 -2.3963
  154SAPE   H7Y17148   4.823   2.464   7.263 -0.1373 -0.1600  0.5975
  154SAPE   C3817149   4.974   2.389   7.412  0.2739 -0.5024  0.2382
  154SAPE   H8X17150   5.042   2.476   7.411  1.4013 -1.3309  1.0476
  154SAPE   H8Y17151   5.045   2.303   7.418  1.2085  0.3301  1.5955
  154SAPE   C3917152   4.887   2.404   7.533  0.2078  0.7795  0.2147
  154SAPE   H9X17153   4.833   2.309   7.548 -0.1843  1.2299  2.0127
  154SAPE   H9Y17154   4.814   2.484   7.507  0.9137  0.8733 -1.6167
  154SAPE  C31017155   4.970   2.447   7.655 -0.0279  0.0213 -0.0881
  154SAPE  H10X17156   4.902   2.447   7.743  0.2550  0.8662  0.1377
  154SAPE  H10Y17157   5.009   2.550   7.639 -1.7153  0.5857 -0.7423
  154SAPE  C31117158   5.081   2.346   7.690  0.1694  0.0915 -0.2139
  154SAPE  H11X17159   5.156   2.335   7.609  1.6379  0.4350  1.0555
  154SAPE  H11Y17160   5.035   2.246   7.703  0.4879 -0.0910 -0.4963
  154SAPE  C31217161   5.175   2.399   7.801 -0.1601 -0.0936  0.8642
  154SAPE  H12X17162   5.111   2.408   7.892  0.1245 -0.1311  1.0728
  154SAPE  H12Y17163   5.204   2.502   7.773  0.7086 -1.0178 -1.9007
  154SAPE  C31317164   5.284   2.295   7.833 -0.3607 -0.7919 -0.2161
  154SAPE  H13X17165   5.347   2.289   7.742 -1.7430  1.9456 -1.4734
  154SAPE  H13Y17166   5.226   2.200   7.841 -1.2266 -0.2447  0.0979
  154SAPE  C31417167   5.360   2.331   7.963  0.2543  0.4284 -0.9433
  154SAPE  H14X17168   5.280   2.347   8.038 -0.1555 -1.7438 -0.8698
  154SAPE  H14Y17169   5.411   2.430   7.958 -2.5919  2.0965  0.4171
  154SAPE  C31517170   5.471   2.234   8.000 -0.2659 -1.0190  0.1363
  154SAPE  H15X17171   5.540   2.278   8.076  0.7894 -1.9859 -0.2334
  154SAPE  H15Y17172   5.531   2.222   7.906 -0.1979  0.1294  0.0143
  154SAPE  C31617173   5.425   2.093   8.044 -0.1923  0.1055 -0.5506
  154SAPE  H16X17174   5.499   2.018   8.011  1.3543  2.8516 -3.9805
  154SAPE  H16Y17175   5.330   2.080   7.988  0.2038 -0.5905 -1.0638
  154SAPE  C31717176   5.399   2.080   8.194  0.5855  0.3024  0.0716
  154SAPE  H17X17177   5.503   2.085   8.234  0.9213 -1.6099 -0.4776
  154SAPE  H17Y17178   5.363   1.977   8.217  3.5539 -0.2455  3.2021
  154SAPE  C31817179   5.304   2.178   8.250 -0.5123 -0.2684  0.0896
  154SAPE  H18X17180   5.340   2.279   8.225 -1.5835 -0.0710 -0.7836
  154SAPE  H18Y17181   5.290   2.172   8.360  0.4848  0.0653  0.2413
  154SAPE  H18Z17182   5.205   2.170   8.198 -0.0280  0.3343 -0.9671
  155SAPE     N17183   5.211   2.735   6.316  0.2158 -0.0574 -0.1999
  155SAPE   HN117184   5.241   2.753   6.219  0.9622 -0.7717 -0.1114
  155SAPE   HN217185   5.264   2.655   6.356 -2.3967 -0.4181  3.0065
  155SAPE   HN317186   5.111   2.706   6.324  0.3789 -0.1051  2.9642
  155SAPE   C1217187   5.236   2.858   6.400  0.1912 -0.7760  0.3985
  155SAPE  H12A17188   5.328   2.908   6.363 -1.9011  0.9074 -3.0995
  155SAPE  H12B17189   5.259   2.824   6.504  0.7310 -1.4191  0.0755
  155SAPE   C1117190   5.129   2.968   6.387  0.1078 -0.4827  0.1002
  155SAPE  H11A17191   5.148   3.046   6.465  0.3308 -1.4888  1.0797
  155SAPE  H11B17192   5.035   2.919   6.422  0.3336  0.5326  2.3698
  155SAPE     P17193   5.188   3.152   6.210  0.1803  0.0790  0.5059
  155SAPE   O1317194   5.331   3.127   6.237  0.6830 -0.4604  0.4063
  155SAPE   O1417195   5.159   3.162   6.062  0.6249 -0.3392 -0.0977
  155SAPE   O1217196   5.109   3.026   6.262  0.2094  0.1790  0.3616
  155SAPE   O1117197   5.132   3.270   6.295 -0.1658  0.9003 -0.6428
  155SAPE    C117198   4.995   3.315   6.284 -0.1556 -0.1741  0.4301
  155SAPE    HA17199   4.982   3.384   6.198  1.0318  1.3776  1.4520
  155SAPE    HB17200   4.926   3.231   6.261  0.0463 -0.3730  0.5449
  155SAPE    C217201   4.958   3.379   6.416 -0.5789 -0.4271 -0.0690
  155SAPE    HS17202   4.872   3.445   6.394 -0.1732  0.6320  1.3651
  155SAPE   O2117203   5.066   3.447   6.478  0.1943 -1.0414 -0.7882
  155SAPE   C2117204   5.116   3.544   6.408 -0.0930  0.0193  0.6905
  155SAPE   O2217205   5.071   3.582   6.302  0.2161 -0.6798 -0.6112
  155SAPE   C2217206   5.246   3.581   6.468 -0.1509  0.4060 -0.1638
  155SAPE   H2R17207   5.321   3.500   6.463 -3.1625 -2.8181  2.2192
  155SAPE   H2S17208   5.280   3.669   6.409 -0.9338  0.3809 -0.6709
  155SAPE    C317209   4.894   3.281   6.518  1.0025  0.0970  0.1211
  155SAPE    HX17210   4.938   3.180   6.500  0.6463 -0.3811  1.7517
  155SAPE    HY17211   4.786   3.269   6.496  0.6335  1.3321  1.1220
  155SAPE   O3117212   4.921   3.327   6.648 -0.4616  0.4195 -0.5349
  155SAPE   C3117213   5.013   3.270   6.719 -0.0987  0.6356  0.6705
  155SAPE   O3217214   5.083   3.176   6.687  0.0372  0.1409 -0.3893
  155SAPE   C3217215   5.022   3.352   6.847 -0.2070 -0.1251  0.6162
  155SAPE   H2X17216   4.947   3.310   6.917 -2.0010 -1.1746 -1.7990
  155SAPE   H2Y17217   5.011   3.461   6.827 -2.3543 -0.2539  0.9229
  155SAPE   C2317218   5.233   3.630   6.612  0.9655  0.0063 -0.3142
  155SAPE   H3R17219   5.183   3.549   6.670  0.6796 -0.3106 -0.9983
  155SAPE   H3S17220   5.182   3.728   6.620  0.6465 -0.2547  1.0590
  155SAPE   C2417221   5.379   3.652   6.667  0.0190 -0.6171  0.0761
  155SAPE   H4R17222   5.424   3.739   6.614  2.0082 -1.6893 -0.0758
  155SAPE   H4S17223   5.432   3.558   6.645  0.5000 -0.2579 -0.3233
  155SAPE   C2517224   5.383   3.657   6.817  0.6504 -0.0265  0.1215
  155SAPE   H5R17225   5.361   3.562   6.868 -1.2040  0.9255  1.1758
  155SAPE   C2617226   5.424   3.758   6.898  0.2430 -0.1869  0.3334
  155SAPE   H6R17227   5.406   3.751   7.006  0.5827 -1.1210  0.3420
  155SAPE   C2717228   5.471   3.896   6.851 -0.0039  0.1342  0.4594
  155SAPE   H7R17229   5.440   3.980   6.916  3.0627  0.7171  1.3258
  155SAPE   H7S17230   5.430   3.921   6.750 -0.8924 -1.7513  0.3066
  155SAPE   C2817231   5.621   3.916   6.863  0.3171  0.4239  0.0505
  155SAPE   H8R17232   5.678   3.906   6.769 -0.4503  1.0844 -0.4900
  155SAPE   C2917233   5.700   3.947   6.966 -0.4844 -0.1651 -0.1322
  155SAPE   H9R17234   5.807   3.967   6.945 -0.5176 -1.3136 -1.6213
  155SAPE  C21017235   5.648   3.986   7.103  0.2884 -0.1222  0.2738
  155SAPE  H10R17236   5.634   3.891   7.159  1.5393 -0.1154  0.6248
  155SAPE  H10S17237   5.549   4.035   7.093  0.5645  0.3729 -0.0598
  155SAPE  C21117238   5.745   4.082   7.176 -0.2683  0.5098  0.1478
  155SAPE  H11R17239   5.843   4.081   7.126 -1.4829 -0.0349 -2.4064
  155SAPE  C21217240   5.710   4.162   7.278 -0.0894  1.0396 -0.3506
  155SAPE  H12R17241   5.795   4.226   7.307 -0.4011  2.0121 -1.4888
  155SAPE  C21317242   5.582   4.194   7.348 -0.3319  0.5214  0.5860
  155SAPE  H13R17243   5.517   4.104   7.357  1.0144 -0.3420  2.4001
  155SAPE  H13S17244   5.533   4.266   7.280 -0.9663 -0.5294 -0.1100
  155SAPE  C21417245   5.587   4.247   7.489  0.7492 -0.3597 -0.1072
  155SAPE  H14R17246   5.587   4.356   7.500 -0.2731 -0.2851 -0.7217
  155SAPE  C21517247   5.609   4.184   7.606 -0.0811 -0.4502 -0.5479
  155SAPE  H15R17248   5.608   4.253   7.691 -0.1932 -1.3076  0.1580
  155SAPE  C21617249   5.618   4.036   7.626 -0.1343 -0.1570  0.0563
  155SAPE  H16R17250   5.637   3.989   7.527 -1.1222 -1.2296  0.3608
  155SAPE  H16S17251   5.520   4.001   7.664 -0.5564  1.2141  0.2602
  155SAPE  C21717252   5.724   4.006   7.734 -0.0478  0.1996  0.3554
  155SAPE  H17R17253   5.710   4.057   7.832 -1.2560  1.5516 -0.4726
  155SAPE  H17S17254   5.820   4.046   7.695 -0.4828  0.4328 -0.5099
  155SAPE  C21817255   5.736   3.849   7.758 -0.1226  0.2252  0.2728
  155SAPE  H18R17256   5.763   3.810   7.657 -0.5329  0.3566  0.1081
  155SAPE  H18S17257   5.636   3.809   7.784 -0.5124  0.6308 -0.5369
  155SAPE  C21917258   5.846   3.825   7.864  1.0100  0.7908  0.2296
  155SAPE  H19R17259   5.827   3.879   7.960  0.4970 -1.2858  1.3652
  155SAPE  H19S17260   5.945   3.861   7.827  1.1694  0.3138  0.1810
  155SAPE  C22017261   5.846   3.680   7.904  0.3301  0.1115 -0.3911
  155SAPE  H20R17262   5.932   3.672   7.973  0.3426  0.3435 -0.3793
  155SAPE  H20S17263   5.861   3.606   7.822 -2.0712  0.8104 -1.5463
  155SAPE  H20T17264   5.750   3.643   7.947  0.9700 -0.7475  0.3394
  155SAPE   C3317265   5.160   3.338   6.913 -0.2425 -0.0677  0.5887
  155SAPE   H3X17266   5.248   3.366   6.851  1.1203 -2.0572  1.5080
  155SAPE   H3Y17267   5.162   3.231   6.941 -0.1003 -0.7989 -1.9478
  155SAPE   C3417268   5.182   3.427   7.047  0.3842  0.2733  0.3516
  155SAPE   H4X17269   5.177   3.532   7.011  0.6214  0.1208 -0.1506
  155SAPE   H4Y17270   5.289   3.412   7.074  0.3423  0.9969  0.9434
  155SAPE   C3517271   5.085   3.381   7.158 -0.3459 -0.9051 -0.1040
  155SAPE   H5X17272   5.113   3.280   7.195  1.0762 -0.1603  0.9830
  155SAPE   H5Y17273   4.983   3.371   7.116 -1.1921  0.0729  1.6446
  155SAPE   C3617274   5.080   3.484   7.274  0.5261  0.9547  0.0751
  155SAPE   H6X17275   5.059   3.585   7.232  1.4917  0.6576 -1.1656
  155SAPE   H6Y17276   5.185   3.480   7.310  0.2337 -3.1214  0.9445
  155SAPE   C3717277   4.990   3.448   7.395 -0.5285  0.3336  0.3095
  155SAPE   H7X17278   5.004   3.344   7.433  0.5853  0.3180 -0.1206
  155SAPE   H7Y17279   4.889   3.464   7.352 -1.1472 -0.9240  1.2098
  155SAPE   C3817280   5.017   3.536   7.513 -0.0646 -0.2254  0.3213
  155SAPE   H8X17281   5.011   3.645   7.491  1.0122  0.1038  1.5645
  155SAPE   H8Y17282   5.123   3.523   7.542  0.3449  1.7279 -0.1632
  155SAPE   C3917283   4.937   3.499   7.637  1.0638  0.0119  0.4016
  155SAPE   H9X17284   4.941   3.389   7.654  2.4302 -0.2167 -1.1878
  155SAPE   H9Y17285   4.832   3.531   7.620  0.6846  0.2863  2.9046
  155SAPE  C31017286   4.983   3.569   7.767  0.6144  0.4996 -0.1768
  155SAPE  H10X17287   4.968   3.678   7.750 -0.6841  0.1697 -1.4516
  155SAPE  H10Y17288   5.091   3.560   7.788  0.4620  1.0272  0.8944
  155SAPE  C31117289   4.905   3.528   7.897 -0.4618 -0.4615  0.1654
  155SAPE  H11X17290   4.893   3.418   7.900  2.9975 -1.0525 -1.7072
  155SAPE  H11Y17291   4.807   3.579   7.905  0.1126  0.3653  3.1384
  155SAPE  C31217292   4.991   3.572   8.018  0.6029 -0.1416  0.3380
  155SAPE  H12X17293   5.006   3.682   8.018  2.6539 -0.3743  1.0916
  155SAPE  H12Y17294   5.085   3.515   8.004  0.1982 -0.9938  1.0174
  155SAPE  C31317295   4.934   3.537   8.152  0.4665  0.1398 -0.9041
  155SAPE  H13X17296   5.014   3.545   8.229  1.4955  0.5606 -1.9996
  155SAPE  H13Y17297   4.901   3.432   8.141 -3.0716  1.2411 -2.1906
  155SAPE  C31417298   4.818   3.632   8.198  0.7584 -0.2610 -0.4376
  155SAPE  H14X17299   4.747   3.668   8.120  1.7612  1.2085 -0.7057
  155SAPE  H14Y17300   4.858   3.726   8.241  2.4666 -1.2007  0.0894
  155SAPE  C31517301   4.741   3.576   8.314  0.1909  0.0943  0.2978
  155SAPE  H15X17302   4.816   3.568   8.396  0.3892  2.2655  0.3854
  155SAPE  H15Y17303   4.703   3.476   8.284  0.2164  0.4274 -0.9142
  155SAPE  C31617304   4.625   3.660   8.351  0.1995  0.1134 -0.3084
  155SAPE  H16X17305   4.542   3.648   8.279  0.6651  0.3657 -0.9012
  155SAPE  H16Y17306   4.663   3.764   8.353  2.0195 -0.5092  1.5333
  155SAPE  C31717307   4.552   3.637   8.489 -0.6405  0.1008  0.0073
  155SAPE  H17X17308   4.635   3.635   8.563  0.0467 -0.5205 -0.7462
  155SAPE  H17Y17309   4.504   3.537   8.489 -2.9233  1.1376  0.6275
  155SAPE  C31817310   4.441   3.732   8.508  0.3388  0.5030 -0.1719
  155SAPE  H18X17311   4.359   3.719   8.434 -0.2139 -1.0337  0.6674
  155SAPE  H18Y17312   4.476   3.838   8.501 -0.5231  0.7204 -1.4570
  155SAPE  H18Z17313   4.406   3.731   8.613  1.2766 -0.4384  0.1533
  156SAPE     N17314   3.613   3.081   5.953 -0.0805 -0.3766  0.1265
  156SAPE   HN117315   3.674   2.998   5.968  0.1965 -0.1574  0.2074
  156SAPE   HN217316   3.546   3.060   5.876 -1.5907  1.6113  0.8258
  156SAPE   HN317317   3.669   3.161   5.918 -1.7439  0.4410 -0.8043
  156SAPE   C1217318   3.544   3.094   6.084 -0.5002  0.2827 -0.3693
  156SAPE  H12A17319   3.449   3.036   6.077 -1.0497  0.8426  1.7208
  156SAPE  H12B17320   3.519   3.198   6.114  0.9904  0.8567 -1.0434
  156SAPE   C1117321   3.631   3.032   6.199 -0.1479 -0.0431  0.1453
  156SAPE  H11A17322   3.643   2.923   6.183 -0.0264 -0.0462  0.2523
  156SAPE  H11B17323   3.579   3.035   6.297  0.4115  1.7049  0.4388
  156SAPE     P17324   3.779   3.221   6.288 -0.0284  0.2798 -0.1314
  156SAPE   O1317325   3.916   3.242   6.337  0.2003 -0.3855  0.2487
  156SAPE   O1417326   3.734   3.328   6.197 -0.3455 -0.5318  1.0164
  156SAPE   O1217327   3.761   3.089   6.207 -0.5642 -0.7251 -0.5650
  156SAPE   O1117328   3.673   3.222   6.396  0.3062  0.7104 -0.4709
  156SAPE    C117329   3.683   3.149   6.519 -0.7694 -0.1234  0.2772
  156SAPE    HA17330   3.584   3.135   6.567 -0.8301 -1.6556 -0.2596
  156SAPE    HB17331   3.717   3.046   6.500  0.0550  0.4788 -1.7921
  156SAPE    C217332   3.773   3.224   6.634 -0.4265  0.2451 -0.1810
  156SAPE    HS17333   3.880   3.214   6.604  0.1262  1.0279  1.4323
  156SAPE   O2117334   3.756   3.162   6.759 -0.1402  0.5954  0.1146
  156SAPE   C2117335   3.813   3.045   6.771  0.2251 -0.0174  0.0213
  156SAPE   O2217336   3.879   2.978   6.692 -0.3206 -0.5721  0.0852
  156SAPE   C2217337   3.796   3.022   6.920  0.3362 -0.3737 -0.8140
  156SAPE   H2R17338   3.864   3.095   6.969  1.8449 -0.4352 -2.7194
  156SAPE   H2S17339   3.690   3.045   6.944 -0.2306 -1.2494 -2.3113
  156SAPE    C317340   3.729   3.369   6.634  0.2230 -0.4925  0.3999
  156SAPE    HX17341   3.620   3.385   6.648 -0.4304 -2.4190 -1.8897
  156SAPE    HY17342   3.741   3.403   6.529  0.5820 -0.4852  0.4425
  156SAPE   O3117343   3.814   3.457   6.713  0.2501  0.4733 -0.4834
  156SAPE   C3117344   3.773   3.584   6.715  0.0002 -0.3810 -0.9792
  156SAPE   O3217345   3.679   3.625   6.651  0.5525 -0.3019  0.0041
  156SAPE   C3217346   3.847   3.652   6.830  0.7026 -0.0415 -0.1260
  156SAPE   H2X17347   3.834   3.761   6.814 -1.6002 -0.4288 -1.3391
  156SAPE   H2Y17348   3.956   3.634   6.821  0.7050 -1.6261  2.0923
  156SAPE   C2317349   3.811   2.874   6.947 -0.7018  0.3347  0.1853
  156SAPE   H3R17350   3.914   2.841   6.925 -0.9378 -2.8998  3.0872
  156SAPE   H3S17351   3.740   2.815   6.884 -0.0583 -0.5561  0.2682
  156SAPE   C2417352   3.774   2.837   7.098 -0.5655  0.4391 -0.4983
  156SAPE   H4R17353   3.670   2.868   7.124 -1.1153 -1.0591 -0.8097
  156SAPE   H4S17354   3.850   2.897   7.152 -0.7734 -0.0487  0.3501
  156SAPE   C2517355   3.775   2.684   7.107  0.1044  1.0948 -0.5256
  156SAPE   H5R17356   3.747   2.635   7.013  2.0686 -0.5433 -0.3203
  156SAPE   C2617357   3.809   2.601   7.208  0.8356  0.0581  0.1942
  156SAPE   H6R17358   3.793   2.493   7.191 -0.5452  0.5847 -2.4028
  156SAPE   C2717359   3.857   2.645   7.338 -1.1881  0.4246 -0.3362
  156SAPE   H7R17360   3.907   2.743   7.320 -1.4971  0.9371  1.3754
  156SAPE   H7S17361   3.936   2.569   7.354 -2.3123 -0.8269 -0.5053
  156SAPE   C2817362   3.753   2.655   7.442 -0.4481 -0.0481 -0.1604
  156SAPE   H8R17363   3.660   2.704   7.412 -0.9377 -1.1055 -0.3806
  156SAPE   C2917364   3.765   2.604   7.570 -0.0276 -0.4806 -0.3826
  156SAPE   H9R17365   3.686   2.632   7.642  0.4129  2.6145 -0.9475
  156SAPE  C21017366   3.884   2.525   7.624 -0.0470 -0.4354 -0.3617
  156SAPE  H10R17367   3.971   2.522   7.555  3.1651  0.5459  3.3535
  156SAPE  H10S17368   3.865   2.418   7.647  1.3510 -0.7621 -0.6233
  156SAPE  C21117369   3.942   2.605   7.747 -0.3678  0.0264 -0.0782
  156SAPE  H11R17370   3.997   2.695   7.715 -1.2405 -0.5724 -3.6730
  156SAPE  C21217371   3.948   2.565   7.875 -0.3755  0.2739  0.1966
  156SAPE  H12R17372   3.995   2.634   7.948  1.4886 -1.0844  0.3574
  156SAPE  C21317373   3.890   2.431   7.925  0.0540 -0.5851  0.5647
  156SAPE  H13R17374   3.795   2.405   7.873  0.3275  1.1470 -0.9128
  156SAPE  H13S17375   3.859   2.445   8.031  0.0404  0.2978  0.4578
  156SAPE  C21417376   3.992   2.315   7.905  0.6533 -0.3305  0.2279
  156SAPE  H14R17377   4.004   2.275   7.803 -0.7460 -0.2372 -0.0039
  156SAPE  C21517378   4.067   2.268   8.001  0.8964  0.3468 -0.5114
  156SAPE  H15R17379   4.135   2.186   7.973 -0.3127 -1.3758  1.3589
  156SAPE  C21617380   4.089   2.321   8.140  0.3254  0.6103 -0.0444
  156SAPE  H16R17381   4.022   2.274   8.215 -0.6304 -0.6865 -1.6509
  156SAPE  H16S17382   4.068   2.430   8.147  0.0253  0.5002  0.8930
  156SAPE  C21717383   4.230   2.283   8.176  0.3762 -0.1545  0.5684
  156SAPE  H17R17384   4.306   2.325   8.107  0.7536 -1.0172  0.4494
  156SAPE  H17S17385   4.244   2.173   8.172  1.5181 -0.0661  1.4899
  156SAPE  C21817386   4.272   2.328   8.311 -0.4486  0.1549  0.2099
  156SAPE  H18R17387   4.228   2.278   8.400 -0.1684 -0.5186 -0.0172
  156SAPE  H18S17388   4.248   2.434   8.329  0.9742  0.5766 -0.2546
  156SAPE  C21917389   4.429   2.329   8.321  0.5116  1.0702  0.2113
  156SAPE  H19R17390   4.475   2.409   8.259  0.8366  0.6971 -0.0419
  156SAPE  H19S17391   4.456   2.226   8.290  2.3733  1.1176  1.5104
  156SAPE  C22017392   4.470   2.354   8.471  0.0009  0.3581  0.1609
  156SAPE  H20R17393   4.430   2.268   8.530  0.4904 -0.7876 -1.1269
  156SAPE  H20S17394   4.415   2.443   8.510 -2.4449 -0.2450 -1.7202
  156SAPE  H20T17395   4.581   2.350   8.477  0.1167  0.3408 -1.6949
  156SAPE   C3317396   3.795   3.596   6.962  1.1455 -0.1499 -0.0624
  156SAPE   H3X17397   3.868   3.631   7.038 -0.0900 -0.3678  1.2725
  156SAPE   H3Y17398   3.805   3.486   6.970 -0.4763 -0.4884 -1.9209
  156SAPE   C3417399   3.661   3.663   6.985  0.4709  0.1850  0.0577
  156SAPE   H4X17400   3.583   3.618   6.920  0.7375  2.0138 -1.6110
  156SAPE   H4Y17401   3.671   3.768   6.951 -0.6455 -0.6670 -3.3353
  156SAPE   C3517402   3.607   3.661   7.129  0.1151  0.2701 -0.4556
  156SAPE   H5X17403   3.573   3.557   7.149  0.7313  0.1412 -0.0721
  156SAPE   H5Y17404   3.514   3.722   7.124  0.0636  0.1146 -1.6912
  156SAPE   C3617405   3.697   3.710   7.239 -0.0340  0.5025  0.2657
  156SAPE   H6X17406   3.729   3.816   7.224 -0.5511  0.2986 -3.2539
  156SAPE   H6Y17407   3.791   3.653   7.251  0.4441  1.4012  0.9626
  156SAPE   C3717408   3.621   3.689   7.377  0.0404  0.2374 -0.3814
  156SAPE   H7X17409   3.600   3.582   7.396  1.1766 -0.0755 -0.7865
  156SAPE   H7Y17410   3.519   3.731   7.372 -0.1647 -0.0664  0.9309
  156SAPE   C3817411   3.703   3.736   7.497 -0.2254  0.4411 -0.3672
  156SAPE   H8X17412   3.797   3.679   7.506 -1.2800 -1.1340  1.2886
  156SAPE   H8Y17413   3.633   3.713   7.580 -0.4886  1.0030 -0.4249
  156SAPE   C3917414   3.722   3.892   7.500  0.1654  0.5207  0.7693
  156SAPE   H9X17415   3.627   3.933   7.460 -0.2652 -1.3605 -0.2697
  156SAPE   H9Y17416   3.799   3.924   7.427  0.2958  0.5526  0.9227
  156SAPE  C31017417   3.756   3.940   7.637  0.1525 -0.5858  0.3684
  156SAPE  H10X17418   3.866   3.940   7.651 -0.1104  0.3720  3.0769
  156SAPE  H10Y17419   3.703   3.882   7.716 -2.0626  1.5962  0.6242
  156SAPE  C31117420   3.701   4.085   7.661 -0.8517 -0.2305  0.0537
  156SAPE  H11X17421   3.592   4.086   7.640 -0.8634 -1.7613 -0.0496
  156SAPE  H11Y17422   3.744   4.155   7.586 -1.9246  0.3276 -0.0551
  156SAPE  C31217423   3.713   4.122   7.813 -0.0549 -0.1705 -0.0438
  156SAPE  H12X17424   3.821   4.139   7.832 -0.2598  0.3888  0.6634
  156SAPE  H12Y17425   3.668   4.034   7.863  1.1014 -0.4900  0.4530
  156SAPE  C31317426   3.633   4.240   7.848  0.2276  0.9239 -0.2370
  156SAPE  H13X17427   3.528   4.208   7.868  0.5807  0.6960  1.3911
  156SAPE  H13Y17428   3.642   4.328   7.781 -0.1886 -0.7018 -2.5240
  156SAPE  C31417429   3.678   4.283   7.991  0.7475 -0.8839 -0.7835
  156SAPE  H14X17430   3.612   4.372   8.004  1.2931 -0.3747 -1.4156
  156SAPE  H14Y17431   3.783   4.321   7.991  1.0027 -1.1654  3.3597
  156SAPE  C31517432   3.672   4.175   8.101  0.0452  0.1044 -1.0266
  156SAPE  H15X17433   3.746   4.095   8.082  1.1130  0.1057  2.4362
  156SAPE  H15Y17434   3.566   4.144   8.109  0.0636  0.3855  0.6910
  156SAPE  C31617435   3.711   4.235   8.240  0.6206  0.4106  0.2154
  156SAPE  H16X17436   3.653   4.328   8.254  0.7634  0.9273 -2.1737
  156SAPE  H16Y17437   3.817   4.268   8.240  0.5298  0.7044 -0.0161
  156SAPE  C31717438   3.698   4.134   8.358 -0.0433 -0.3572  0.0602
  156SAPE  H17X17439   3.768   4.051   8.334 -1.1265 -1.4760  0.6656
  156SAPE  H17Y17440   3.595   4.093   8.355 -0.8150  1.2263  2.2840
  156SAPE  C31817441   3.728   4.193   8.485  0.3142 -0.0552 -0.6637
  156SAPE  H18X17442   3.692   4.298   8.492  2.4029  0.6783 -0.1732
  156SAPE  H18Y17443   3.833   4.220   8.508  0.7059 -1.0174 -1.2808
  156SAPE  H18Z17444   3.699   4.119   8.562 -0.0806 -0.1408 -0.8945
  157SAPE     N17445   5.889   4.772   6.112  0.3477  0.7030 -0.1455
  157SAPE   HN117446   5.949   4.794   6.030  0.9462 -1.3494 -0.3263
  157SAPE   HN217447   5.933   4.693   6.164  0.1267  0.0484 -0.9295
  157SAPE   HN317448   5.797   4.739   6.077  1.0383  0.8509 -2.2438
  157SAPE   C1217449   5.879   4.894   6.205  0.3503  0.4733  0.0111
  157SAPE  H12A17450   5.832   4.867   6.303 -0.4804  2.0553  0.0740
  157SAPE  H12B17451   5.809   4.961   6.151 -0.3414 -0.6631 -0.5527
  157SAPE   C1117452   6.016   4.952   6.211 -0.1582 -0.2729 -0.2984
  157SAPE  H11A17453   6.006   5.039   6.279 -1.1908 -0.9415  0.4275
  157SAPE  H11B17454   6.040   4.983   6.107  2.5728 -0.6466  0.1296
  157SAPE     P17455   6.268   4.886   6.268  0.0887 -0.1824 -0.1062
  157SAPE   O1317456   6.352   4.767   6.289  0.4064 -0.2418  0.8148
  157SAPE   O1417457   6.310   4.964   6.152  0.0393 -0.8305 -0.1729
  157SAPE   O1217458   6.109   4.863   6.266 -0.7877 -0.2353 -0.3060
  157SAPE   O1117459   6.290   4.979   6.394  0.1927 -0.5797 -0.2991
  157SAPE    C117460   6.254   4.926   6.522 -0.2771 -0.0155  0.2367
  157SAPE    HA17461   6.146   4.947   6.537 -1.3462 -4.0972 -0.4206
  157SAPE    HB17462   6.262   4.815   6.531 -1.8863  0.0287  3.2679
  157SAPE    C217463   6.346   4.991   6.636  0.2948  0.5557  0.4996
  157SAPE    HS17464   6.314   4.954   6.736  2.1208  0.5600  1.1186
  157SAPE   O2117465   6.333   5.133   6.620  0.0536  0.5745 -0.1319
  157SAPE   C2117466   6.219   5.189   6.656 -0.3573  0.0528 -0.1196
  157SAPE   O2217467   6.137   5.136   6.727 -0.0239  0.5050 -0.6752
  157SAPE   C2217468   6.210   5.328   6.600  0.3798 -0.3250 -0.0518
  157SAPE   H2R17469   6.311   5.372   6.589  0.0938  0.1621 -0.7692
  157SAPE   H2S17470   6.165   5.310   6.500 -0.1182 -0.5428  0.2066
  157SAPE    C317471   6.493   4.942   6.621  0.0721  0.0669  0.1681
  157SAPE    HX17472   6.560   4.988   6.697  1.3176  1.4751 -1.6746
  157SAPE    HY17473   6.523   4.976   6.519 -2.5279  1.0860 -0.3325
  157SAPE   O3117474   6.504   4.803   6.638  0.1973  0.3157  0.4687
  157SAPE   C3117475   6.621   4.742   6.624 -0.2891 -0.7321 -0.8496
  157SAPE   O3217476   6.717   4.797   6.576 -0.0877 -0.4358 -0.3104
  157SAPE   C3217477   6.601   4.594   6.665  0.4163 -0.5071 -0.6503
  157SAPE   H2X17478   6.701   4.562   6.703  0.9381  1.2605 -0.4259
  157SAPE   H2Y17479   6.578   4.540   6.571 -0.5206 -0.0321 -0.7033
  157SAPE   C2317480   6.117   5.421   6.681 -0.2004 -0.1795 -0.5510
  157SAPE   H3R17481   6.030   5.366   6.723  1.0134 -2.2086 -0.6139
  157SAPE   H3S17482   6.068   5.494   6.613 -2.7394 -1.3964 -0.1485
  157SAPE   C2417483   6.181   5.505   6.790 -0.7410  0.1310 -0.9358
  157SAPE   H4R17484   6.247   5.580   6.742  1.2698 -0.6718  0.4464
  157SAPE   H4S17485   6.239   5.441   6.860 -1.7679  1.3792  1.1392
  157SAPE   C2517486   6.071   5.579   6.868  0.4914 -0.0852 -0.3767
  157SAPE   H5R17487   6.022   5.653   6.804 -0.2729  0.0766  0.3848
  157SAPE   C2617488   6.016   5.548   6.989  0.1181 -0.3700  0.1839
  157SAPE   H6R17489   5.924   5.603   7.013  0.5705  1.4521 -1.9075
  157SAPE   C2717490   6.069   5.449   7.091 -0.8681  0.6186  0.1550
  157SAPE   H7R17491   6.098   5.486   7.191  0.1490 -0.3421  0.2397
  157SAPE   H7S17492   6.169   5.416   7.056  0.5138  0.8435  3.5423
  157SAPE   C2817493   5.969   5.333   7.085 -0.0858  0.2199 -0.2626
  157SAPE   H8R17494   5.952   5.280   6.990 -0.8170  0.7074 -0.4139
  157SAPE   C2917495   5.896   5.286   7.191 -0.6807 -1.2551  0.2420
  157SAPE   H9R17496   5.826   5.205   7.164 -0.6793 -1.4130  0.7054
  157SAPE  C21017497   5.881   5.349   7.331 -0.6139  0.3942  0.0204
  157SAPE  H10R17498   5.915   5.453   7.346 -0.1579  0.0589  1.4818
  157SAPE  H10S17499   5.955   5.300   7.398 -0.0391  0.7622 -0.3368
  157SAPE  C21117500   5.743   5.335   7.380  0.3241  0.0703 -0.3438
  157SAPE  H11R17501   5.673   5.276   7.319 -1.0251  2.2545 -1.0308
  157SAPE  C21217502   5.691   5.384   7.494  0.8729  0.5264  0.9783
  157SAPE  H12R17503   5.584   5.365   7.508  1.1148 -0.9274  0.9603
  157SAPE  C21317504   5.752   5.467   7.599  0.7732  0.5917  0.4672
  157SAPE  H13R17505   5.858   5.477   7.569  0.7015 -0.2194 -0.0739
  157SAPE  H13S17506   5.757   5.405   7.691 -0.6004 -0.4605 -0.1243
  157SAPE  C21417507   5.685   5.602   7.617  0.2039  0.3914 -0.2921
  157SAPE  H14R17508   5.595   5.615   7.556  0.9057  1.0296 -1.2125
  157SAPE  C21517509   5.735   5.692   7.696 -0.8044 -0.0889 -0.2905
  157SAPE  H15R17510   5.681   5.787   7.706  0.1430  0.4653 -0.2280
  157SAPE  C21617511   5.852   5.681   7.788  0.0482  0.2476 -0.2180
  157SAPE  H16R17512   5.934   5.741   7.743 -0.0688 -0.3561 -1.2900
  157SAPE  H16S17513   5.887   5.577   7.803  1.8999  1.0255  1.2715
  157SAPE  C21717514   5.828   5.753   7.924  0.2514  0.7332  0.1927
  157SAPE  H17R17515   5.775   5.673   7.981  1.9105 -0.9295 -0.4755
  157SAPE  H17S17516   5.767   5.845   7.919 -0.6799  0.0700 -1.1605
  157SAPE  C21817517   5.958   5.774   8.009  0.6131  0.0189  0.1626
  157SAPE  H18R17518   6.029   5.840   7.954 -1.8892  1.8017 -1.1631
  157SAPE  H18S17519   6.001   5.672   8.025  0.9101  0.1518  0.2187
  157SAPE  C21917520   5.945   5.835   8.147  0.1437  0.2955  0.3783
  157SAPE  H19R17521   5.864   5.911   8.150  0.5195  0.9506 -2.4341
  157SAPE  H19S17522   6.030   5.906   8.159 -1.1181  1.8731  0.3184
  157SAPE  C22017523   5.937   5.743   8.262  0.2624 -0.5489 -0.4542
  157SAPE  H20R17524   6.032   5.685   8.263  0.3942 -0.4681 -2.5884
  157SAPE  H20S17525   5.855   5.668   8.265 -0.3913  0.1870  1.1486
  157SAPE  H20T17526   5.927   5.787   8.363  0.6010  0.1597 -0.7204
  157SAPE   C3317527   6.495   4.581   6.780  0.2817  0.3998 -0.3613
  157SAPE   H3X17528   6.468   4.476   6.802 -2.3616  1.1491  0.3485
  157SAPE   H3Y17529   6.403   4.636   6.749  0.6802  0.8862 -0.6875
  157SAPE   C3417530   6.544   4.649   6.910  0.5694 -0.3116  0.6293
  157SAPE   H4X17531   6.583   4.750   6.887 -0.1333 -0.1597  0.0567
  157SAPE   H4Y17532   6.623   4.583   6.951 -0.1974 -0.6563  1.5980
  157SAPE   C3517533   6.428   4.649   7.009 -0.2667  0.2248  0.5948
  157SAPE   H5X17534   6.410   4.543   7.035 -1.5855 -0.2602 -2.0208
  157SAPE   H5Y17535   6.335   4.696   6.969 -0.6227 -1.3401 -0.4897
  157SAPE   C3617536   6.470   4.725   7.135 -0.6929  0.3634  0.5020
  157SAPE   H6X17537   6.475   4.828   7.094  0.2828 -0.3598 -1.3034
  157SAPE   H6Y17538   6.576   4.701   7.159 -0.7813 -1.4791 -0.7324
  157SAPE   C3717539   6.376   4.729   7.256  0.1970  0.8807  0.3335
  157SAPE   H7X17540   6.341   4.624   7.256  1.5333  0.1531 -4.7663
  157SAPE   H7Y17541   6.296   4.804   7.240 -1.0127 -0.6810 -1.2334
  157SAPE   C3817542   6.447   4.775   7.385  0.4711  0.7442  0.1052
  157SAPE   H8X17543   6.503   4.870   7.372 -0.6194  1.2948 -0.6992
  157SAPE   H8Y17544   6.515   4.692   7.413  1.0334  0.6265 -1.4712
  157SAPE   C3917545   6.340   4.812   7.499  0.1357  0.2659 -0.0890
  157SAPE   H9X17546   6.267   4.728   7.510 -0.7773  1.3472  3.5844
  157SAPE   H9Y17547   6.278   4.902   7.478 -0.8182  0.0567  1.6326
  157SAPE  C31017548   6.408   4.834   7.635 -0.7851 -0.1752  0.1939
  157SAPE  H10X17549   6.484   4.914   7.620 -0.6517 -0.7341 -2.9839
  157SAPE  H10Y17550   6.467   4.742   7.655 -0.7214 -0.0484  0.5850
  157SAPE  C31117551   6.321   4.860   7.755 -0.6180  0.4353  0.4174
  157SAPE  H11X17552   6.299   4.754   7.784  4.6637 -1.0781 -0.1703
  157SAPE  H11Y17553   6.230   4.918   7.728 -0.7918 -0.0807 -0.1239
  157SAPE  C31217554   6.389   4.931   7.874  0.4356 -0.4704 -0.1396
  157SAPE  H12X17555   6.319   4.918   7.959 -2.0675  0.0832 -2.0067
  157SAPE  H12Y17556   6.396   5.037   7.843 -1.0950 -0.3493 -0.1389
  157SAPE  C31317557   6.516   4.875   7.929 -0.3972 -0.4469 -0.3267
  157SAPE  H13X17558   6.588   4.906   7.850 -0.9536  0.0011 -0.6662
  157SAPE  H13Y17559   6.512   4.764   7.940 -1.1733 -0.3635  0.3140
  157SAPE  C31417560   6.549   4.926   8.074  0.4095  0.0946  0.0584
  157SAPE  H14X17561   6.631   4.869   8.123 -1.6402 -0.1245  3.6212
  157SAPE  H14Y17562   6.468   4.912   8.150  2.1615  0.4400  2.0914
  157SAPE  C31517563   6.594   5.071   8.070  0.2136 -0.2303 -0.2982
  157SAPE  H15X17564   6.506   5.129   8.037  0.6639  1.7267  1.6403
  157SAPE  H15Y17565   6.667   5.083   7.987 -0.8116  1.4346 -1.0039
  157SAPE  C31617566   6.626   5.128   8.212 -0.0051  0.9763  1.2044
  157SAPE  H16X17567   6.534   5.111   8.273 -2.2835  2.5452 -1.5298
  157SAPE  H16Y17568   6.647   5.237   8.213  0.4785  0.9072 -0.1220
  157SAPE  C31717569   6.744   5.071   8.295  0.5736  0.4402  0.0140
  157SAPE  H17X17570   6.829   5.065   8.223 -0.0379 -0.6782 -0.6590
  157SAPE  H17Y17571   6.717   4.970   8.331 -0.2926  1.3815  2.1248
  157SAPE  C31817572   6.789   5.147   8.419  0.0510  0.6603  0.0214
  157SAPE  H18X17573   6.810   5.255   8.406  2.8561  0.4357  1.8466
  157SAPE  H18Y17574   6.887   5.106   8.451  1.1793  4.2752  1.7605
  157SAPE  H18Z17575   6.714   5.137   8.501  1.1762 -1.9267  0.8205
  158SAPE     N17576   1.033   1.021   6.106 -0.7276 -0.2632 -0.3425
  158SAPE   HN117577   0.934   1.054   6.102 -0.0618  1.8532 -0.7434
  158SAPE   HN217578   1.084   1.104   6.069 -0.5748 -0.2675 -0.1422
  158SAPE   HN317579   1.038   0.951   6.030  0.3516 -0.4247 -0.1303
  158SAPE   C1217580   1.093   0.971   6.236 -0.3384  0.5231 -0.2111
  158SAPE  H12A17581   1.076   1.051   6.312 -2.5141 -1.4751  1.5556
  158SAPE  H12B17582   1.198   0.937   6.223 -0.8550 -1.7883  1.0231
  158SAPE   C1117583   1.023   0.836   6.279 -0.9177 -0.0974 -0.3986
  158SAPE  H11A17584   0.921   0.864   6.312 -0.1806  0.9616  1.0775
  158SAPE  H11B17585   1.089   0.797   6.360  0.4944  0.7069 -1.1173
  158SAPE     P17586   1.127   0.654   6.119  0.2313  0.0757  0.0432
  158SAPE   O1317587   1.066   0.549   6.026  0.4356  0.0074 -0.1760
  158SAPE   O1417588   1.248   0.727   6.075 -0.4362 -0.5222 -0.8710
  158SAPE   O1217589   1.011   0.751   6.165 -0.6870  0.2349  0.6737
  158SAPE   O1117590   1.165   0.594   6.262  0.4856  0.0329 -0.0192
  158SAPE    C117591   1.069   0.510   6.322  0.1245 -0.0420 -0.1015
  158SAPE    HA17592   0.969   0.557   6.321 -0.9634 -2.1165  1.9120
  158SAPE    HB17593   1.064   0.414   6.265  3.4375 -2.1200  2.6576
  158SAPE    C217594   1.116   0.478   6.465  0.0436 -0.7404  0.1053
  158SAPE    HS17595   1.037   0.405   6.494 -1.2063  0.1422 -0.9417
  158SAPE   O2117596   1.097   0.596   6.550  0.0912  0.2345 -0.4569
  158SAPE   C2117597   1.077   0.572   6.676  0.0053 -0.1654  0.0088
  158SAPE   O2217598   1.025   0.471   6.717  0.2746  0.0132 -0.3654
  158SAPE   C2217599   1.107   0.692   6.763 -0.0251 -0.7456 -0.3291
  158SAPE   H2R17600   1.213   0.700   6.796 -0.6044  2.2282  1.1082
  158SAPE   H2S17601   1.095   0.792   6.716  2.9177 -0.1268 -0.0026
  158SAPE    C317602   1.272   0.437   6.469 -0.6234  0.0081  0.0565
  158SAPE    HX17603   1.322   0.527   6.427  0.7739 -1.2229 -1.0571
  158SAPE    HY17604   1.301   0.366   6.388  0.0995  0.0546  0.2660
  158SAPE   O3117605   1.321   0.396   6.601  0.8689  0.0537  0.1373
  158SAPE   C3117606   1.302   0.270   6.626 -0.1232  0.4857 -0.9214
  158SAPE   O3217607   1.254   0.184   6.551  0.1800 -0.1527 -0.2767
  158SAPE   C3217608   1.365   0.255   6.770 -0.3892  0.2961 -0.0188
  158SAPE   H2X17609   1.348   0.346   6.831  0.5314  0.0083  0.6853
  158SAPE   H2Y17610   1.474   0.238   6.753 -0.6538 -0.6286 -0.9187
  158SAPE   C2317611   1.011   0.695   6.885  0.1370  0.2536  0.0728
  158SAPE   H3R17612   1.039   0.611   6.952  3.0906  1.3198  0.3190
  158SAPE   H3S17613   0.908   0.672   6.850  0.5737 -1.5659 -0.1094
  158SAPE   C2417614   1.005   0.832   6.959  0.8681  0.7428  0.8695
  158SAPE   H4R17615   0.918   0.820   7.028  2.0056 -0.9789  2.0771
  158SAPE   H4S17616   0.984   0.913   6.886  0.8649  1.4616  1.6577
  158SAPE   C2517617   1.122   0.873   7.041  0.3306 -0.4784 -0.0666
  158SAPE   H5R17618   1.203   0.923   6.985 -0.2118  1.3948  0.7515
  158SAPE   C2617619   1.139   0.855   7.176 -0.1924 -0.8453 -0.7595
  158SAPE   H6R17620   1.229   0.901   7.220 -0.5954 -0.7796 -0.0013
  158SAPE   C2717621   1.049   0.792   7.280  0.0258  0.2640  0.6761
  158SAPE   H7R17622   0.942   0.816   7.268  0.4675  2.0771  0.0811
  158SAPE   H7S17623   1.067   0.830   7.383  1.8625  0.6047  0.2695
  158SAPE   C2817624   1.060   0.636   7.274  0.2372 -0.1028 -0.5321
  158SAPE   H8R17625   1.006   0.600   7.185 -1.1158 -0.8299  0.5454
  158SAPE   C2917626   1.092   0.550   7.369  0.2869  0.4960  0.1293
  158SAPE   H9R17627   1.100   0.445   7.338 -0.5878  0.0448  1.3609
  158SAPE  C21017628   1.150   0.575   7.505 -0.1543  0.0820 -0.1491
  158SAPE  H10R17629   1.146   0.686   7.519  0.0075  0.2119 -1.0569
  158SAPE  H10S17630   1.254   0.537   7.505  0.2299  1.0919  0.2366
  158SAPE  C21117631   1.063   0.514   7.611  0.6477 -0.8851 -0.0110
  158SAPE  H11R17632   0.959   0.488   7.585  0.5883  0.2825 -0.9901
  158SAPE  C21217633   1.113   0.489   7.732 -0.1252 -0.2980  0.2753
  158SAPE  H12R17634   1.054   0.440   7.810  2.0025 -2.2221  0.7608
  158SAPE  C21317635   1.253   0.519   7.780  1.1232 -0.1131 -0.0909
  158SAPE  H13R17636   1.321   0.508   7.692  1.1363 -0.4226 -0.0432
  158SAPE  H13S17637   1.286   0.433   7.842 -0.6084  0.3125  1.4770
  158SAPE  C21417638   1.273   0.657   7.837 -0.6868  0.5277 -0.1997
  158SAPE  H14R17639   1.206   0.738   7.804 -1.4065 -0.1474 -0.4242
  158SAPE  C21517640   1.388   0.687   7.905 -0.6694 -0.5017  0.3199
  158SAPE  H15R17641   1.399   0.788   7.947 -0.3784 -0.9235  1.2803
  158SAPE  C21617642   1.504   0.589   7.934  0.0649 -0.2437 -0.6237
  158SAPE  H16R17643   1.600   0.614   7.883  2.0411 -1.1193  2.3955
  158SAPE  H16S17644   1.478   0.487   7.898  0.8082 -0.0674 -1.6878
  158SAPE  C21717645   1.536   0.577   8.079 -0.2444 -0.5059 -0.2133
  158SAPE  H17R17646   1.629   0.517   8.089 -0.1202 -0.2732  0.0431
  158SAPE  H17S17647   1.459   0.532   8.145 -2.5330 -0.8920 -2.9779
  158SAPE  C21817648   1.587   0.709   8.146 -0.3411  0.1284 -0.1768
  158SAPE  H18R17649   1.548   0.794   8.086  0.4641 -0.2448 -1.2607
  158SAPE  H18S17650   1.698   0.710   8.136 -0.1852 -0.8583  1.1592
  158SAPE  C21917651   1.559   0.705   8.296  0.0797 -0.1180 -0.5729
  158SAPE  H19R17652   1.590   0.602   8.325  1.8056  0.1789 -1.2823
  158SAPE  H19S17653   1.452   0.727   8.316  1.2742  3.5165  3.0825
  158SAPE  C22017654   1.627   0.815   8.373 -0.0267 -0.3327 -0.2989
  158SAPE  H20R17655   1.736   0.814   8.354  0.1258 -0.6224  0.5209
  158SAPE  H20S17656   1.610   0.791   8.480  0.8589 -0.2199 -0.1272
  158SAPE  H20T17657   1.572   0.910   8.356 -0.6009 -0.2644  1.6763
  158SAPE   C3317658   1.307   0.133   6.854  0.0306 -0.0371  0.3262
  158SAPE   H3X17659   1.197   0.143   6.855 -0.2734 -2.5190  2.1542
  158SAPE   H3Y17660   1.342   0.154   6.958 -1.1995 -0.2169  0.7882
  158SAPE   C3417661   1.356  -0.009   6.812 -0.1890 -0.3157  0.6894
  158SAPE   H4X17662   1.462  -0.001   6.781 -0.8136 -3.2543 -2.8206
  158SAPE   H4Y17663   1.312  -0.036   6.714  2.3848  0.7813 -0.8585
  158SAPE   C3517664   1.331  -0.110   6.925  0.3287 -0.2346  0.6981
  158SAPE   H5X17665   1.317  -0.207   6.872  1.6698 -0.2025  0.2241
  158SAPE   H5Y17666   1.236  -0.077   6.970  1.5360  1.3989  2.1880
  158SAPE   C3617667   1.440  -0.100   7.033 -0.3778 -0.0721 -0.1894
  158SAPE   H6X17668   1.471   0.002   7.061  0.1043  0.5354 -2.6429
  158SAPE   H6Y17669   1.524  -0.141   6.972 -1.1318 -0.9158 -0.6978
  158SAPE   C3717670   1.415  -0.193   7.155  0.9070 -0.2462 -0.2739
  158SAPE   H7X17671   1.308  -0.193   7.183  1.5171 -2.4065  2.3986
  158SAPE   H7Y17672   1.426  -0.302   7.143 -2.9532 -0.9478  1.2503
  158SAPE   C3817673   1.497  -0.153   7.282 -0.2794  0.0988  0.0712
  158SAPE   H8X17674   1.485  -0.043   7.295  0.8365  0.3743 -0.9715
  158SAPE   H8Y17675   1.601  -0.183   7.258  0.0194  0.6934  0.5962
  158SAPE   C3917676   1.459  -0.227   7.409 -0.6087 -0.6224 -0.1875
  158SAPE   H9X17677   1.477  -0.336   7.394  0.8742 -0.6057  1.2555
  158SAPE   H9Y17678   1.350  -0.221   7.432 -1.1417 -0.9015 -2.3305
  158SAPE  C31017679   1.541  -0.173   7.534 -0.2484 -0.1880 -0.0360
  158SAPE  H10X17680   1.513  -0.067   7.554 -1.2253 -0.2238 -1.1458
  158SAPE  H10Y17681   1.648  -0.170   7.502 -0.8303  2.1434 -2.0890
  158SAPE  C31117682   1.516  -0.256   7.659 -0.1533 -0.3891  0.3251
  158SAPE  H11X17683   1.552  -0.361   7.644 -0.5839 -0.3747 -0.8825
  158SAPE  H11Y17684   1.408  -0.254   7.683  0.0043  1.6921  1.0179
  158SAPE  C31217685   1.582  -0.197   7.777  0.0105  0.4004  0.5819
  158SAPE  H12X17686   1.556  -0.092   7.799 -1.7732  0.2308 -0.4879
  158SAPE  H12Y17687   1.691  -0.216   7.770  0.0699  1.2588 -1.7612
  158SAPE  C31317688   1.533  -0.253   7.914 -0.1955 -0.2020 -0.0499
  158SAPE  H13X17689   1.565  -0.359   7.927  1.5580  0.6036  3.5746
  158SAPE  H13Y17690   1.423  -0.239   7.918 -0.1939 -0.2112  0.0264
  158SAPE  C31417691   1.592  -0.171   8.026  0.2868  0.1957 -0.7869
  158SAPE  H14X17692   1.562  -0.064   8.026  2.5133  0.9287  1.2883
  158SAPE  H14Y17693   1.703  -0.170   8.022  0.4006 -0.6136  1.1892
  158SAPE  C31517694   1.556  -0.230   8.164 -0.0966  0.3896 -0.5071
  158SAPE  H15X17695   1.446  -0.234   8.174 -0.3268  0.9653 -2.3862
  158SAPE  H15Y17696   1.586  -0.180   8.258 -1.6654 -1.2570  0.9365
  158SAPE  C31617697   1.609  -0.380   8.172  0.4576  0.5689  0.0673
  158SAPE  H16X17698   1.709  -0.381   8.124  1.4053 -0.3342  1.9561
  158SAPE  H16Y17699   1.545  -0.454   8.120 -0.1485  0.3696  1.0653
  158SAPE  C31717700   1.614  -0.438   8.307  0.7047  0.3174 -0.3502
  158SAPE  H17X17701   1.659  -0.382   8.392  0.0556  0.8062 -0.3281
  158SAPE  H17Y17702   1.671  -0.533   8.301 -0.5629 -0.3999 -5.7637
  158SAPE  C31817703   1.476  -0.473   8.363  0.3938 -0.8747  0.6164
  158SAPE  H18X17704   1.426  -0.381   8.401 -0.8324 -1.5370  0.6912
  158SAPE  H18Y17705   1.475  -0.546   8.447 -1.6004 -1.2636  0.3041
  158SAPE  H18Z17706   1.413  -0.519   8.283 -1.1715 -1.0447  1.8761
  159SAPE     N17707   1.420   5.037   6.031  0.3787 -0.3071  0.3985
  159SAPE   HN117708   1.492   4.970   6.066  1.6394  0.1911 -1.1081
  159SAPE   HN217709   1.340   4.972   6.018  0.2970 -0.5676  2.0262
  159SAPE   HN317710   1.452   5.070   5.937  2.5323  0.0696  1.2052
  159SAPE   C1217711   1.392   5.151   6.129  0.1359  0.5651 -0.2141
  159SAPE  H12A17712   1.353   5.233   6.066 -0.5681  0.4250  0.0255
  159SAPE  H12B17713   1.482   5.180   6.187 -0.3465  0.5915  0.5271
  159SAPE   C1117714   1.266   5.118   6.211  0.0329 -0.3251  0.2851
  159SAPE  H11A17715   1.264   5.193   6.292  2.2724  2.2615 -1.8634
  159SAPE  H11B17716   1.272   5.013   6.247  0.8120 -1.3045 -2.4488
  159SAPE     P17717   1.083   5.012   6.053  0.2628 -0.1117  0.0499
  159SAPE   O1317718   0.984   5.065   5.959  0.1853  0.7744  0.1455
  159SAPE   O1417719   1.186   4.931   5.994 -0.2091  0.3645  0.8344
  159SAPE   O1217720   1.153   5.139   6.122 -0.3680 -0.3254 -0.3352
  159SAPE   O1117721   1.019   4.955   6.182 -0.3320 -0.0792 -0.3113
  159SAPE    C117722   0.923   5.043   6.255 -0.3616  0.3920  0.6341
  159SAPE    HA17723   0.955   5.149   6.265 -1.5765  0.8030  0.2933
  159SAPE    HB17724   0.825   5.033   6.204  1.0518 -1.5938 -1.9248
  159SAPE    C217725   0.900   4.997   6.400  0.0166  0.0889  0.7082
  159SAPE    HS17726   0.822   5.067   6.439  1.0044  1.5590  0.1063
  159SAPE   O2117727   1.010   5.011   6.483  0.2543  0.2607  0.7496
  159SAPE   C2117728   1.073   5.127   6.506  0.0738 -0.0556 -0.5656
  159SAPE   O2217729   1.033   5.234   6.472  0.1028 -0.8862 -0.4472
  159SAPE   C2217730   1.217   5.109   6.551 -0.1134  0.3462  0.0211
  159SAPE   H2R17731   1.258   5.009   6.529  1.9425  0.7767  1.6147
  159SAPE   H2S17732   1.282   5.180   6.495  1.1979 -0.1868  0.8293
  159SAPE    C317733   0.849   4.851   6.408  0.4889 -0.0142 -0.1652
  159SAPE    HX17734   0.934   4.789   6.371  0.3496  0.0603 -0.6178
  159SAPE    HY17735   0.763   4.840   6.339 -0.1067  2.3959  0.0918
  159SAPE   O3117736   0.788   4.828   6.538  0.3743  0.7736  0.4196
  159SAPE   C3117737   0.869   4.755   6.624  0.1444  0.3390 -0.5832
  159SAPE   O3217738   0.988   4.727   6.606 -0.4961 -0.0989  0.8012
  159SAPE   C3217739   0.784   4.716   6.746 -0.6162 -0.3385  0.2192
  159SAPE   H2X17740   0.689   4.684   6.699 -0.2495 -1.1209 -0.0049
  159SAPE   H2Y17741   0.760   4.806   6.808 -0.4584 -0.4762  0.4819
  159SAPE   C2317742   1.239   5.129   6.704 -0.3469  0.7526  0.2915
  159SAPE   H3R17743   1.214   5.231   6.741  0.7186  1.0236  0.3015
  159SAPE   H3S17744   1.349   5.113   6.696 -0.2354  1.5685  0.0774
  159SAPE   C2417745   1.165   5.018   6.787  0.7050 -0.3787  0.2586
  159SAPE   H4R17746   1.224   5.019   6.881  4.2283 -0.2003 -1.7465
  159SAPE   H4S17747   1.185   4.917   6.744 -1.8015 -0.8120 -0.0361
  159SAPE   C2517748   1.014   5.047   6.814  0.0709  0.3975  0.1528
  159SAPE   H5R17749   0.951   5.102   6.742 -1.8395  2.6278  3.2977
  159SAPE   C2617750   0.941   5.009   6.921  0.1916 -0.3593  0.1276
  159SAPE   H6R17751   0.837   5.045   6.925  0.4249  0.3503  0.1059
  159SAPE   C2717752   1.002   4.935   7.048  0.4625  0.6229  0.7575
  159SAPE   H7R17753   1.082   4.862   7.021 -0.0843 -1.0624  3.3451
  159SAPE   H7S17754   0.915   4.877   7.085  0.2128 -0.8108 -1.8246
  159SAPE   C2817755   1.055   5.026   7.158 -0.5014 -0.0492  0.0252
  159SAPE   H8R17756   1.103   5.120   7.127  3.0987 -1.3590  1.2119
  159SAPE   C2917757   1.085   4.988   7.284 -0.0991 -0.2632 -0.6952
  159SAPE   H9R17758   1.121   5.060   7.360  0.4744 -0.4662 -0.7692
  159SAPE  C21017759   1.075   4.851   7.343  0.7237  0.3977  0.1358
  159SAPE  H10R17760   1.172   4.831   7.392 -0.8957 -1.8680  2.6767
  159SAPE  H10S17761   1.069   4.777   7.260 -2.1071  1.1267 -0.4306
  159SAPE  C21117762   0.962   4.826   7.443  0.6147 -0.3534 -0.4040
  159SAPE  H11R17763   0.864   4.819   7.393  1.5586 -1.4756 -2.2113
  159SAPE  C21217764   0.973   4.797   7.572  0.3659  0.0673 -0.2073
  159SAPE  H12R17765   0.881   4.787   7.631 -0.2148 -1.4145 -1.3082
  159SAPE  C21317766   1.097   4.808   7.660 -0.4291 -0.3148  0.2990
  159SAPE  H13R17767   1.102   4.905   7.713  0.7147 -0.5817  0.7190
  159SAPE  H13S17768   1.191   4.800   7.602  0.1384  2.8907  0.5986
  159SAPE  C21417769   1.110   4.700   7.766  1.1502 -0.2457  0.5040
  159SAPE  H14R17770   1.145   4.605   7.723  2.6743  1.2343 -1.7975
  159SAPE  C21517771   1.080   4.710   7.898  0.2599  0.2472  0.2454
  159SAPE  H15R17772   1.094   4.624   7.965  1.4205  2.0723  2.5034
  159SAPE  C21617773   1.037   4.838   7.962 -0.4729  0.9427 -0.0345
  159SAPE  H16R17774   1.046   4.932   7.903  0.0151  1.8198  1.3644
  159SAPE  H16S17775   1.104   4.849   8.050 -0.5299 -1.6937  0.4116
  159SAPE  C21717776   0.903   4.833   8.026  0.1717 -0.1947 -0.3664
  159SAPE  H17R17777   0.879   4.740   8.082 -0.1967 -0.8444 -1.5702
  159SAPE  H17S17778   0.834   4.835   7.939 -3.2870 -1.1448  2.1258
  159SAPE  C21817779   0.866   4.956   8.105  0.2415  0.4114  0.0332
  159SAPE  H18R17780   0.756   4.969   8.113  0.2619  2.2559 -1.7459
  159SAPE  H18S17781   0.903   5.042   8.044 -0.4752 -0.7399 -2.1254
  159SAPE  C21917782   0.933   4.956   8.247 -0.1273 -0.6412 -0.1161
  159SAPE  H19R17783   1.040   4.984   8.237  0.3255 -1.7027  1.3370
  159SAPE  H19S17784   0.933   4.855   8.294 -0.2444 -1.2319 -1.3364
  159SAPE  C22017785   0.877   5.048   8.362 -0.0735 -0.0912  0.4397
  159SAPE  H20R17786   0.766   5.048   8.362 -0.0817 -0.7479  0.9004
  159SAPE  H20S17787   0.907   5.149   8.327 -0.9942  0.1117  0.2333
  159SAPE  H20T17788   0.913   5.010   8.460  1.0644 -3.2350 -1.0320
  159SAPE   C3317789   0.850   4.616   6.844 -0.9531 -0.3814 -0.4591
  159SAPE   H3X17790   0.954   4.640   6.874 -0.9691 -0.5475 -0.2648
  159SAPE   H3Y17791   0.854   4.520   6.788 -1.0711  0.1154 -1.3267
  159SAPE   C3417792   0.776   4.614   6.973  0.3013 -0.4273 -0.2600
  159SAPE   H4X17793   0.672   4.576   6.963 -0.0420  0.1306  0.9124
  159SAPE   H4Y17794   0.772   4.717   7.016  0.5846 -0.5073 -0.0416
  159SAPE   C3517795   0.843   4.529   7.086  0.0382 -0.2000 -0.4019
  159SAPE   H5X17796   0.949   4.563   7.076  0.2617  0.2164  2.4284
  159SAPE   H5Y17797   0.834   4.420   7.069 -1.2935 -0.1201 -0.3285
  159SAPE   C3617798   0.774   4.553   7.223  0.7888 -0.0928 -0.0567
  159SAPE   H6X17799   0.672   4.510   7.215  1.2040 -1.1203  0.0074
  159SAPE   H6Y17800   0.762   4.659   7.255 -0.4506  0.5868 -2.5142
  159SAPE   C3717801   0.847   4.470   7.327 -0.8020  0.3548  0.4411
  159SAPE   H7X17802   0.945   4.521   7.333 -0.4212  0.6161 -4.3607
  159SAPE   H7Y17803   0.858   4.359   7.325  1.0793  0.4351  2.4100
  159SAPE   C3817804   0.777   4.488   7.462 -0.3160  0.0248  0.6379
  159SAPE   H8X17805   0.676   4.443   7.456  0.1492 -1.0727  0.8113
  159SAPE   H8Y17806   0.788   4.592   7.500  0.6674 -0.5671  2.0851
  159SAPE   C3917807   0.854   4.421   7.576  0.0553  0.3707  0.3451
  159SAPE   H9X17808   0.953   4.472   7.578  0.9033 -1.2249  0.5059
  159SAPE   H9Y17809   0.863   4.312   7.555 -2.0582  0.5254 -1.7053
  159SAPE  C31017810   0.790   4.440   7.712  0.0428 -0.1864 -0.1775
  159SAPE  H10X17811   0.681   4.418   7.709  0.0964 -0.6652  0.9628
  159SAPE  H10Y17812   0.796   4.548   7.738  0.1307 -0.1692 -0.2738
  159SAPE  C31117813   0.849   4.346   7.819 -0.1679  0.3030  1.0794
  159SAPE  H11X17814   0.959   4.332   7.810 -0.1957  0.1144  1.0381
  159SAPE  H11Y17815   0.805   4.245   7.803 -0.7851  0.7631 -0.2468
  159SAPE  C31217816   0.834   4.398   7.960  0.4119 -0.6436 -0.6326
  159SAPE  H12X17817   0.732   4.439   7.977 -0.3923 -2.4390 -0.8381
  159SAPE  H12Y17818   0.910   4.478   7.967 -2.1999  2.3377 -3.2395
  159SAPE  C31317819   0.874   4.295   8.065  0.1867  0.2109  0.0199
  159SAPE  H13X17820   0.979   4.264   8.048  0.0314  0.2374 -1.0517
  159SAPE  H13Y17821   0.806   4.209   8.049  0.7658  0.2877 -3.7442
  159SAPE  C31417822   0.862   4.372   8.204 -0.0266 -0.7266  0.2290
  159SAPE  H14X17823   0.770   4.433   8.195 -0.5872 -1.6779 -0.5520
  159SAPE  H14Y17824   0.944   4.447   8.215 -0.6507  0.0700 -0.4456
  159SAPE  C31517825   0.873   4.281   8.324  0.2138  0.6485  0.4130
  159SAPE  H15X17826   0.843   4.338   8.415 -0.1439  0.6836  0.2772
  159SAPE  H15Y17827   0.979   4.248   8.330  0.6655  1.3930 -2.2304
  159SAPE  C31617828   0.777   4.158   8.324 -0.1313 -0.9773  0.3708
  159SAPE  H16X17829   0.784   4.103   8.228 -0.1609  0.0008 -0.2123
  159SAPE  H16Y17830   0.672   4.195   8.336 -0.4557 -2.1548  1.2949
  159SAPE  C31717831   0.815   4.062   8.440 -0.2044 -0.0407  0.4608
  159SAPE  H17X17832   0.924   4.045   8.429  0.2752  1.8329  1.6633
  159SAPE  H17Y17833   0.768   3.964   8.421  1.4287 -0.6046 -0.9512
  159SAPE  C31817834   0.802   4.117   8.582  0.0101  0.4955  0.2874
  159SAPE  H18X17835   0.862   4.210   8.591 -1.2138  1.2707  0.7841
  159SAPE  H18Y17836   0.849   4.038   8.644 -2.7689  0.2032  2.2311
  159SAPE  H18Z17837   0.698   4.131   8.619 -0.1331 -1.5760  0.7836
  160SAPE     N17838   3.542   3.510   6.159  0.0199 -0.1213 -0.6739
  160SAPE   HN117839   3.578   3.581   6.091  0.3181 -1.0462 -1.5086
  160SAPE   HN217840   3.618   3.442   6.181  0.6549  0.9596  0.6597
  160SAPE   HN317841   3.458   3.464   6.119 -1.1603 -0.8904  2.4087
  160SAPE   C1217842   3.503   3.578   6.287 -0.7482  0.4983 -0.0246
  160SAPE  H12A17843   3.458   3.676   6.260  0.8853  1.0257 -0.9839
  160SAPE  H12B17844   3.591   3.592   6.353  0.4500  1.0106 -1.6839
  160SAPE   C1117845   3.423   3.466   6.362  0.3731 -0.4287  0.0361
  160SAPE  H11A17846   3.415   3.479   6.472 -2.2103 -3.6245  0.3520
  160SAPE  H11B17847   3.477   3.370   6.351  0.3608 -0.3047 -1.2641
  160SAPE     P17848   3.196   3.340   6.336  0.2198  0.4444 -0.1194
  160SAPE   O1317849   3.066   3.378   6.270 -0.0486  0.1517 -0.0612
  160SAPE   O1417850   3.255   3.210   6.297 -0.0547  0.6377 -0.4236
  160SAPE   O1217851   3.300   3.457   6.303  0.2438 -0.1683 -0.0028
  160SAPE   O1117852   3.180   3.350   6.498 -0.8376  0.5620  0.2411
  160SAPE    C117853   3.119   3.465   6.552  0.2565  0.6424 -0.7369
  160SAPE    HA17854   3.180   3.556   6.537 -1.7031  2.4091  1.3781
  160SAPE    HB17855   3.019   3.484   6.508 -1.0426 -0.7291  1.4226
  160SAPE    C217856   3.097   3.460   6.712 -0.0982 -0.4270  0.3542
  160SAPE    HS17857   3.083   3.566   6.742  1.4166 -0.0084 -0.3277
  160SAPE   O2117858   3.195   3.397   6.790 -0.9726 -0.5760 -0.3817
  160SAPE   C2117859   3.308   3.464   6.784 -0.8572  0.1306 -0.1628
  160SAPE   O2217860   3.319   3.575   6.733 -0.3766 -0.0254  0.0035
  160SAPE   C2217861   3.406   3.385   6.863  0.1035  0.4089 -0.4570
  160SAPE   H2R17862   3.439   3.304   6.795 -0.4468  1.0257 -1.4869
  160SAPE   H2S17863   3.487   3.457   6.888 -1.1247  1.8832 -0.5804
  160SAPE    C317864   2.959   3.407   6.759 -0.5617  0.0257  0.2055
  160SAPE    HX17865   2.976   3.298   6.773  1.3682  0.2269 -0.2342
  160SAPE    HY17866   2.874   3.416   6.689  0.4972  0.5705 -1.0528
  160SAPE   O3117867   2.931   3.470   6.887  0.1549  0.2668  0.1688
  160SAPE   C3117868   2.824   3.421   6.941  0.0556 -0.3807 -0.0707
  160SAPE   O3217869   2.733   3.363   6.890 -0.3040  1.2451  0.0447
  160SAPE   C3217870   2.805   3.456   7.083 -0.0259  0.4294  0.0233
  160SAPE   H2X17871   2.696   3.468   7.101 -0.3506 -1.4009 -0.5790
  160SAPE   H2Y17872   2.846   3.553   7.118 -1.8539  0.5221  2.1241
  160SAPE   C2317873   3.347   3.322   6.988 -0.0492 -0.3020  0.0179
  160SAPE   H3R17874   3.294   3.228   6.963 -2.2346  0.9014 -0.1859
  160SAPE   H3S17875   3.262   3.386   7.023  1.0704  1.0585  0.3277
  160SAPE   C2417876   3.451   3.284   7.095 -0.7212 -0.1068 -0.8847
  160SAPE   H4R17877   3.506   3.374   7.129  0.7158 -0.2515 -2.6638
  160SAPE   H4S17878   3.525   3.214   7.052 -1.4835 -0.0469 -2.3690
  160SAPE   C2517879   3.378   3.217   7.203  0.5434 -0.0249 -0.5871
  160SAPE   H5R17880   3.323   3.126   7.174 -0.6608  0.0601  1.2644
  160SAPE   C2617881   3.384   3.233   7.342  0.2898  0.2871  0.0920
  160SAPE   H6R17882   3.334   3.167   7.414  1.0988  1.3701  1.7151
  160SAPE   C2717883   3.460   3.339   7.417  0.1753  0.0068 -0.2954
  160SAPE   H7R17884   3.421   3.350   7.520 -1.9663  4.1252 -1.3282
  160SAPE   H7S17885   3.448   3.440   7.373 -1.8153 -0.7445 -1.5842
  160SAPE   C2817886   3.611   3.324   7.421 -0.1618  0.3505  0.3430
  160SAPE   H8R17887   3.656   3.327   7.321  0.4444  1.0147  0.6272
  160SAPE   C2917888   3.687   3.307   7.531  0.2346  0.4585 -0.0943
  160SAPE   H9R17889   3.789   3.279   7.500  1.0467  4.8481 -2.0407
  160SAPE  C21017890   3.649   3.295   7.676 -0.0367  0.1097 -0.4294
  160SAPE  H10R17891   3.594   3.201   7.701  0.9282 -0.5127 -0.5981
  160SAPE  H10S17892   3.587   3.386   7.695 -0.4105 -0.3921  0.8552
  160SAPE  C21117893   3.766   3.296   7.761  0.4357 -0.4467 -0.6327
  160SAPE  H11R17894   3.814   3.196   7.767 -1.2921 -1.3502 -1.2718
  160SAPE  C21217895   3.821   3.403   7.819  0.0014 -0.3523 -0.1534
  160SAPE  H12R17896   3.904   3.381   7.887  1.1999 -0.1285 -1.4983
  160SAPE  C21317897   3.769   3.548   7.819 -0.9713 -0.0521  0.0695
  160SAPE  H13R17898   3.725   3.579   7.916  0.5729 -0.2104  0.8565
  160SAPE  H13S17899   3.688   3.559   7.744  0.0566 -1.4697 -1.3280
  160SAPE  C21417900   3.883   3.633   7.777  0.1662  0.5496  0.1521
  160SAPE  H14R17901   3.927   3.605   7.680 -0.2192 -0.3547  0.2310
  160SAPE  C21517902   3.930   3.733   7.845 -0.3385  0.7158 -0.3557
  160SAPE  H15R17903   4.020   3.788   7.815  0.0844  0.5195  0.5009
  160SAPE  C21617904   3.883   3.779   7.983 -0.4159 -0.4529  0.0154
  160SAPE  H16R17905   3.773   3.797   7.990 -0.1988  1.7803 -1.3453
  160SAPE  H16S17906   3.931   3.876   8.007  2.0534 -1.6501  0.2043
  160SAPE  C21717907   3.929   3.685   8.090 -0.3374 -0.1075 -0.6991
  160SAPE  H17R17908   4.040   3.675   8.093 -0.4771 -2.3518 -1.0658
  160SAPE  H17S17909   3.891   3.582   8.072  0.3770 -0.6340  0.6494
  160SAPE  C21817910   3.874   3.719   8.234  0.4012  0.4981  0.0026
  160SAPE  H18R17911   3.914   3.812   8.281 -1.2889  1.6092 -0.6734
  160SAPE  H18S17912   3.902   3.630   8.295  3.6533  2.1310  1.1104
  160SAPE  C21917913   3.717   3.704   8.247 -0.9683  0.1068 -0.3648
  160SAPE  H19R17914   3.680   3.601   8.226 -2.3703  0.2087  1.4240
  160SAPE  H19S17915   3.674   3.773   8.172 -0.1138  1.2163  0.1410
  160SAPE  C22017916   3.667   3.748   8.386 -0.0887  0.5269  0.5213
  160SAPE  H20R17917   3.559   3.774   8.388 -0.2002  0.1835 -0.4970
  160SAPE  H20S17918   3.728   3.832   8.426 -0.6481  0.4064  1.6806
  160SAPE  H20T17919   3.669   3.663   8.458  1.4662 -0.5607 -0.7356
  160SAPE   C3317920   2.876   3.355   7.171 -0.0662  0.1101 -0.2258
  160SAPE   H3X17921   2.985   3.368   7.159  0.0362 -1.0989 -0.6699
  160SAPE   H3Y17922   2.856   3.256   7.126  0.1729  0.8134 -2.0047
  160SAPE   C3417923   2.848   3.363   7.317  0.1905 -0.2172  0.2895
  160SAPE   H4X17924   2.742   3.358   7.349 -0.1425 -0.3965 -0.8041
  160SAPE   H4Y17925   2.889   3.462   7.348 -0.0240  1.1655 -3.3496
  160SAPE   C3517926   2.928   3.259   7.388  1.0678  0.6701 -0.3165
  160SAPE   H5X17927   3.026   3.309   7.405  1.6483 -0.5640  0.1019
  160SAPE   H5Y17928   2.941   3.158   7.343  0.6881 -0.9248  2.8700
  160SAPE   C3617929   2.880   3.233   7.538 -1.0013  0.9004 -0.1850
  160SAPE   H6X17930   2.789   3.170   7.543  0.4525 -1.2780  0.3555
  160SAPE   H6Y17931   2.848   3.331   7.578 -0.9727  1.0796 -0.5906
  160SAPE   C3717932   3.000   3.171   7.607 -0.1653  0.1343 -0.3207
  160SAPE   H7X17933   3.071   3.128   7.534 -0.7648  1.4738 -1.7380
  160SAPE   H7Y17934   2.966   3.087   7.672  1.8972 -1.4236 -1.1729
  160SAPE   C3817935   3.071   3.267   7.701 -0.3072 -0.2249  0.0192
  160SAPE   H8X17936   3.009   3.322   7.775 -0.8954  3.2767 -2.7726
  160SAPE   H8Y17937   3.131   3.342   7.645 -0.7099  0.9903  1.1531
  160SAPE   C3917938   3.184   3.194   7.776  0.0059  0.4517  0.0457
  160SAPE   H9X17939   3.244   3.134   7.704 -0.6898  0.1661 -0.3061
  160SAPE   H9Y17940   3.138   3.117   7.842  2.2104 -0.2809  0.7952
  160SAPE  C31017941   3.270   3.287   7.857 -0.5853 -0.1670 -0.1954
  160SAPE  H10X17942   3.197   3.334   7.927 -0.1438 -0.5131  0.5034
  160SAPE  H10Y17943   3.318   3.371   7.802  2.1847 -0.2595  1.8624
  160SAPE  C31117944   3.368   3.215   7.955  0.6222 -0.4109  0.4375
  160SAPE  H11X17945   3.409   3.123   7.908 -1.5428 -1.1631 -0.1394
  160SAPE  H11Y17946   3.310   3.175   8.041  0.0963  0.2724  0.4116
  160SAPE  C31217947   3.479   3.307   8.008  0.2178  1.3199 -0.6281
  160SAPE  H12X17948   3.438   3.393   8.066 -2.8202 -0.6898  0.4409
  160SAPE  H12Y17949   3.526   3.366   7.926 -1.2607  3.7898  0.2071
  160SAPE  C31317950   3.579   3.224   8.090  0.2522  0.0827 -0.2482
  160SAPE  H13X17951   3.628   3.144   8.029  0.1339  1.6445 -2.4923
  160SAPE  H13Y17952   3.517   3.175   8.169  0.0645  1.5654  0.5551
  160SAPE  C31417953   3.682   3.311   8.155  0.7006 -0.3080 -0.2565
  160SAPE  H14X17954   3.631   3.375   8.229 -1.8890 -0.8690 -1.4530
  160SAPE  H14Y17955   3.707   3.388   8.079 -2.2402 -0.2932 -1.3122
  160SAPE  C31517956   3.794   3.228   8.211 -0.5157  0.5709 -0.1819
  160SAPE  H15X17957   3.884   3.290   8.191 -0.6339  0.2747 -1.7348
  160SAPE  H15Y17958   3.817   3.133   8.157  1.7143  1.5401 -1.0810
  160SAPE  C31617959   3.782   3.195   8.362  0.6768 -0.2063  0.4117
  160SAPE  H16X17960   3.723   3.277   8.409 -2.5277 -0.4893 -2.6249
  160SAPE  H16Y17961   3.881   3.194   8.412  0.7042 -1.0000  0.3460
  160SAPE  C31717962   3.711   3.064   8.381  0.0277 -0.2121  0.4284
  160SAPE  H17X17963   3.763   2.978   8.334 -1.0634 -0.3464 -0.5736
  160SAPE  H17Y17964   3.610   3.062   8.335  1.2125  1.1082 -2.5231
  160SAPE  C31817965   3.689   3.014   8.528  0.1861 -0.5645  0.2375
  160SAPE  H18X17966   3.627   3.092   8.578  0.7243 -0.7242  1.1759
  160SAPE  H18Y17967   3.788   3.001   8.577  0.1890  2.9609  1.4566
  160SAPE  H18Z17968   3.628   2.922   8.532 -1.1432  0.3141  1.0488
  161SOPE     N17969   0.964   0.003  10.449 -0.0154 -0.3853 -0.0544
  161SOPE   HN117970   1.021   0.084  10.416 -0.4550 -0.0412  0.0122
  161SOPE   HN217971   1.007  -0.076  10.398  0.9805 -0.1212  0.3600
  161SOPE   HN317972   0.868   0.023  10.414  0.4289  1.4821 -0.3509
  161SOPE   C1217973   0.954  -0.014  10.601  0.5227 -0.0935  0.4248
  161SOPE  H12A17974   0.935   0.084  10.649  0.5429  0.3141 -0.3902
  161SOPE  H12B17975   1.052  -0.055  10.636 -0.4580 -1.8335  1.2529
  161SOPE   C1117976   0.841  -0.126  10.620 -0.0408  0.5236 -0.8724
  161SOPE  H11A17977   0.752  -0.091  10.564 -1.9449 -1.0925  0.9975
  161SOPE  H11B17978   0.821  -0.122  10.729  3.2591 -1.2128 -0.0488
  161SOPE     P17979   0.960  -0.349  10.670  0.0739  0.3479 -0.5692
  161SOPE   O1317980   0.896  -0.479  10.678 -0.7026 -0.3718 -0.5303
  161SOPE   O1417981   1.000  -0.279  10.797  0.0769 -0.0743 -0.3562
  161SOPE   O1217982   0.875  -0.256  10.582  0.2270  0.1060  0.1246
  161SOPE   O1117983   1.087  -0.361  10.589 -0.2942 -0.0346  0.3965
  161SOPE    C117984   1.129  -0.470  10.507  0.1368  0.5095  0.0863
  161SOPE    HA17985   1.068  -0.560  10.528  1.3146 -0.2239  0.4394
  161SOPE    HB17986   1.232  -0.503  10.532 -0.8571 -1.6390  1.5810
  161SOPE    C217987   1.103  -0.440  10.361 -0.1978  0.5600  0.3558
  161SOPE    HS17988   1.160  -0.347  10.338  0.3925 -0.3132 -2.0658
  161SOPE   O2117989   0.970  -0.434  10.339  0.1329  0.1075  0.1517
  161SOPE   C2117990   0.924  -0.310  10.312 -0.3030  0.2680  0.1730
  161SOPE   O2217991   0.995  -0.213  10.308 -0.1489 -0.1727  0.4377
  161SOPE   C2217992   0.777  -0.327  10.283  0.6001 -0.0814 -0.8477
  161SOPE   H2R17993   0.723  -0.262  10.357  2.8082 -0.1655  0.9364
  161SOPE   H2S17994   0.743  -0.432  10.289 -1.0561  0.4153 -0.9983
  161SOPE    C317995   1.159  -0.551  10.267 -0.0547  0.1969  0.4353
  161SOPE    HX17996   1.102  -0.647  10.272  0.0263  0.0636 -0.8639
  161SOPE    HY17997   1.262  -0.576  10.299 -0.6357 -0.9871  1.4953
  161SOPE   O3117998   1.154  -0.505  10.133  0.1510  0.0641  0.1147
  161SOPE   C3117999   1.182  -0.583  10.039  0.1599  0.5873 -0.1682
  161SOPE   O3218000   1.212  -0.701  10.044  0.3636  0.1332 -0.5498
  161SOPE   C3218001   1.175  -0.510   9.910  0.2290 -0.4183  0.4212
  161SOPE   H2X18002   1.279  -0.475   9.891  0.3030  0.0028  1.5759
  161SOPE   H2Y18003   1.112  -0.419   9.921 -0.1839 -0.8451  1.7467
  161SOPE   C2318004   0.735  -0.267  10.150  0.0721  0.4638  0.6275
  161SOPE   H3R18005   0.798  -0.181  10.118 -2.2254  1.7116 -0.8942
  161SOPE   H3S18006   0.630  -0.232  10.150  0.1175  0.6473  2.1748
  161SOPE   C2418007   0.756  -0.361  10.028  0.1212 -0.0180  0.6585
  161SOPE   H4R18008   0.863  -0.392  10.030  1.3280  3.6012  0.3327
  161SOPE   H4S18009   0.684  -0.445  10.037 -0.9262  0.6431 -0.9722
  161SOPE   C2518010   0.736  -0.287   9.895  0.1132 -0.6693 -0.1653
  161SOPE   H5R18011   0.657  -0.213   9.919  2.3944  1.3280  1.7105
  161SOPE   H5S18012   0.832  -0.236   9.875  0.9955 -2.4704 -0.7217
  161SOPE   C2618013   0.692  -0.379   9.784  0.2784 -0.2083 -0.1549
  161SOPE   H6R18014   0.782  -0.431   9.746  0.5360  0.0078  0.1516
  161SOPE   H6S18015   0.614  -0.448   9.823 -0.3559  0.8972  0.5887
  161SOPE   C2718016   0.648  -0.280   9.676 -0.6838 -0.0573  0.4513
  161SOPE   H7R18017   0.538  -0.270   9.677 -0.9173 -1.9624 -0.7718
  161SOPE   H7S18018   0.700  -0.183   9.685 -0.1413 -0.4353  1.5422
  161SOPE   C2818019   0.662  -0.334   9.528 -1.0646 -0.2274  0.1496
  161SOPE   H8R18020   0.613  -0.256   9.465  2.0022 -0.5082 -2.9219
  161SOPE   H8S18021   0.770  -0.346   9.505 -0.6035 -1.5301  2.6495
  161SOPE   C2918022   0.612  -0.476   9.509 -0.6900  0.2119  0.2647
  161SOPE   H9118023   0.653  -0.547   9.583 -0.2581  1.0747  0.8821
  161SOPE  C21018024   0.529  -0.500   9.406 -0.4879  1.3877 -0.3760
  161SOPE  H10118025   0.489  -0.602   9.397  0.0366  1.3046 -2.0685
  161SOPE  C21118026   0.481  -0.402   9.299  0.9917 -1.0958 -0.4077
  161SOPE  H11R18027   0.411  -0.323   9.334 -2.4856 -2.8508 -2.7229
  161SOPE  H11S18028   0.413  -0.454   9.228  0.2656 -1.4598  0.5235
  161SOPE  C21218029   0.580  -0.345   9.205 -0.4469 -0.6643  0.4312
  161SOPE  H12R18030   0.637  -0.423   9.149  0.6882  0.2123  0.3159
  161SOPE  H12S18031   0.662  -0.295   9.261  1.6596 -2.2021 -1.0869
  161SOPE  C21318032   0.521  -0.241   9.109 -0.0320 -0.4713  0.2125
  161SOPE  H13R18033   0.483  -0.163   9.179 -0.5826 -0.4116 -0.1420
  161SOPE  H13S18034   0.446  -0.292   9.045  1.2075 -2.4088  0.2310
  161SOPE  C21418035   0.633  -0.188   9.022 -0.6517  0.0886  0.6987
  161SOPE  H14R18036   0.661  -0.272   8.954  0.7782  0.7508  0.4173
  161SOPE  H14S18037   0.716  -0.170   9.095 -0.6355  0.7362  0.5253
  161SOPE  C21518038   0.585  -0.065   8.941  0.0599  0.5219 -0.4555
  161SOPE  H15R18039   0.659  -0.041   8.862 -1.8866  2.1757 -1.8910
  161SOPE  H15S18040   0.563   0.017   9.012 -1.1668 -1.4994  1.6550
  161SOPE  C21618041   0.454  -0.076   8.868  0.1136 -0.1223 -0.2509
  161SOPE  H16R18042   0.379  -0.084   8.950  0.6650  0.9846  0.3866
  161SOPE  H16S18043   0.454  -0.176   8.819 -1.4393 -0.0946 -0.3709
  161SOPE  C21718044   0.417   0.044   8.785 -0.1367 -0.8527  0.0274
  161SOPE  H17R18045   0.480   0.066   8.697 -1.5256 -0.1555 -0.8240
  161SOPE  H17S18046   0.424   0.131   8.854 -0.3182 -0.5150 -0.3793
  161SOPE  C21818047   0.275   0.037   8.730  0.0993  0.0005 -0.0063
  161SOPE  H18R18048   0.256   0.132   8.675 -0.2631 -0.6701 -1.0785
  161SOPE  H18S18049   0.205   0.027   8.816 -0.9397  1.1489 -0.6817
  161SOPE  H18T18050   0.251  -0.051   8.666 -2.4816  0.1814  0.5871
  161SOPE   C3318051   1.113  -0.590   9.794 -0.2452  0.2087 -0.7246
  161SOPE   H3X18052   1.010  -0.614   9.827 -1.1421  0.9184 -2.8784
  161SOPE   H3Y18053   1.163  -0.689   9.785  0.8294 -0.0536  4.6263
  161SOPE   C3418054   1.103  -0.514   9.662  0.7665 -0.4644 -0.3447
  161SOPE   H4X18055   1.208  -0.515   9.627  1.4461 -0.8265  1.5959
  161SOPE   H4Y18056   1.065  -0.411   9.680 -0.9061 -1.0887 -0.0479
  161SOPE   C3518057   1.000  -0.571   9.561  0.8388 -0.5232  0.1501
  161SOPE   H5X18058   0.896  -0.536   9.575  0.9083 -0.3926  0.3360
  161SOPE   H5Y18059   1.011  -0.680   9.583 -1.5433 -1.1108 -1.2300
  161SOPE   C3618060   1.031  -0.534   9.418  0.0586 -0.2040  0.5224
  161SOPE   H6X18061   1.136  -0.548   9.384  0.4351  1.9011  0.7062
  161SOPE   H6Y18062   1.008  -0.426   9.404 -1.2133 -0.7102 -1.8854
  161SOPE   C3718063   0.944  -0.616   9.319  0.2021 -0.4595  0.0229
  161SOPE   H7X18064   0.841  -0.588   9.350  0.6325  0.7214  0.4353
  161SOPE   H7Y18065   0.957  -0.723   9.346  1.3689 -0.2959  0.1546
  161SOPE   C3818066   0.972  -0.599   9.171 -0.0389  0.1738  0.3994
  161SOPE   H8X18067   1.075  -0.631   9.143 -0.1917  0.2385 -0.2655
  161SOPE   H8Y18068   0.959  -0.489   9.162 -1.7179 -0.0839 -0.6934
  161SOPE   C3918069   0.875  -0.666   9.072  0.8559  1.2538 -0.2684
  161SOPE   H9X18070   0.772  -0.656   9.113  0.5287  2.6609 -1.3476
  161SOPE   H9Y18071   0.909  -0.767   9.042  2.4864  1.8124 -0.4079
  161SOPE  C31018072   0.869  -0.591   8.944  0.3782  0.0143  0.1749
  161SOPE  H10X18073   0.971  -0.594   8.900  0.4472 -0.4725  0.3561
  161SOPE  H10Y18074   0.834  -0.489   8.968 -1.9164 -0.9367  1.2647
  161SOPE  C31118075   0.753  -0.638   8.856  0.0392 -0.0286 -0.0613
  161SOPE  H11X18076   0.665  -0.639   8.923  1.0658 -0.1899  1.3457
  161SOPE  H11Y18077   0.779  -0.742   8.825  1.3275  0.6214 -1.2807
  161SOPE  C31218078   0.718  -0.556   8.737 -0.5371 -0.5533 -0.0628
  161SOPE  H12X18079   0.702  -0.453   8.775 -0.5151 -0.7394  0.4721
  161SOPE  H12Y18080   0.619  -0.587   8.698  0.7325 -0.7994 -3.3267
  161SOPE  C31318081   0.838  -0.562   8.637  0.4405 -0.1346 -0.0517
  161SOPE  H13X18082   0.860  -0.669   8.615  2.5799  0.5080 -1.2887
  161SOPE  H13Y18083   0.931  -0.526   8.686 -1.3507  3.5480  1.0331
  161SOPE  C31418084   0.822  -0.463   8.520 -0.7088  0.5409 -0.0732
  161SOPE  H14X18085   0.790  -0.366   8.565 -1.8542 -0.1871  0.7266
  161SOPE  H14Y18086   0.754  -0.514   8.449 -1.7308 -1.4019  2.1778
  161SOPE  C31518087   0.950  -0.448   8.435 -0.4327 -0.3670 -0.1785
  161SOPE  H15X18088   0.996  -0.543   8.399 -0.4535 -1.2116  1.9018
  161SOPE  H15Y18089   1.016  -0.414   8.518  0.7792  0.0243 -1.2697
  161SOPE  C31618090   0.941  -0.331   8.327 -0.2398 -0.7309 -0.2862
  161SOPE  H16X18091   0.950  -0.235   8.382 -0.9294 -1.3147  0.8906
  161SOPE  H16Y18092   0.846  -0.324   8.271  0.1318  2.7894 -0.7281
  161SOPE  C31718093   1.061  -0.348   8.231  0.0494 -0.5374  0.2653
  161SOPE  H17X18094   1.045  -0.435   8.164 -0.9972 -2.0490  2.3624
  161SOPE  H17Y18095   1.152  -0.392   8.278 -0.7531 -0.5919  1.8525
  161SOPE  C31818096   1.088  -0.221   8.150 -0.1519  0.2486 -0.0423
  161SOPE  H18X18097   1.155  -0.240   8.063 -0.0246  1.6536 -0.2790
  161SOPE  H18Y18098   1.141  -0.143   8.209 -0.9425  0.6311  0.1714
  161SOPE  H18Z18099   0.993  -0.189   8.103  0.3170 -0.0668 -1.2563
  162SOPE     N18100   5.399   6.410  10.661  0.5539 -0.5814  0.2149
  162SOPE   HN118101   5.471   6.336  10.674  0.4126 -0.6381  0.6969
  162SOPE   HN218102   5.352   6.443  10.748  1.8911  1.1467  0.3381
  162SOPE   HN318103   5.314   6.366  10.619 -0.1644 -1.2512  2.2522
  162SOPE   C1218104   5.450   6.536  10.590  0.1482 -0.8951 -0.3170
  162SOPE  H12A18105   5.362   6.600  10.566  0.2502 -0.6129  0.0442
  162SOPE  H12B18106   5.490   6.505  10.491  0.7389  0.5756 -0.5637
  162SOPE   C1118107   5.550   6.607  10.683 -0.1377  0.8098 -0.4060
  162SOPE  H11A18108   5.520   6.709  10.715 -3.7088  0.0233 -0.8546
  162SOPE  H11B18109   5.641   6.620  10.620  0.0885  1.4544  0.0486
  162SOPE     P18110   5.693   6.555  10.894  0.0102  0.1606 -0.0282
  162SOPE   O1318111   5.758   6.429  10.943  0.3034  1.0248  0.2794
  162SOPE   O1418112   5.652   6.644  11.008  0.0472 -0.3014 -0.0628
  162SOPE   O1218113   5.574   6.527  10.801  0.1504 -0.1287  0.0142
  162SOPE   O1118114   5.786   6.631  10.801  0.0295  0.1402  0.1047
  162SOPE    C118115   5.913   6.583  10.755  0.5105  0.3775 -0.6037
  162SOPE    HA18116   5.909   6.474  10.735  0.9748  0.1903  0.2856
  162SOPE    HB18117   5.982   6.588  10.842  1.4831  0.3017 -1.3448
  162SOPE    C218118   5.969   6.662  10.636  0.2574  0.8815  0.1563
  162SOPE    HS18119   5.992   6.766  10.668 -0.8221  1.3333 -0.4540
  162SOPE   O2118120   5.868   6.656  10.533 -0.1661  0.2644 -0.4701
  162SOPE   C2118121   5.857   6.770  10.468 -0.7010 -0.4630 -0.1073
  162SOPE   O2218122   5.909   6.879  10.493  0.1505  1.0349  0.3141
  162SOPE   C2218123   5.767   6.744  10.345  0.5433 -0.0729 -0.4851
  162SOPE   H2R18124   5.666   6.776  10.379  1.0425 -0.2925  1.3384
  162SOPE   H2S18125   5.748   6.638  10.317  1.4533 -0.6428  0.9118
  162SOPE    C318126   6.092   6.589  10.581 -0.1203 -0.3205 -1.3791
  162SOPE    HX18127   6.080   6.480  10.566  0.6639 -0.9740  2.0499
  162SOPE    HY18128   6.170   6.595  10.660 -0.3366  0.3670 -1.2072
  162SOPE   O3118129   6.135   6.647  10.453  0.0938  0.2961 -0.3410
  162SOPE   C3118130   6.180   6.571  10.354  0.7051 -0.2265 -0.0673
  162SOPE   O3218131   6.206   6.449  10.368 -0.2627 -0.5057 -0.0549
  162SOPE   C3218132   6.201   6.645  10.224 -0.1218  0.5012  0.0096
  162SOPE   H2X18133   6.310   6.668  10.220  0.0050  0.4729  2.0851
  162SOPE   H2Y18134   6.140   6.738  10.230 -1.1954 -0.2838  2.7779
  162SOPE   C2318135   5.809   6.827  10.219 -0.8212 -0.0213 -0.4213
  162SOPE   H3R18136   5.909   6.789  10.189  0.8201  3.1766  0.5066
  162SOPE   H3S18137   5.814   6.938  10.230  1.1627  0.0807 -1.7443
  162SOPE   C2418138   5.724   6.787  10.100  0.7937  0.3013  0.2919
  162SOPE   H4R18139   5.622   6.760  10.134  0.5137  0.8220 -0.1176
  162SOPE   H4S18140   5.722   6.880  10.040 -1.4116 -1.1079 -2.0224
  162SOPE   C2518141   5.776   6.673  10.015  0.5124  0.7209  0.4305
  162SOPE   H5R18142   5.885   6.691  10.005  0.8972 -1.8836 -1.0201
  162SOPE   H5S18143   5.758   6.580  10.074  0.0071  0.9574  0.6505
  162SOPE   C2618144   5.698   6.665   9.877 -0.1242  0.3416  0.1902
  162SOPE   H6R18145   5.692   6.757   9.815 -0.6382  0.3769  0.2850
  162SOPE   H6S18146   5.774   6.596   9.833  1.2552  1.4952  0.6791
  162SOPE   C2718147   5.557   6.595   9.891 -1.3027  0.1538  0.3598
  162SOPE   H7R18148   5.568   6.499   9.946  0.3001  0.4089  0.5163
  162SOPE   H7S18149   5.484   6.658   9.946  0.3547  2.7815 -0.2916
  162SOPE   C2818150   5.493   6.566   9.749  0.0062 -0.0748 -0.5789
  162SOPE   H8R18151   5.392   6.520   9.756  0.6711 -1.6640 -1.0177
  162SOPE   H8S18152   5.471   6.666   9.705 -0.8430  0.2247  0.4603
  162SOPE   C2918153   5.584   6.477   9.668 -0.1398  0.0534  0.2996
  162SOPE   H9118154   5.604   6.373   9.698  0.4555  0.2092  0.4640
  162SOPE  C21018155   5.635   6.519   9.543 -1.0866  0.5281  0.5853
  162SOPE  H10118156   5.688   6.444   9.481 -4.4333  0.3534 -2.3968
  162SOPE  C21118157   5.628   6.648   9.469  0.7537 -0.3266 -0.6390
  162SOPE  H11R18158   5.615   6.732   9.540  0.5570 -0.2419 -0.7729
  162SOPE  H11S18159   5.530   6.660   9.418  0.4637  0.1441  0.0187
  162SOPE  C21218160   5.752   6.695   9.380  0.0464  0.8092  0.5629
  162SOPE  H12R18161   5.785   6.621   9.303 -0.5514  2.3767 -1.2666
  162SOPE  H12S18162   5.838   6.709   9.449 -1.7914 -1.8595  3.7428
  162SOPE  C21318163   5.715   6.831   9.308 -0.6475  0.3174 -0.1833
  162SOPE  H13R18164   5.720   6.919   9.376 -4.0023  0.0369  0.6091
  162SOPE  H13S18165   5.612   6.820   9.267 -0.2163 -1.8890 -0.8017
  162SOPE  C21418166   5.815   6.849   9.191  0.5224  0.1768 -0.3547
  162SOPE  H14R18167   5.821   6.765   9.119  2.1664  0.4569 -0.5854
  162SOPE  H14S18168   5.915   6.858   9.239 -0.3959  0.3866  1.6639
  162SOPE  C21518169   5.773   6.977   9.114  0.5479 -0.6744  0.0104
  162SOPE  H15R18170   5.757   7.061   9.185 -2.1680 -0.4850 -0.7247
  162SOPE  H15S18171   5.673   6.965   9.068  0.4149  2.7748 -0.9015
  162SOPE  C21618172   5.875   7.022   9.010 -0.3062  1.3765  0.5848
  162SOPE  H16R18173   5.888   6.939   8.937 -1.5371  0.7779  1.0135
  162SOPE  H16S18174   5.978   7.020   9.054 -0.3081 -0.2960  0.5668
  162SOPE  C21718175   5.840   7.150   8.937 -0.0539 -0.0090  0.2417
  162SOPE  H17R18176   5.899   7.157   8.843 -0.8870 -0.1870 -0.3064
  162SOPE  H17S18177   5.882   7.239   8.988  0.0971 -1.5432  2.9943
  162SOPE  C21818178   5.691   7.174   8.901 -0.2303  0.7757  0.3222
  162SOPE  H18R18179   5.626   7.162   8.991 -0.1135  1.5205  0.5092
  162SOPE  H18S18180   5.665   7.086   8.838  0.2371  0.0927  1.0559
  162SOPE  H18T18181   5.672   7.272   8.853 -2.2250  1.7022  2.7828
  162SOPE   C3318182   6.165   6.558  10.103 -0.4857  0.2001 -0.4741
  162SOPE   H3X18183   6.056   6.543  10.091 -0.3532 -3.6572  1.5823
  162SOPE   H3Y18184   6.219   6.461  10.109 -2.5425 -0.9152  1.5748
  162SOPE   C3418185   6.218   6.613   9.966 -0.3864 -0.5705  0.1732
  162SOPE   H4X18186   6.325   6.593   9.945 -1.0179 -3.4057 -0.9661
  162SOPE   H4Y18187   6.187   6.719   9.971 -2.3936 -1.1199  0.2541
  162SOPE   C3518188   6.134   6.545   9.851  0.4074  0.1889  0.6303
  162SOPE   H5X18189   6.028   6.525   9.880 -0.2073  3.6906  1.3035
  162SOPE   H5Y18190   6.178   6.444   9.837 -1.0315 -0.5727  1.2866
  162SOPE   C3618191   6.144   6.624   9.722  0.3505 -0.2228  0.5096
  162SOPE   H6X18192   6.248   6.647   9.689 -0.2402  0.6809 -0.8389
  162SOPE   H6Y18193   6.111   6.729   9.733  2.2090  0.1643  3.4847
  162SOPE   C3718194   6.076   6.552   9.598 -0.1683 -0.2850  0.3300
  162SOPE   H7X18195   5.967   6.573   9.603 -0.2109 -0.7271  1.9188
  162SOPE   H7Y18196   6.088   6.443   9.582  2.0384 -0.1432  0.6849
  162SOPE   C3818197   6.137   6.607   9.470 -0.6208  0.6565  0.5174
  162SOPE   H8X18198   6.246   6.623   9.483 -0.1362 -0.1726 -2.0159
  162SOPE   H8Y18199   6.090   6.706   9.454 -0.6151  0.1891 -3.2658
  162SOPE   C3918200   6.108   6.530   9.338  0.3925 -0.2415 -0.6539
  162SOPE   H9X18201   6.005   6.488   9.342  0.3613 -0.0623  1.6641
  162SOPE   H9Y18202   6.178   6.444   9.349  1.0309  0.4215  0.7467
  162SOPE  C31018203   6.130   6.620   9.217  0.1535  0.4715  0.2101
  162SOPE  H10X18204   6.226   6.675   9.228  0.4841 -0.0002 -0.2666
  162SOPE  H10Y18205   6.059   6.705   9.202  0.2979  0.5805  0.1422
  162SOPE  C31118206   6.140   6.554   9.080  1.0430 -0.1158  0.5535
  162SOPE  H11X18207   6.043   6.501   9.067  1.3581 -0.7100  0.5592
  162SOPE  H11Y18208   6.215   6.471   9.087  0.2386 -0.9215 -0.2018
  162SOPE  C31218209   6.164   6.648   8.957  0.2464  0.2454  0.9343
  162SOPE  H12X18210   6.262   6.695   8.978  1.7646 -2.1996 -0.3351
  162SOPE  H12Y18211   6.082   6.722   8.944  1.3130  1.3129  0.0602
  162SOPE  C31318212   6.171   6.570   8.825 -0.1994 -0.5659  0.1070
  162SOPE  H13X18213   6.090   6.494   8.826 -1.0939  0.3315 -0.9594
  162SOPE  H13Y18214   6.267   6.516   8.808 -0.3197  0.1285 -3.4096
  162SOPE  C31418215   6.141   6.653   8.697  0.3592  0.0635 -0.1056
  162SOPE  H14X18216   6.056   6.724   8.705  0.0222 -0.3417 -0.0678
  162SOPE  H14Y18217   6.122   6.570   8.626 -2.2808 -3.2441  3.9590
  162SOPE  C31518218   6.263   6.729   8.647  0.4330  0.0371  0.1648
  162SOPE  H15X18219   6.351   6.661   8.654  0.3086  0.0508  3.1584
  162SOPE  H15Y18220   6.290   6.815   8.711 -0.0419  2.0820 -2.1982
  162SOPE  C31618221   6.258   6.780   8.504 -0.1584  0.0632 -1.1995
  162SOPE  H16X18222   6.355   6.825   8.473 -0.3258 -0.6734 -2.8894
  162SOPE  H16Y18223   6.182   6.860   8.491 -0.3432 -0.3044 -2.4590
  162SOPE  C31718224   6.205   6.692   8.400  0.0838  1.4791 -0.1114
  162SOPE  H17X18225   6.101   6.666   8.430  1.2234 -2.5607  0.8778
  162SOPE  H17Y18226   6.251   6.591   8.410 -3.4548 -0.2407  0.3285
  162SOPE  C31818227   6.196   6.746   8.258  0.4134  0.4137 -0.0318
  162SOPE  H18X18228   6.149   6.668   8.195  0.6229  0.7606 -0.6301
  162SOPE  H18Y18229   6.291   6.757   8.201 -1.2571  0.2843 -3.0019
  162SOPE  H18Z18230   6.138   6.841   8.251  0.3049  0.2856 -0.9166
  163SOPE     N18231   1.144   3.334  10.916 -0.4062  0.2047 -0.0318
  163SOPE   HN118232   1.047   3.312  10.949 -0.7747 -0.3598 -1.4317
  163SOPE   HN218233   1.146   3.292  10.821  0.9273 -2.6495  1.1376
  163SOPE   HN318234   1.218   3.281  10.967 -0.2903  1.2254  0.8996
  163SOPE   C1218235   1.161   3.483  10.925  0.0759  0.1070  0.4718
  163SOPE  H12A18236   1.135   3.507  11.030 -1.4390 -0.2831  0.2091
  163SOPE  H12B18237   1.083   3.525  10.858  0.1572 -0.2992  0.1127
  163SOPE   C1118238   1.310   3.518  10.909 -0.3472  0.8308 -0.8755
  163SOPE  H11A18239   1.359   3.492  11.005 -2.6642  0.9966  0.4450
  163SOPE  H11B18240   1.320   3.629  10.913 -0.1338  0.8063 -0.7293
  163SOPE     P18241   1.379   3.514  10.652 -0.0362  0.2288 -0.5254
  163SOPE   O1318242   1.247   3.488  10.590  0.2150  0.0841 -0.1018
  163SOPE   O1418243   1.494   3.454  10.586  0.2658 -0.0594 -0.6075
  163SOPE   O1218244   1.368   3.455  10.798  0.1894  0.1241  0.2942
  163SOPE   O1118245   1.407   3.663  10.678 -0.7415 -0.4684  0.3100
  163SOPE    C118246   1.322   3.776  10.642 -0.0120 -0.4956 -0.1769
  163SOPE    HA18247   1.368   3.874  10.669 -3.6746  1.3395  0.0536
  163SOPE    HB18248   1.243   3.779  10.720 -1.2890  0.5215 -1.4557
  163SOPE    C218249   1.271   3.782  10.497 -0.8883  0.0047  0.1269
  163SOPE    HS18250   1.186   3.711  10.490  1.1065 -2.6512  1.0740
  163SOPE   O2118251   1.374   3.742  10.410 -0.2575 -0.5809  0.0762
  163SOPE   C2118252   1.331   3.696  10.296 -0.2831  0.3609  0.5854
  163SOPE   O2218253   1.215   3.697  10.257 -0.4536 -0.7663 -0.4015
  163SOPE   C2218254   1.441   3.648  10.204  0.6525  0.1415  0.1200
  163SOPE   H2R18255   1.400   3.567  10.140  0.9887  0.8781 -1.0534
  163SOPE   H2S18256   1.525   3.606  10.262  0.7451 -2.0610 -1.4863
  163SOPE    C318257   1.222   3.927  10.448 -1.0707 -0.1990 -0.1561
  163SOPE    HX18258   1.139   3.948  10.519  0.3818 -0.9728  1.8847
  163SOPE    HY18259   1.180   3.919  10.345  1.2462 -1.3477 -1.0956
  163SOPE   O3118260   1.327   4.023  10.460 -0.9862 -0.3712  0.3142
  163SOPE   C3118261   1.285   4.133  10.396 -0.6442  0.2050  0.4679
  163SOPE   O3218262   1.178   4.137  10.333 -0.2653 -0.1971  0.2535
  163SOPE   C3218263   1.382   4.249  10.410  0.6337 -1.0246 -0.1258
  163SOPE   H2X18264   1.488   4.220  10.418  1.4824  0.9385 -2.7428
  163SOPE   H2Y18265   1.357   4.300  10.506  1.8752  0.8140 -0.7275
  163SOPE   C2318266   1.494   3.770  10.132  0.0406 -0.0480  0.3940
  163SOPE   H3R18267   1.592   3.750  10.085 -0.3402 -0.7950 -0.1103
  163SOPE   H3S18268   1.510   3.855  10.201  0.7224 -0.8609  1.2484
  163SOPE   C2418269   1.397   3.796  10.016  0.0492 -0.3270 -0.7347
  163SOPE   H4R18270   1.365   3.713   9.949 -2.1766 -0.4051  0.3184
  163SOPE   H4S18271   1.300   3.813  10.068  0.6898  0.0759  0.3751
  163SOPE   C2518272   1.433   3.909   9.924 -0.8590  0.5003  0.0913
  163SOPE   H5R18273   1.359   3.912   9.841  0.4344 -1.9087 -1.2681
  163SOPE   H5S18274   1.441   3.993   9.996 -0.5018 -0.6354  1.4316
  163SOPE   C2618275   1.582   3.899   9.861 -0.2824 -0.0406  0.0629
  163SOPE   H6R18276   1.655   3.917   9.943  0.0051 -2.7143  0.4636
  163SOPE   H6S18277   1.591   3.792   9.836  0.4278 -0.8812  3.3857
  163SOPE   C2718278   1.606   3.981   9.728  0.3142  0.3264 -0.3740
  163SOPE   H7R18279   1.627   4.084   9.764  1.5113 -0.2882  0.7739
  163SOPE   H7S18280   1.693   3.946   9.669 -1.9458 -0.8171 -3.3230
  163SOPE   C2818281   1.484   3.991   9.627 -0.0858  0.3384  0.2241
  163SOPE   H8R18282   1.404   4.036   9.689 -0.4101 -0.9400  0.7776
  163SOPE   H8S18283   1.513   4.061   9.547 -1.3183  1.8156  1.0223
  163SOPE   C2918284   1.442   3.851   9.577  0.1636  0.4996 -0.1042
  163SOPE   H9118285   1.414   3.785   9.661 -1.5357  0.7579 -0.4509
  163SOPE  C21018286   1.443   3.808   9.452 -0.7297 -0.8818  0.4919
  163SOPE  H10118287   1.415   3.704   9.427  0.5779 -1.2609  0.5201
  163SOPE  C21118288   1.491   3.879   9.334  0.2585  0.1871 -0.1183
  163SOPE  H11R18289   1.548   3.966   9.374 -1.0123  0.5193  1.0419
  163SOPE  H11S18290   1.405   3.926   9.282  2.0003  1.6911 -1.8026
  163SOPE  C21218291   1.576   3.802   9.228  0.0080  1.2068 -0.0361
  163SOPE  H12R18292   1.594   3.869   9.141 -1.5875 -1.6108 -2.7603
  163SOPE  H12S18293   1.518   3.713   9.196  1.5693  0.4546 -0.9237
  163SOPE  C21318294   1.714   3.759   9.288 -0.1874 -0.2979 -1.0690
  163SOPE  H13R18295   1.703   3.687   9.371  1.3791 -0.8653 -1.3259
  163SOPE  H13S18296   1.767   3.849   9.327 -2.4895 -0.1700  2.1361
  163SOPE  C21418297   1.800   3.697   9.169  0.4332  0.6101 -0.4626
  163SOPE  H14R18298   1.772   3.756   9.079 -1.2137 -0.1955 -0.5130
  163SOPE  H14S18299   1.774   3.591   9.147 -1.3027  0.8351  0.3010
  163SOPE  C21518300   1.947   3.700   9.196 -0.5676  0.2930  0.3943
  163SOPE  H15R18301   1.973   3.631   9.279 -1.4957 -0.8056 -0.2043
  163SOPE  H15S18302   1.969   3.804   9.231 -1.4984  0.0232  1.8875
  163SOPE  C21618303   2.041   3.655   9.076  0.1475 -0.2628 -0.1323
  163SOPE  H16R18304   2.011   3.552   9.046 -0.8582 -0.0720  0.1678
  163SOPE  H16S18305   2.147   3.664   9.106 -0.0989 -0.6945  0.9395
  163SOPE  C21718306   2.020   3.747   8.953  0.7774  0.6171  0.1063
  163SOPE  H17R18307   2.037   3.851   8.988 -1.3545  1.7652 -1.9745
  163SOPE  H17S18308   1.915   3.733   8.920  0.8533  2.3621 -0.9514
  163SOPE  C21818309   2.119   3.722   8.834  0.4311  0.6336 -0.4073
  163SOPE  H18R18310   2.112   3.806   8.762  2.4856  0.3813 -0.9778
  163SOPE  H18S18311   2.085   3.635   8.774  1.3753  0.1910 -0.3175
  163SOPE  H18T18312   2.221   3.702   8.874 -0.0290  1.9872  1.5677
  163SOPE   C3318313   1.363   4.353  10.299 -0.0581 -0.4711 -0.0894
  163SOPE   H3X18314   1.424   4.442  10.321  0.0677  0.0813 -2.3658
  163SOPE   H3Y18315   1.258   4.384  10.280  0.2992  2.4702  2.0687
  163SOPE   C3418316   1.402   4.294  10.157 -0.7532  0.4299  0.3200
  163SOPE   H4X18317   1.331   4.212  10.131 -5.8048  3.9400  1.3986
  163SOPE   H4Y18318   1.506   4.255  10.154 -1.3285 -1.1904  0.3744
  163SOPE   C3518319   1.391   4.391  10.041 -0.2612  0.3234 -0.1506
  163SOPE   H5X18320   1.433   4.491  10.061 -2.4406  1.6830 -1.8996
  163SOPE   H5Y18321   1.286   4.404  10.007  0.0974 -0.9359 -1.9043
  163SOPE   C3618322   1.462   4.336   9.921 -0.1112  0.0458 -0.1175
  163SOPE   H6X18323   1.396   4.254   9.884 -0.7911 -0.4038  1.9783
  163SOPE   H6Y18324   1.560   4.293   9.952 -0.8512  0.3025  2.8354
  163SOPE   C3718325   1.460   4.439   9.806  0.6822  0.0025  0.0184
  163SOPE   H7X18326   1.539   4.516   9.802  1.3079 -0.6919 -1.8180
  163SOPE   H7Y18327   1.358   4.482   9.799  2.2444  3.7367 -2.4658
  163SOPE   C3818328   1.482   4.369   9.678 -0.1786 -0.2449  0.5124
  163SOPE   H8X18329   1.422   4.277   9.668 -0.9986  0.2563  0.7621
  163SOPE   H8Y18330   1.589   4.339   9.685  0.1807  0.6080 -0.8719
  163SOPE   C3918331   1.459   4.464   9.554  0.0501 -0.1982  0.7849
  163SOPE   H9X18332   1.511   4.560   9.572 -1.3917  1.4208 -2.7850
  163SOPE   H9Y18333   1.351   4.488   9.543 -0.0405 -0.0446  1.8778
  163SOPE  C31018334   1.512   4.394   9.428  0.2239  0.3331  0.3475
  163SOPE  H10X18335   1.465   4.294   9.418 -0.0193  0.4295  0.5133
  163SOPE  H10Y18336   1.622   4.383   9.432  0.4461  0.4600 -2.9594
  163SOPE  C31118337   1.483   4.481   9.303 -0.1461  0.8509 -0.6855
  163SOPE  H11X18338   1.540   4.576   9.313  0.0172  0.6877  0.0209
  163SOPE  H11Y18339   1.381   4.523   9.291 -0.3888  1.2040  1.9793
  163SOPE  C31218340   1.537   4.418   9.169 -0.0973  0.1170 -0.7225
  163SOPE  H12X18341   1.508   4.312   9.158 -0.5662  0.3905 -2.4020
  163SOPE  H12Y18342   1.648   4.425   9.177 -0.2885  4.8756  1.7095
  163SOPE  C31318343   1.479   4.491   9.057  0.6964 -0.6676  0.5627
  163SOPE  H13X18344   1.494   4.601   9.059 -0.8106 -0.4534  1.6148
  163SOPE  H13Y18345   1.372   4.471   9.079  0.8158 -1.6689  0.2906
  163SOPE  C31418346   1.516   4.436   8.918 -0.1893  0.8426 -0.8382
  163SOPE  H14X18347   1.542   4.329   8.926  0.4663  1.0576  0.1516
  163SOPE  H14Y18348   1.610   4.491   8.894 -1.1997  2.2234 -1.7799
  163SOPE  C31518349   1.411   4.466   8.811  0.1715 -0.3899 -0.5471
  163SOPE  H15X18350   1.403   4.576   8.794 -0.2325 -0.5131 -1.2379
  163SOPE  H15Y18351   1.312   4.433   8.849 -0.0630  1.9546  1.0410
  163SOPE  C31618352   1.462   4.402   8.686 -0.9589 -0.1923  0.1546
  163SOPE  H16X18353   1.491   4.298   8.713 -0.6289  0.3187  1.8640
  163SOPE  H16Y18354   1.559   4.448   8.658 -1.2020 -0.1831 -0.6987
  163SOPE  C31718355   1.361   4.430   8.570  0.1872 -0.3206  0.1977
  163SOPE  H17X18356   1.262   4.385   8.589 -0.7993  1.3628 -0.7319
  163SOPE  H17Y18357   1.409   4.380   8.483  1.7300  0.9568  0.2463
  163SOPE  C31818358   1.342   4.572   8.535  0.2358  0.0332 -0.0052
  163SOPE  H18X18359   1.433   4.633   8.519  0.4828  0.1368  1.6099
  163SOPE  H18Y18360   1.296   4.627   8.620  0.6238  0.2996  0.0370
  163SOPE  H18Z18361   1.273   4.580   8.448 -1.2483  1.9972  1.2569
  164SOPE     N18362   4.580   1.888  10.546  0.2852  0.1935 -0.1945
  164SOPE   HN118363   4.514   1.904  10.625 -0.2334 -0.0130 -0.5806
  164SOPE   HN218364   4.599   1.786  10.553 -2.5898 -0.4388 -0.3206
  164SOPE   HN318365   4.668   1.937  10.573 -1.7049  1.8456  4.1996
  164SOPE   C1218366   4.529   1.914  10.414 -0.0697  0.0207  0.1102
  164SOPE  H12A18367   4.598   1.894  10.329  1.0658 -0.8639  1.2028
  164SOPE  H12B18368   4.505   2.022  10.416 -1.3266 -0.2507  0.4914
  164SOPE   C1118369   4.399   1.828  10.398 -0.7157  0.4459 -0.1458
  164SOPE  H11A18370   4.430   1.722  10.409  0.3548  0.7057 -0.5119
  164SOPE  H11B18371   4.364   1.841  10.293  0.2907 -2.6150 -0.9759
  164SOPE     P18372   4.169   1.790  10.521 -0.0819 -0.0180  0.1663
  164SOPE   O1318373   4.050   1.877  10.547 -0.6090 -0.0503  0.3896
  164SOPE   O1418374   4.193   1.696  10.625 -0.6735  0.5894 -0.1649
  164SOPE   O1218375   4.297   1.872  10.487 -0.1290  0.6192  0.6825
  164SOPE   O1118376   4.145   1.718  10.379 -0.5803 -0.3501 -0.2834
  164SOPE    C118377   4.069   1.595  10.384 -0.4881 -0.5321  0.7214
  164SOPE    HA18378   3.976   1.607  10.444 -1.0219  0.0790 -0.2022
  164SOPE    HB18379   4.133   1.514  10.426  0.2658  0.3881  1.3965
  164SOPE    C218380   4.021   1.544  10.235  0.0488 -0.2298  0.1813
  164SOPE    HS18381   4.111   1.518  10.176 -0.3249  0.6094 -0.7729
  164SOPE   O2118382   3.941   1.652  10.186 -0.1344 -0.2814 -0.0734
  164SOPE   C2118383   3.983   1.711  10.070 -0.3823 -0.0273  0.5741
  164SOPE   O2218384   4.068   1.670   9.999 -0.6799  0.2729  0.0759
  164SOPE   C2218385   3.909   1.842  10.038  0.1531 -0.4146 -0.4586
  164SOPE   H2R18386   3.921   1.917  10.119 -1.3345 -0.4391 -0.1863
  164SOPE   H2S18387   3.803   1.818  10.011  0.2184 -0.2815 -0.8420
  164SOPE    C318388   3.929   1.422  10.220 -1.0176  0.0028 -1.4035
  164SOPE    HX18389   3.833   1.430  10.275  0.7550  1.5005  1.7164
  164SOPE    HY18390   3.974   1.332  10.268 -2.7134 -1.4026 -2.3104
  164SOPE   O3118391   3.904   1.401  10.075  0.2676 -0.4567 -0.0034
  164SOPE   C3118392   3.998   1.348   9.996  0.2430 -0.3317 -0.3438
  164SOPE   O3218393   4.102   1.311  10.041  0.1073  1.1563  0.3763
  164SOPE   C3218394   3.961   1.334   9.848  0.4913  0.6194 -0.1911
  164SOPE   H2X18395   3.861   1.377   9.826  1.6943  2.6042 -2.3577
  164SOPE   H2Y18396   3.945   1.225   9.837 -1.4142  0.4455  3.1926
  164SOPE   C2318397   3.968   1.900   9.908  0.1238 -1.3343 -0.4042
  164SOPE   H3R18398   4.077   1.882   9.896  0.5140 -0.2900  1.2166
  164SOPE   H3S18399   3.961   2.011   9.916  1.9648 -0.9598 -2.8033
  164SOPE   C2418400   3.893   1.854   9.785  0.5553  0.3755 -0.2550
  164SOPE   H4R18401   3.908   1.745   9.771  1.6824  0.6866 -1.6828
  164SOPE   H4S18402   3.787   1.880   9.807  0.4326  1.6865 -2.1557
  164SOPE   C2518403   3.931   1.914   9.650  0.1177 -0.4605  0.1427
  164SOPE   H5R18404   3.910   2.023   9.654 -0.6211 -0.6098  0.6669
  164SOPE   H5S18405   4.039   1.888   9.639 -0.0474 -1.8189  1.3851
  164SOPE   C2618406   3.849   1.842   9.536 -1.0699 -0.4812 -0.1807
  164SOPE   H6R18407   3.851   1.732   9.551 -1.2991 -0.3904  0.5690
  164SOPE   H6S18408   3.742   1.868   9.548 -1.1951 -1.5226  1.3256
  164SOPE   C2718409   3.904   1.877   9.396  0.9081  0.0132 -0.3642
  164SOPE   H7R18410   3.920   1.986   9.382  1.3461  0.2329  1.5612
  164SOPE   H7S18411   4.004   1.829   9.394  0.0518 -1.8788 -2.6455
  164SOPE   C2818412   3.826   1.799   9.282  0.2303  0.6405 -0.0061
  164SOPE   H8R18413   3.823   1.696   9.323  0.8051  0.7498  0.3313
  164SOPE   H8S18414   3.722   1.838   9.288 -0.5113 -0.9752 -1.5038
  164SOPE   C2918415   3.902   1.807   9.151  0.7645  0.4817  0.1837
  164SOPE   H9118416   3.951   1.903   9.128  0.8716  1.3156  3.3793
  164SOPE  C21018417   3.923   1.709   9.068 -0.6709  0.0270  0.4761
  164SOPE  H10118418   3.985   1.724   8.978  1.1114 -1.1832  1.4438
  164SOPE  C21118419   3.861   1.571   9.088 -0.0061 -0.3696  0.0468
  164SOPE  H11R18420   3.768   1.579   9.148  1.1196  1.3892  1.6676
  164SOPE  H11S18421   3.941   1.520   9.146  0.6855 -2.4631 -2.5495
  164SOPE  C21218422   3.830   1.497   8.959  0.8416  0.5793 -0.4303
  164SOPE  H12R18423   3.757   1.557   8.901 -0.6995  0.0332  0.8837
  164SOPE  H12S18424   3.776   1.402   8.974  2.0600 -0.7503 -3.5039
  164SOPE  C21318425   3.956   1.475   8.862  0.1051 -0.7662  0.0744
  164SOPE  H13R18426   4.028   1.407   8.913  1.0701  0.2179  0.0663
  164SOPE  H13S18427   4.022   1.564   8.860  0.2358 -0.8276  1.2144
  164SOPE  C21418428   3.921   1.427   8.726  0.0913 -0.2707  0.2729
  164SOPE  H14R18429   3.854   1.502   8.678 -1.4583 -0.8348  1.4726
  164SOPE  H14S18430   3.874   1.327   8.725  0.2153 -0.3440 -1.2467
  164SOPE  C21518431   4.051   1.401   8.644 -0.7111 -0.2085 -0.0717
  164SOPE  H15R18432   4.125   1.338   8.698  0.3355  0.8804 -0.2001
  164SOPE  H15S18433   4.097   1.500   8.624 -1.6952  0.7251  1.9731
  164SOPE  C21618434   4.021   1.332   8.514  0.5214 -0.0283  0.1857
  164SOPE  H16R18435   3.929   1.373   8.467  0.0991 -0.6454  0.4630
  164SOPE  H16S18436   4.011   1.223   8.531  0.2325 -0.2344 -1.1856
  164SOPE  C21718437   4.137   1.342   8.417 -0.6640  0.0958  0.0846
  164SOPE  H17R18438   4.143   1.453   8.407  1.8371  0.0982  0.9286
  164SOPE  H17S18439   4.113   1.285   8.326 -0.8582  1.3822 -0.7014
  164SOPE  C21818440   4.274   1.301   8.476 -0.5883 -0.4996 -0.3338
  164SOPE  H18R18441   4.315   1.371   8.551  1.4994 -0.3439 -1.5256
  164SOPE  H18S18442   4.341   1.302   8.387 -1.5758  3.3883 -1.2180
  164SOPE  H18T18443   4.277   1.198   8.517  0.2115 -0.0192  0.8458
  164SOPE   C3318444   4.052   1.389   9.737 -0.2216 -0.5144  0.8841
  164SOPE   H3X18445   4.158   1.368   9.759  0.0401  1.9416  2.3465
  164SOPE   H3Y18446   4.054   1.501   9.740  2.1036 -0.4913  0.2224
  164SOPE   C3418447   4.004   1.345   9.603  0.2817  0.3374  1.0255
  164SOPE   H4X18448   3.900   1.377   9.580  0.0749 -1.1155 -0.2452
  164SOPE   H4Y18449   3.998   1.234   9.607 -1.4617  0.4229  1.6668
  164SOPE   C3518450   4.106   1.376   9.501  0.0574  0.1036  0.2425
  164SOPE   H5X18451   4.201   1.318   9.502  1.5488  2.4186  0.9633
  164SOPE   H5Y18452   4.137   1.482   9.512 -1.2237  0.3752  1.3868
  164SOPE   C3618453   4.048   1.367   9.357 -0.5007 -0.5472  0.1511
  164SOPE   H6X18454   4.121   1.427   9.298 -0.2458  0.2676  1.2597
  164SOPE   H6Y18455   3.947   1.411   9.365  0.0760  0.5625  1.9755
  164SOPE   C3718456   4.040   1.226   9.301 -0.0328  0.0213 -0.0695
  164SOPE   H7X18457   3.981   1.157   9.366  0.2291  0.8400  1.0645
  164SOPE   H7Y18458   4.140   1.177   9.306  1.6495  3.1727 -0.0870
  164SOPE   C3818459   3.997   1.218   9.162 -0.7743  0.8718  0.2048
  164SOPE   H8X18460   4.069   1.278   9.102 -0.9901  1.0630  0.1330
  164SOPE   H8Y18461   3.896   1.263   9.153 -1.2841 -0.4264 -0.9031
  164SOPE   C3918462   3.990   1.077   9.101  0.1298 -0.1984 -0.0197
  164SOPE   H9X18463   3.934   1.022   9.179 -1.0627 -0.6255 -1.1398
  164SOPE   H9Y18464   4.093   1.036   9.093  0.6327  1.2801 -2.2033
  164SOPE  C31018465   3.917   1.074   8.966  0.3566  0.1800 -0.0283
  164SOPE  H10X18466   3.959   1.128   8.879 -3.0062  1.9192 -0.7396
  164SOPE  H10Y18467   3.823   1.131   8.978 -0.2761  0.2935 -4.2943
  164SOPE  C31118468   3.894   0.932   8.932  0.3864 -0.4412  0.1966
  164SOPE  H11X18469   3.913   0.875   9.025 -0.8497 -0.5205  0.4193
  164SOPE  H11Y18470   3.973   0.893   8.864  0.2581  0.2842 -0.3860
  164SOPE  C31218471   3.755   0.912   8.864 -0.2613  0.2284 -0.2103
  164SOPE  H12X18472   3.745   0.999   8.795  2.8658  0.7847 -0.0804
  164SOPE  H12Y18473   3.679   0.921   8.945  0.8606 -0.3155  0.9384
  164SOPE  C31318474   3.736   0.788   8.783  0.9985 -0.7611 -0.3013
  164SOPE  H13X18475   3.770   0.698   8.837  1.6014 -0.2489  0.1892
  164SOPE  H13Y18476   3.791   0.804   8.688 -0.5346 -1.5436 -1.3617
  164SOPE  C31418477   3.587   0.784   8.744  0.0090  1.2396 -0.1758
  164SOPE  H14X18478   3.545   0.870   8.687  1.1260  2.2457  0.4585
  164SOPE  H14Y18479   3.531   0.779   8.840 -0.9813 -2.2408 -0.8103
  164SOPE  C31518480   3.553   0.663   8.651 -0.2598 -0.0018  0.3963
  164SOPE  H15X18481   3.455   0.618   8.678 -0.1117 -0.0922  0.7961
  164SOPE  H15Y18482   3.622   0.580   8.680 -0.8094 -0.0082  1.7609
  164SOPE  C31618483   3.553   0.706   8.504 -0.1075  0.6548 -0.8678
  164SOPE  H16X18484   3.661   0.720   8.482  0.3431  2.3665  1.9977
  164SOPE  H16Y18485   3.501   0.801   8.479  1.0330  2.1232  1.9352
  164SOPE  C31718486   3.504   0.590   8.417  0.3679  0.3209 -0.8023
  164SOPE  H17X18487   3.413   0.549   8.466  1.8186 -1.4241  0.6019
  164SOPE  H17Y18488   3.586   0.515   8.413  2.5399  2.4289  1.1534
  164SOPE  C31818489   3.465   0.631   8.278 -0.5889 -0.1962  0.2358
  164SOPE  H18X18490   3.369   0.688   8.283 -1.2992 -1.4102  0.9188
  164SOPE  H18Y18491   3.447   0.536   8.223  1.7730 -1.5493  1.6576
  164SOPE  H18Z18492   3.546   0.681   8.221  0.8143 -3.6644 -1.0354
  165SOPE     N18493   2.413   2.206  10.591  0.5508 -0.1194  0.2742
  165SOPE   HN118494   2.425   2.283  10.522  4.1085 -1.3807 -0.7319
  165SOPE   HN218495   2.313   2.195  10.617  0.3667  0.9454  0.0433
  165SOPE   HN318496   2.472   2.220  10.676 -0.2146  2.6838  0.4502
  165SOPE   C1218497   2.465   2.087  10.518  0.2480  0.7620 -0.3203
  165SOPE  H12A18498   2.384   2.028  10.470  2.4551 -2.3093 -0.6158
  165SOPE  H12B18499   2.513   2.023  10.595  1.3908 -0.2486 -1.8165
  165SOPE   C1118500   2.575   2.135  10.420  0.3013 -0.0949 -0.3287
  165SOPE  H11A18501   2.523   2.212  10.359  1.3360  0.5485 -0.4159
  165SOPE  H11B18502   2.613   2.061  10.346  3.4896  1.1060 -0.0182
  165SOPE     P18503   2.791   2.114  10.548  0.0402 -0.0056 -0.0252
  165SOPE   O1318504   2.797   1.984  10.485  0.4259  0.4736 -0.9368
  165SOPE   O1418505   2.797   2.119  10.696 -0.0499 -0.0803  0.4114
  165SOPE   O1218506   2.671   2.204  10.505  0.0084  0.0456  0.4528
  165SOPE   O1118507   2.913   2.201  10.496 -0.8526  0.1861 -0.2904
  165SOPE    C118508   2.923   2.341  10.485  0.4871  0.9686  0.4024
  165SOPE    HA18509   3.030   2.369  10.480  0.6479  0.4676  0.9542
  165SOPE    HB18510   2.889   2.382  10.583  1.0834  0.3107  0.8925
  165SOPE    C218511   2.850   2.406  10.366 -0.1710  0.3125 -0.0452
  165SOPE    HS18512   2.745   2.422  10.399 -1.0943 -0.9010 -2.1463
  165SOPE   O2118513   2.852   2.327  10.243 -0.2820 -0.0235  0.7517
  165SOPE   C2118514   2.747   2.328  10.158 -0.2184 -0.3110 -0.4223
  165SOPE   O2218515   2.637   2.378  10.180 -0.5480 -0.7236  0.1515
  165SOPE   C2218516   2.779   2.239  10.033  0.0979 -0.1901 -0.3247
  165SOPE   H2R18517   2.700   2.243   9.956 -0.2748 -0.6927  0.0245
  165SOPE   H2S18518   2.790   2.133  10.064  0.4997 -0.6394 -1.9444
  165SOPE    C318519   2.915   2.542  10.333  0.1727  0.4678  0.3110
  165SOPE    HX18520   3.016   2.516  10.294 -0.9235 -0.7565 -1.8856
  165SOPE    HY18521   2.926   2.584  10.435  0.3105  1.0762  0.0481
  165SOPE   O3118522   2.833   2.623  10.249 -0.5823 -0.1110 -0.0023
  165SOPE   C3118523   2.910   2.696  10.170  0.4413  0.1249  0.3601
  165SOPE   O3218524   3.025   2.718  10.185  0.3916 -0.3683  0.7776
  165SOPE   C3218525   2.810   2.753  10.070  0.0765 -0.1138  0.4380
  165SOPE   H2X18526   2.785   2.854  10.110  1.2481  0.2798  0.2272
  165SOPE   H2Y18527   2.720   2.689  10.057 -0.0469  0.0977  0.2258
  165SOPE   C2318528   2.914   2.283   9.978  0.7299  0.2784  0.2674
  165SOPE   H3R18529   2.997   2.233  10.031 -0.3368 -3.0266 -0.9428
  165SOPE   H3S18530   2.921   2.394   9.981 -0.3124  0.3923 -0.8088
  165SOPE   C2418531   2.926   2.240   9.836  0.2359 -0.2246 -0.4284
  165SOPE   H4R18532   2.941   2.131   9.829 -0.9278 -0.4231 -0.0784
  165SOPE   H4S18533   2.835   2.259   9.775 -1.5174 -3.0332  1.0706
  165SOPE   C2518534   3.035   2.311   9.756 -0.0923 -0.2082  0.0841
  165SOPE   H5R18535   3.017   2.421   9.761  0.4964 -0.0444 -1.0391
  165SOPE   H5S18536   3.136   2.294   9.798 -0.3749 -0.5575  0.6225
  165SOPE   C2618537   3.030   2.273   9.609 -0.2010  0.1813 -0.5810
  165SOPE   H6R18538   3.038   2.163   9.601  2.2986 -0.1574  3.7409
  165SOPE   H6S18539   2.937   2.301   9.556 -1.2851 -0.7083  0.8143
  165SOPE   C2718540   3.136   2.330   9.515  0.2338 -0.3821 -0.0866
  165SOPE   H7R18541   3.116   2.439   9.505  1.5656 -0.1429 -0.3327
  165SOPE   H7S18542   3.240   2.326   9.554 -0.4167  0.1793  1.7808
  165SOPE   C2818543   3.127   2.257   9.374  0.1655  0.2773 -0.0969
  165SOPE   H8R18544   3.135   2.147   9.376 -0.6714  0.1090 -2.6946
  165SOPE   H8S18545   3.025   2.273   9.334 -0.5953 -0.7445  1.3442
  165SOPE   C2918546   3.240   2.307   9.289 -0.1316  0.0963  0.7011
  165SOPE   H9118547   3.339   2.307   9.336  0.4451 -1.7129 -0.4019
  165SOPE  C21018548   3.233   2.352   9.163 -0.4403  0.1827 -0.4982
  165SOPE  H10118549   3.326   2.388   9.117 -0.9072  0.9035 -0.9017
  165SOPE  C21118550   3.106   2.356   9.083  0.0296 -0.4079  0.3858
  165SOPE  H11R18551   3.060   2.456   9.095 -0.4794  0.0472 -3.6824
  165SOPE  H11S18552   3.024   2.288   9.115 -0.8706  0.5416  0.1361
  165SOPE  C21218553   3.135   2.328   8.936 -0.0774  0.3432  0.2766
  165SOPE  H12R18554   3.134   2.218   8.922 -0.7874  0.5406 -1.6555
  165SOPE  H12S18555   3.236   2.368   8.916 -0.1457  1.0941  1.3826
  165SOPE  C21318556   3.038   2.390   8.838  0.0456  0.0321  0.1709
  165SOPE  H13R18557   3.040   2.498   8.862 -0.5574  0.2151 -0.6046
  165SOPE  H13S18558   2.934   2.353   8.847 -1.2422  2.3034 -3.5474
  165SOPE  C21418559   3.079   2.362   8.692 -0.0975 -0.1425 -0.7775
  165SOPE  H14R18560   3.089   2.253   8.672 -0.6074 -0.5447  1.0093
  165SOPE  H14S18561   3.183   2.398   8.674  0.3845 -0.9500  0.2485
  165SOPE  C21518562   2.977   2.430   8.600 -0.6015  0.1191  0.0475
  165SOPE  H15R18563   3.017   2.445   8.498  1.4565 -0.9672  0.6381
  165SOPE  H15S18564   2.956   2.530   8.644 -1.4595  0.2819 -0.7135
  165SOPE  C21618565   2.849   2.346   8.592 -0.1954 -0.2402  0.8901
  165SOPE  H16R18566   2.809   2.325   8.693 -0.0659  0.1093  1.0112
  165SOPE  H16S18567   2.863   2.247   8.543  1.6833  0.6292 -0.4629
  165SOPE  C21718568   2.744   2.422   8.512  0.2760 -0.9399  0.4065
  165SOPE  H17R18569   2.734   2.528   8.543 -2.0450 -0.9931  0.0222
  165SOPE  H17S18570   2.643   2.376   8.517  0.3293 -1.2513 -0.9213
  165SOPE  C21818571   2.765   2.428   8.357 -0.0572 -0.0683  0.2400
  165SOPE  H18R18572   2.695   2.506   8.320 -2.5164 -1.5312  1.5448
  165SOPE  H18S18573   2.741   2.329   8.312 -2.3532  1.1405 -1.3387
  165SOPE  H18T18574   2.870   2.457   8.334  0.9200 -1.7581  2.1829
  165SOPE   C3318575   2.879   2.782   9.927 -0.0083 -0.4459 -0.7669
  165SOPE   H3X18576   2.933   2.690   9.895 -0.6115 -2.5094  3.3697
  165SOPE   H3Y18577   2.948   2.868   9.924  0.4061 -0.7997 -2.0957
  165SOPE   C3418578   2.772   2.801   9.816 -0.4238 -0.2629 -0.2478
  165SOPE   H4X18579   2.792   2.904   9.780  0.3525 -0.3547 -0.0974
  165SOPE   H4Y18580   2.671   2.803   9.863  0.3797  2.0642  1.5848
  165SOPE   C3518581   2.788   2.706   9.698  0.3244 -0.3731  0.1402
  165SOPE   H5X18582   2.688   2.686   9.655  1.2199 -1.0875 -1.7201
  165SOPE   H5Y18583   2.818   2.604   9.732 -1.9094 -1.4677 -0.9740
  165SOPE   C3618584   2.866   2.769   9.581  0.6839  0.1140 -0.1505
  165SOPE   H6X18585   2.966   2.785   9.626  1.0495 -1.3114 -0.4037
  165SOPE   H6Y18586   2.809   2.861   9.554  1.3778  0.1082 -1.7419
  165SOPE   C3718587   2.877   2.655   9.479  0.1405 -0.4955  0.4481
  165SOPE   H7X18588   2.780   2.638   9.429  1.1190 -4.7288 -0.3866
  165SOPE   H7Y18589   2.912   2.566   9.536  0.3948 -1.3585 -1.0141
  165SOPE   C3818590   2.992   2.679   9.386 -0.3070  0.4199  0.3521
  165SOPE   H8X18591   2.998   2.585   9.327  1.0684  1.4889 -1.2915
  165SOPE   H8Y18592   3.087   2.677   9.443 -0.4678  0.2825  0.6175
  165SOPE   C3918593   2.992   2.807   9.303 -0.2825  0.2006  0.4042
  165SOPE   H9X18594   2.957   2.889   9.369 -1.2058  0.9835 -0.9936
  165SOPE   H9Y18595   2.926   2.790   9.215 -0.3046 -0.4262  0.5430
  165SOPE  C31018596   3.137   2.847   9.252  0.0064  0.0666  0.1091
  165SOPE  H10X18597   3.173   2.755   9.200  0.9743  0.0519  0.7746
  165SOPE  H10Y18598   3.212   2.862   9.332 -2.0775  1.4079  1.9295
  165SOPE  C31118599   3.131   2.974   9.167  0.1643  0.3688 -0.2124
  165SOPE  H11X18600   3.108   3.052   9.242  1.8148 -0.2615  1.0120
  165SOPE  H11Y18601   3.066   2.984   9.078 -0.3468 -1.6414 -0.1033
  165SOPE  C31218602   3.273   3.001   9.107  0.3566  0.0643  0.5705
  165SOPE  H12X18603   3.284   2.906   9.050 -2.1238 -0.2314  0.5121
  165SOPE  H12Y18604   3.347   3.008   9.190 -0.6128 -2.2882  1.7268
  165SOPE  C31318605   3.279   3.122   9.013 -0.2980 -1.1274 -0.3833
  165SOPE  H13X18606   3.245   3.203   9.080  1.7495 -1.5484  1.2632
  165SOPE  H13Y18607   3.215   3.100   8.925  1.5846 -2.4553 -1.5133
  165SOPE  C31418608   3.422   3.162   8.976  0.3204  0.4834  0.2342
  165SOPE  H14X18609   3.465   3.229   9.053  0.5078  1.2927 -0.5660
  165SOPE  H14Y18610   3.426   3.214   8.878  2.6939 -0.0965 -0.0194
  165SOPE  C31518611   3.520   3.035   8.960  0.1108 -0.9541 -0.1131
  165SOPE  H15X18612   3.470   2.964   8.890  0.2639 -1.6675  0.4982
  165SOPE  H15Y18613   3.521   2.986   9.059 -0.9123 -1.3569 -0.2824
  165SOPE  C31618614   3.653   3.072   8.907  0.5671  0.4020 -0.5435
  165SOPE  H16X18615   3.646   3.133   8.815  1.5495 -2.3812 -2.6303
  165SOPE  H16Y18616   3.689   2.972   8.872 -1.6407 -0.6329 -0.0355
  165SOPE  C31718617   3.750   3.134   8.999 -0.4588 -0.9394  0.3453
  165SOPE  H17X18618   3.800   3.066   9.072  0.1171 -1.6420 -0.6814
  165SOPE  H17Y18619   3.699   3.214   9.057 -1.3303 -1.0383 -0.2863
  165SOPE  C31818620   3.862   3.186   8.909  0.0433 -0.0044  0.0956
  165SOPE  H18X18621   3.924   3.101   8.875  0.4051 -0.4441  1.7867
  165SOPE  H18Y18622   3.938   3.239   8.970 -1.6441  0.8614  1.5549
  165SOPE  H18Z18623   3.817   3.253   8.832 -2.3674 -1.5201  0.0937
  166SOPE     N18624   5.192   3.339  11.009 -0.5862  0.1047  0.5245
  166SOPE   HN118625   5.090   3.357  11.004 -0.0727  3.1753 -0.4426
  166SOPE   HN218626   5.215   3.252  10.956 -1.4936 -0.1088  0.4772
  166SOPE   HN318627   5.211   3.326  11.111 -3.4357 -0.0448  1.1018
  166SOPE   C1218628   5.252   3.466  10.947  0.5213  0.1326 -0.3100
  166SOPE  H12A18629   5.362   3.454  10.952  0.5584  0.7953  0.7080
  166SOPE  H12B18630   5.216   3.550  11.011 -4.3522 -1.6699 -0.2077
  166SOPE   C1118631   5.194   3.496  10.810  0.3116  0.0763  0.5884
  166SOPE  H11A18632   5.239   3.594  10.785 -3.4092  2.1224  1.2873
  166SOPE  H11B18633   5.085   3.511  10.822  0.0449 -0.6968 -0.6947
  166SOPE     P18634   5.107   3.324  10.639 -0.4957 -0.0685 -0.1242
  166SOPE   O1318635   5.008   3.281  10.738 -0.3644 -0.2545 -0.0766
  166SOPE   O1418636   5.166   3.220  10.549 -0.4608  0.1157  0.4711
  166SOPE   O1218637   5.226   3.393  10.719 -0.0308  0.6027  0.5264
  166SOPE   O1118638   5.057   3.446  10.554  0.0897 -0.1801  0.0817
  166SOPE    C118639   5.155   3.533  10.500 -0.1778 -0.2259  1.1121
  166SOPE    HA18640   5.254   3.481  10.494 -1.7735 -3.4874  0.6491
  166SOPE    HB18641   5.155   3.621  10.567 -1.5883 -0.6938  1.7563
  166SOPE    C218642   5.123   3.589  10.359  0.1652  0.0187 -0.2025
  166SOPE    HS18643   5.024   3.639  10.354  0.7142  1.2046  0.4022
  166SOPE   O2118644   5.135   3.481  10.259 -0.2649 -0.1042  0.4053
  166SOPE   C2118645   5.021   3.432  10.219 -0.1645  0.2221 -0.1489
  166SOPE   O2218646   4.910   3.467  10.251 -0.1318  0.2698  0.3328
  166SOPE   C2218647   5.043   3.326  10.111 -1.0802 -0.5918  0.3678
  166SOPE   H2R18648   4.947   3.323  10.055 -0.3363 -0.7118 -0.9322
  166SOPE   H2S18649   5.068   3.232  10.165 -1.3336 -0.5393  0.5811
  166SOPE    C318650   5.222   3.698  10.321 -0.3769  0.6853 -0.2399
  166SOPE    HX18651   5.321   3.650  10.328 -0.5424  0.4611  0.8535
  166SOPE    HY18652   5.224   3.778  10.398  2.0019  1.1259 -0.6743
  166SOPE   O3118653   5.189   3.767  10.197 -0.0157  0.1482 -0.2977
  166SOPE   C3118654   5.259   3.722  10.089  0.2902  0.2895 -0.5171
  166SOPE   O3218655   5.348   3.639  10.088  0.1837  0.5892  0.0566
  166SOPE   C3218656   5.203   3.792   9.970  0.8293  0.1295 -0.0907
  166SOPE   H2X18657   5.216   3.901   9.987  2.0336  0.5102 -2.9223
  166SOPE   H2Y18658   5.097   3.759   9.972  1.1560 -1.0426 -0.8597
  166SOPE   C2318659   5.149   3.364  10.007 -0.1330 -0.6776 -0.6968
  166SOPE   H3R18660   5.249   3.356  10.056 -1.2668 -0.3576  1.7599
  166SOPE   H3S18661   5.141   3.473   9.991  0.1949  0.0928  3.4157
  166SOPE   C2418662   5.155   3.265   9.891 -0.9938  0.0149 -0.6960
  166SOPE   H4R18663   5.162   3.160   9.925  0.5607  0.3996  0.2459
  166SOPE   H4S18664   5.054   3.262   9.844 -0.6368  0.0606 -1.4735
  166SOPE   C2518665   5.275   3.290   9.800  0.0671 -0.5854  0.0444
  166SOPE   H5R18666   5.267   3.397   9.774  1.5457 -1.0252 -2.5280
  166SOPE   H5S18667   5.364   3.281   9.867  2.3182 -1.1454 -2.8138
  166SOPE   C2618668   5.283   3.195   9.685  0.1930  0.0932  0.1020
  166SOPE   H6R18669   5.254   3.091   9.712  1.0331 -1.0191 -2.8410
  166SOPE   H6S18670   5.204   3.225   9.613  1.1590  1.0818 -0.5860
  166SOPE   C2718671   5.414   3.191   9.613 -0.4144 -0.5696  0.1845
  166SOPE   H7R18672   5.443   3.293   9.580  1.3109 -1.2820 -0.6254
  166SOPE   H7S18673   5.495   3.165   9.684  1.1009  1.2809 -0.7865
  166SOPE   C2818674   5.416   3.099   9.493 -0.4559 -0.1384 -0.6409
  166SOPE   H8R18675   5.326   3.130   9.437 -1.0228  1.5346  1.0475
  166SOPE   H8S18676   5.502   3.119   9.426 -1.2956 -0.5746 -1.8714
  166SOPE   C2918677   5.416   2.955   9.519 -0.0294  0.5685  0.0843
  166SOPE   H9118678   5.323   2.927   9.571 -1.4387  2.5125 -1.2393
  166SOPE  C21018679   5.514   2.861   9.496 -0.7271  0.4174 -0.0939
  166SOPE  H10118680   5.489   2.756   9.520 -0.1425  0.4822  0.8590
  166SOPE  C21118681   5.648   2.884   9.438  0.3859  0.1174  0.2959
  166SOPE  H11R18682   5.727   2.817   9.477  1.1742  0.6684 -0.3132
  166SOPE  H11S18683   5.693   2.983   9.458  1.5077 -0.4830  0.8258
  166SOPE  C21218684   5.635   2.858   9.284  0.4481  0.4029 -0.0447
  166SOPE  H12R18685   5.570   2.942   9.253  2.1696  2.3023  1.2264
  166SOPE  H12S18686   5.593   2.759   9.257 -0.6486  0.4676  1.2681
  166SOPE  C21318687   5.769   2.894   9.211  0.1740  0.4387 -0.0590
  166SOPE  H13R18688   5.807   2.971   9.282 -1.6330  0.2375  1.1812
  166SOPE  H13S18689   5.764   2.929   9.106  0.2834 -0.5178 -0.3897
  166SOPE  C21418690   5.867   2.770   9.216 -0.1381 -0.0396 -0.2306
  166SOPE  H14R18691   5.842   2.699   9.134  0.4520  0.5566 -0.9439
  166SOPE  H14S18692   5.856   2.721   9.316 -5.4116  2.3183  0.6561
  166SOPE  C21518693   6.009   2.824   9.187 -0.0745 -0.1898  0.1376
  166SOPE  H15R18694   6.044   2.869   9.282  0.7978 -1.2514  0.3346
  166SOPE  H15S18695   6.009   2.900   9.106 -2.3496 -0.3798 -0.1067
  166SOPE  C21618696   6.110   2.721   9.145 -0.1477  0.3615  0.1213
  166SOPE  H16R18697   6.055   2.639   9.093 -1.5203  1.8998 -0.9361
  166SOPE  H16S18698   6.155   2.680   9.238  0.6891  0.6181 -0.1539
  166SOPE  C21718699   6.227   2.774   9.060  0.9173 -0.4208 -0.4306
  166SOPE  H17R18700   6.259   2.864   9.117 -0.4144 -0.5141  0.5332
  166SOPE  H17S18701   6.209   2.796   8.953  0.4664  1.1603 -0.0631
  166SOPE  C21818702   6.342   2.667   9.064  0.2636 -0.3107  0.0952
  166SOPE  H18R18703   6.439   2.696   9.019 -0.1604  0.6022 -0.2546
  166SOPE  H18S18704   6.315   2.567   9.023  2.4700 -0.0135 -2.3124
  166SOPE  H18T18705   6.376   2.661   9.170  0.9898 -0.1490 -0.1257
  166SOPE   C3318706   5.267   3.731   9.843 -0.0222 -0.3114 -0.0614
  166SOPE   H3X18707   5.267   3.620   9.838  0.5297 -0.4238  1.9111
  166SOPE   H3Y18708   5.376   3.752   9.848 -0.0148 -0.2634 -0.3584
  166SOPE   C3418709   5.209   3.802   9.718  0.3144 -0.9548 -0.3754
  166SOPE   H4X18710   5.217   3.912   9.729 -0.8292 -0.7435 -1.5113
  166SOPE   H4Y18711   5.102   3.774   9.705  0.1699 -1.2991  1.3073
  166SOPE   C3518712   5.279   3.740   9.586 -0.6032  0.1917 -0.0328
  166SOPE   H5X18713   5.248   3.634   9.575 -0.8435  0.0723  1.4769
  166SOPE   H5Y18714   5.389   3.752   9.598 -0.3674 -1.3256 -0.4672
  166SOPE   C3618715   5.233   3.805   9.455 -0.1616  0.1366 -0.0407
  166SOPE   H6X18716   5.269   3.910   9.456  1.4002 -0.3491 -0.9860
  166SOPE   H6Y18717   5.122   3.805   9.459 -0.1480 -1.1087  1.8752
  166SOPE   C3718718   5.313   3.740   9.334  0.3854 -0.5278  0.1005
  166SOPE   H7X18719   5.264   3.791   9.248  0.1394  1.1285  1.1763
  166SOPE   H7Y18720   5.315   3.631   9.316 -1.1886 -0.7442  1.0760
  166SOPE   C3818721   5.456   3.782   9.324 -0.6938  0.3870 -0.0073
  166SOPE   H8X18722   5.513   3.741   9.410 -0.1189 -0.7853 -0.9193
  166SOPE   H8Y18723   5.465   3.892   9.338  0.5741  0.0318  2.7303
  166SOPE   C3918724   5.528   3.734   9.189  0.6229 -0.2995 -0.3328
  166SOPE   H9X18725   5.552   3.626   9.185 -4.9039 -1.8821  0.3665
  166SOPE   H9Y18726   5.628   3.781   9.182  0.1838  0.4138 -2.5844
  166SOPE  C31018727   5.449   3.755   9.053 -0.0645 -0.9535  0.4040
  166SOPE  H10X18728   5.350   3.704   9.058 -0.4419 -0.2401  0.3675
  166SOPE  H10Y18729   5.504   3.724   8.963 -1.1528 -0.6172 -0.3975
  166SOPE  C31118730   5.407   3.903   9.032  0.1606 -0.1090 -0.6081
  166SOPE  H11X18731   5.499   3.962   9.010 -0.6205  0.3851 -2.7881
  166SOPE  H11Y18732   5.353   3.940   9.121  1.2940 -0.0284  0.0662
  166SOPE  C31218733   5.311   3.921   8.909  0.5378 -0.3072 -0.5428
  166SOPE  H12X18734   5.214   3.873   8.935 -0.3261  1.6703  0.0236
  166SOPE  H12Y18735   5.342   3.858   8.823 -2.4206 -4.3091  0.9882
  166SOPE  C31318736   5.281   4.063   8.866 -0.8333  0.6319  0.2081
  166SOPE  H13X18737   5.381   4.110   8.854 -0.9831  0.7356 -0.7949
  166SOPE  H13Y18738   5.230   4.123   8.945 -0.1911  0.0474  1.0778
  166SOPE  C31418739   5.201   4.072   8.736 -0.4522  0.1076 -0.1886
  166SOPE  H14X18740   5.237   3.994   8.667  0.1990 -1.1498  1.5136
  166SOPE  H14Y18741   5.222   4.175   8.697 -0.9112 -0.2374 -1.3893
  166SOPE  C31518742   5.057   4.062   8.747 -0.6228 -0.1286  0.5732
  166SOPE  H15X18743   5.017   4.154   8.796 -0.2336 -0.5644  1.7356
  166SOPE  H15Y18744   5.047   3.973   8.812  1.1544  0.3757  1.6104
  166SOPE  C31618745   4.989   4.030   8.616 -0.7532  0.3075  0.1309
  166SOPE  H16X18746   5.048   3.950   8.567 -0.6957 -1.4881  2.9188
  166SOPE  H16Y18747   5.000   4.126   8.562 -0.7498  0.3231  0.1594
  166SOPE  C31718748   4.841   3.985   8.625  0.0014 -0.6597  1.0063
  166SOPE  H17X18749   4.806   3.980   8.520  1.7800  0.1944  0.3247
  166SOPE  H17Y18750   4.786   4.067   8.676 -0.3784 -0.2433 -0.0578
  166SOPE  C31818751   4.819   3.847   8.685 -0.1369  0.3024 -0.5413
  166SOPE  H18X18752   4.858   3.780   8.605  1.1293  1.7615 -1.1963
  166SOPE  H18Y18753   4.710   3.833   8.698 -0.3713  1.8674 -0.6993
  166SOPE  H18Z18754   4.873   3.842   8.782  0.0301  1.9580 -0.5172
  167SOPE     N18755   0.370   6.849   6.116 -0.3348 -0.0230  0.1657
  167SOPE   HN118756   0.421   6.814   6.199 -0.2604  0.5072  0.3443
  167SOPE   HN218757   0.431   6.827   6.034  0.1615  2.1974 -0.1109
  167SOPE   HN318758   0.367   6.952   6.128 -0.3266  0.1099 -0.8446
  167SOPE   C1218759   0.231   6.799   6.099 -0.4265  0.2947 -0.3354
  167SOPE  H12A18760   0.180   6.815   6.196 -1.6484 -0.7474 -0.7840
  167SOPE  H12B18761   0.242   6.690   6.076  0.7722 -0.4130  3.0040
  167SOPE   C1118762   0.156   6.879   5.989 -0.0690  0.1250  0.3065
  167SOPE  H11A18763   0.051   6.845   6.000  0.9178 -3.4184  0.2414
  167SOPE  H11B18764   0.192   6.842   5.891  1.0205  1.5647  0.1298
  167SOPE     P18765   0.060   7.106   6.068 -0.0138 -0.2858  0.2302
  167SOPE   O1318766  -0.066   7.082   5.991  0.4069  0.5373 -0.0377
  167SOPE   O1418767   0.090   7.252   6.076  0.4972  1.0784 -0.2358
  167SOPE   O1218768   0.173   7.015   6.004 -0.0027  0.2057 -0.7165
  167SOPE   O1118769   0.042   7.048   6.217 -0.4825 -0.5053 -0.2402
  167SOPE    C118770  -0.079   7.044   6.295 -0.0467  0.5050  0.8007
  167SOPE    HA18771  -0.092   6.943   6.337  0.1243  0.9300  1.9021
  167SOPE    HB18772  -0.173   7.058   6.237  0.6318 -2.3575 -1.1996
  167SOPE    C218773  -0.071   7.149   6.408  0.1707 -0.4740  0.1943
  167SOPE    HS18774  -0.066   7.245   6.352  3.2933 -1.1358 -0.9267
  167SOPE   O2118775   0.039   7.112   6.488  0.0686 -0.2151 -0.4129
  167SOPE   C2118776   0.099   7.220   6.525  0.4830 -0.4425  0.3589
  167SOPE   O2218777   0.078   7.330   6.482 -0.3656 -0.2714 -0.3440
  167SOPE   C2218778   0.215   7.196   6.626 -0.5137  0.2817 -0.2085
  167SOPE   H2R18779   0.313   7.214   6.578 -0.9884  0.0643 -1.2800
  167SOPE   H2S18780   0.212   7.092   6.665 -0.6796 -0.0659 -1.1282
  167SOPE    C318781  -0.198   7.156   6.500  0.2588  0.2116 -0.4473
  167SOPE    HX18782  -0.204   7.054   6.544 -1.1597  1.0992  1.5602
  167SOPE    HY18783  -0.290   7.167   6.438  1.2322  1.3971 -1.7685
  167SOPE   O3118784  -0.178   7.257   6.604 -0.5835 -0.0447 -0.1941
  167SOPE   C3118785  -0.293   7.319   6.651 -0.0065  0.3862  0.0396
  167SOPE   O3218786  -0.402   7.289   6.602 -0.4139 -0.2112 -0.0530
  167SOPE   C3218787  -0.256   7.421   6.763 -0.7699 -0.3420 -0.3303
  167SOPE   H2X18788  -0.167   7.477   6.728 -0.0854 -1.2882 -0.1249
  167SOPE   H2Y18789  -0.230   7.358   6.850 -1.2772  0.4307  0.3992
  167SOPE   C2318790   0.210   7.298   6.747 -0.1277  0.0845  0.1473
  167SOPE   H3R18791   0.180   7.397   6.706  0.3281  0.4928  0.7908
  167SOPE   H3S18792   0.307   7.311   6.799 -0.4122 -0.4581  0.8214
  167SOPE   C2418793   0.103   7.251   6.845  0.0402  0.1641 -0.2711
  167SOPE   H4R18794   0.004   7.249   6.794  0.9277 -0.8958 -2.0552
  167SOPE   H4S18795   0.112   7.149   6.889  3.5670  1.5296  2.6398
  167SOPE   C2518796   0.088   7.338   6.974 -0.8129 -0.1771 -1.0534
  167SOPE   H5R18797   0.186   7.346   7.024 -0.9707  0.6132 -0.8693
  167SOPE   H5S18798   0.055   7.440   6.947 -1.4984 -0.3634 -0.9533
  167SOPE   C2618799  -0.001   7.267   7.078 -0.4522 -0.5991  1.4076
  167SOPE   H6R18800  -0.103   7.259   7.035 -0.4373  1.0759  0.9884
  167SOPE   H6S18801   0.041   7.165   7.078  2.9422  0.6565 -0.3068
  167SOPE   C2718802  -0.016   7.345   7.207 -0.4914 -0.1311  0.0916
  167SOPE   H7R18803   0.081   7.377   7.249 -0.9240 -0.5766  1.4996
  167SOPE   H7S18804  -0.078   7.436   7.193 -2.2065 -1.5061 -1.8586
  167SOPE   C2818805  -0.073   7.255   7.315 -0.3724  0.0901 -0.0227
  167SOPE   H8R18806  -0.160   7.202   7.271 -1.2107  1.8124 -0.5470
  167SOPE   H8S18807   0.012   7.190   7.343 -0.9032 -0.0046  1.4498
  167SOPE   C2918808  -0.110   7.341   7.427 -0.0589 -0.2017 -0.4033
  167SOPE   H9118809  -0.213   7.379   7.432 -0.4125 -1.1504 -0.2952
  167SOPE  C21018810  -0.028   7.383   7.517 -0.1993 -0.1626  0.0838
  167SOPE  H10118811  -0.063   7.463   7.584  0.7999 -0.4041  0.9163
  167SOPE  C21118812   0.118   7.352   7.526 -0.0661 -0.3391 -0.2518
  167SOPE  H11R18813   0.167   7.451   7.531 -0.2261 -0.1494 -1.9210
  167SOPE  H11S18814   0.167   7.303   7.439  1.8864 -0.6996  0.9907
  167SOPE  C21218815   0.144   7.269   7.650  0.0731  0.3852 -0.4707
  167SOPE  H12R18816   0.253   7.252   7.662  0.1919  1.4779  0.1459
  167SOPE  H12S18817   0.098   7.170   7.634  1.2238 -0.0927 -0.8711
  167SOPE  C21318818   0.100   7.327   7.785  0.3636  0.1327 -0.5878
  167SOPE  H13R18819   0.142   7.277   7.875  1.2199 -0.4240 -1.2807
  167SOPE  H13S18820  -0.010   7.313   7.791  0.4712 -0.2824  0.6406
  167SOPE  C21418821   0.151   7.472   7.814 -0.2281 -0.2827  0.2253
  167SOPE  H14R18822   0.108   7.533   7.732 -4.2409 -1.5206  1.1730
  167SOPE  H14S18823   0.262   7.468   7.807 -0.2751 -2.6038 -0.1372
  167SOPE  C21518824   0.109   7.522   7.953 -0.4545  0.5164 -0.2609
  167SOPE  H15R18825   0.145   7.450   8.029  1.0569 -0.1943 -1.5758
  167SOPE  H15S18826  -0.001   7.519   7.942 -0.4620  1.5029 -0.5389
  167SOPE  C21618827   0.158   7.666   7.984 -0.3340 -0.2230  0.3222
  167SOPE  H16R18828   0.070   7.732   7.971  0.5935  1.0665  0.2974
  167SOPE  H16S18829   0.240   7.702   7.918 -0.3145 -1.2851 -0.2515
  167SOPE  C21718830   0.213   7.695   8.126  0.3294 -0.2201 -0.2885
  167SOPE  H17R18831   0.308   7.641   8.146  0.8388  0.6239 -0.3800
  167SOPE  H17S18832   0.142   7.649   8.197  1.4714  0.7590  1.5864
  167SOPE  C21818833   0.231   7.844   8.171  0.1998  0.1682  0.2348
  167SOPE  H18R18834   0.275   7.902   8.087  0.6622 -0.9813 -0.3419
  167SOPE  H18S18835   0.280   7.844   8.271 -3.1522 -1.1148  2.0293
  167SOPE  H18T18836   0.128   7.880   8.195  1.1794  2.5154  1.2559
  167SOPE   C3318837  -0.376   7.507   6.803  0.4736 -0.2850 -0.2403
  167SOPE   H3X18838  -0.477   7.468   6.777  1.1195 -2.8379  0.7690
  167SOPE   H3Y18839  -0.368   7.601   6.746  1.6098 -0.3388 -0.1816
  167SOPE   C3418840  -0.382   7.564   6.951  0.7728  0.1235 -0.2386
  167SOPE   H4X18841  -0.485   7.599   6.976 -0.6676 -1.4254 -3.4395
  167SOPE   H4Y18842  -0.310   7.647   6.962  1.9706 -0.8992 -0.0599
  167SOPE   C3518843  -0.358   7.458   7.061 -0.2909 -0.5095 -0.6333
  167SOPE   H5X18844  -0.250   7.434   7.056  0.0503  0.1897  1.9420
  167SOPE   H5Y18845  -0.413   7.363   7.045  0.4505 -1.1697  0.6218
  167SOPE   C3618846  -0.388   7.517   7.205 -0.8274  0.3543  0.5763
  167SOPE   H6X18847  -0.399   7.627   7.204 -0.4302  0.3956  0.4172
  167SOPE   H6Y18848  -0.312   7.476   7.276 -1.3240  0.0462  0.9311
  167SOPE   C3718849  -0.527   7.465   7.245 -0.4024 -0.6047 -0.6657
  167SOPE   H7X18850  -0.520   7.355   7.254 -0.0623 -0.6871 -1.8314
  167SOPE   H7Y18851  -0.588   7.486   7.155  2.0217 -1.0774 -2.5166
  167SOPE   C3818852  -0.556   7.529   7.381 -0.0496 -0.1063  0.0072
  167SOPE   H8X18853  -0.548   7.639   7.380 -1.9087  0.0538 -0.7423
  167SOPE   H8Y18854  -0.478   7.502   7.455 -1.1341 -0.3306  1.0980
  167SOPE   C3918855  -0.688   7.490   7.441  0.2566 -0.0775  0.5016
  167SOPE   H9X18856  -0.683   7.379   7.435 -0.3748 -0.0290 -1.3644
  167SOPE   H9Y18857  -0.772   7.526   7.378 -0.3835 -0.6869  0.9951
  167SOPE  C31018858  -0.701   7.535   7.585  0.1648  0.5576 -0.5295
  167SOPE  H10X18859  -0.805   7.512   7.618  0.2626  0.3446 -0.3678
  167SOPE  H10Y18860  -0.691   7.646   7.580  1.4547  0.4780 -0.1621
  167SOPE  C31118861  -0.601   7.477   7.686  0.4984  0.1024 -0.2501
  167SOPE  H11X18862  -0.502   7.528   7.683  0.1988  0.9617  2.1167
  167SOPE  H11Y18863  -0.592   7.367   7.674  0.8007  0.1608 -0.5741
  167SOPE  C31218864  -0.645   7.489   7.834 -0.3580  0.1713  0.1195
  167SOPE  H12X18865  -0.751   7.457   7.847  0.0299 -0.3621  2.4563
  167SOPE  H12Y18866  -0.628   7.594   7.863 -1.6922  0.4778 -0.1413
  167SOPE  C31318867  -0.549   7.409   7.928  1.0614 -0.6547 -0.4041
  167SOPE  H13X18868  -0.442   7.441   7.926  0.9569 -0.1349  1.2711
  167SOPE  H13Y18869  -0.561   7.304   7.894 -0.1199 -0.8447  0.5444
  167SOPE  C31418870  -0.593   7.418   8.067  0.1551 -0.0253  0.0560
  167SOPE  H14X18871  -0.690   7.366   8.079  0.0833 -0.1141 -0.8739
  167SOPE  H14Y18872  -0.606   7.519   8.113  2.0954  0.2183  0.1620
  167SOPE  C31518873  -0.479   7.361   8.160 -0.7021 -0.0495  0.3523
  167SOPE  H15X18874  -0.460   7.261   8.115 -1.0553  0.7381 -1.6900
  167SOPE  H15Y18875  -0.524   7.362   8.261 -1.6566  0.9607 -0.0628
  167SOPE  C31618876  -0.361   7.462   8.161 -0.2208  0.2242  0.0934
  167SOPE  H16X18877  -0.411   7.561   8.160 -0.5440  0.2877  3.9871
  167SOPE  H16Y18878  -0.292   7.448   8.076 -3.0577 -1.1059 -2.1417
  167SOPE  C31718879  -0.284   7.457   8.298 -0.5884 -0.5176 -0.5238
  167SOPE  H17X18880  -0.243   7.355   8.314 -1.2082 -0.2693  3.5547
  167SOPE  H17Y18881  -0.354   7.484   8.380  0.5662  5.4667 -1.0794
  167SOPE  C31818882  -0.171   7.558   8.316 -0.2689 -1.0966 -0.0942
  167SOPE  H18X18883  -0.085   7.532   8.252 -0.7603  0.5281 -1.5005
  167SOPE  H18Y18884  -0.143   7.557   8.424 -1.1371  0.5094  0.1791
  167SOPE  H18Z18885  -0.209   7.660   8.294 -0.4260 -0.4387  2.7817
  168SOPE     N18886   5.830   4.205   6.189  0.3320 -0.4430 -0.0910
  168SOPE   HN118887   5.853   4.257   6.102 -0.3364  1.8062  0.9892
  168SOPE   HN218888   5.775   4.119   6.171  0.4167 -0.9780  1.9049
  168SOPE   HN318889   5.767   4.275   6.233  0.6480 -0.0998 -0.1773
  168SOPE   C1218890   5.937   4.166   6.292  0.5046 -0.2804 -0.0294
  168SOPE  H12A18891   6.009   4.100   6.239 -0.7629 -0.0740 -2.1570
  168SOPE  H12B18892   5.893   4.115   6.379  0.7258  0.4053  0.4976
  168SOPE   C1118893   6.008   4.297   6.333 -0.1635  0.5986 -0.1257
  168SOPE  H11A18894   6.047   4.324   6.233 -1.0613 -2.7509 -1.5466
  168SOPE  H11B18895   6.085   4.273   6.409  0.5886  2.2184 -0.3483
  168SOPE     P18896   5.933   4.539   6.376  0.6653  0.0636  0.2302
  168SOPE   O1318897   5.810   4.608   6.418  0.6780  0.2772  0.0641
  168SOPE   O1418898   5.980   4.566   6.239  0.4509 -0.7238  0.3303
  168SOPE   O1218899   5.914   4.381   6.392 -0.7014 -0.7754  0.4176
  168SOPE   O1118900   6.047   4.566   6.477 -1.1220 -0.1051 -0.5798
  168SOPE    C118901   6.020   4.515   6.611 -0.1738 -0.0581  0.4934
  168SOPE    HA18902   6.060   4.412   6.624 -1.3222 -0.4444  1.0804
  168SOPE    HB18903   5.912   4.504   6.633 -0.3778  0.1231 -0.3632
  168SOPE    C218904   6.084   4.598   6.725 -0.3622  0.3863 -0.3925
  168SOPE    HS18905   6.193   4.616   6.709 -0.8307  2.2515 -1.7652
  168SOPE   O2118906   6.060   4.539   6.848 -0.0027  0.3151  0.3022
  168SOPE   C2118907   6.130   4.433   6.887  0.2661 -0.1512  0.3241
  168SOPE   O2218908   6.228   4.393   6.837  0.2601 -0.0395 -0.0471
  168SOPE   C2218909   6.068   4.379   7.017  0.2175  0.4021 -0.1313
  168SOPE   H2R18910   6.113   4.282   7.046 -0.4089  0.8433  2.6147
  168SOPE   H2S18911   5.961   4.365   6.990  0.5820 -0.4667 -1.2219
  168SOPE    C318912   6.020   4.741   6.735  0.1948  0.5200  0.8767
  168SOPE    HX18913   5.913   4.721   6.759  0.5754  0.5535  2.7815
  168SOPE    HY18914   6.019   4.790   6.635 -0.2256  1.6366  1.4117
  168SOPE   O3118915   6.081   4.829   6.836  0.3112 -0.9196 -0.1849
  168SOPE   C3118916   5.981   4.924   6.872  0.6905  0.6322 -0.0401
  168SOPE   O3218917   5.887   4.951   6.801 -0.2421 -0.0724  0.0839
  168SOPE   C3218918   5.988   4.969   7.015 -0.0828 -0.2129 -0.6490
  168SOPE   H2X18919   5.920   5.057   7.018  1.6963  1.1898  0.4031
  168SOPE   H2Y18920   6.091   5.003   7.037 -0.4843 -0.7419  2.5164
  168SOPE   C2318921   6.075   4.457   7.146 -0.1160 -0.7052  0.0839
  168SOPE   H3R18922   5.995   4.533   7.135 -0.5588 -1.0683  0.7475
  168SOPE   H3S18923   6.174   4.506   7.160  0.4476 -1.1205 -2.1080
  168SOPE   C2418924   6.038   4.373   7.265 -0.4868 -0.1785  0.0432
  168SOPE   H4R18925   5.943   4.320   7.240  0.2920 -1.7871  0.3847
  168SOPE   H4S18926   6.108   4.292   7.292 -0.1967 -0.8074 -2.3297
  168SOPE   C2518927   6.018   4.460   7.396  0.5044 -0.7964  0.5968
  168SOPE   H5R18928   6.117   4.505   7.419 -0.1317  0.4258  1.0024
  168SOPE   H5S18929   5.945   4.542   7.380  0.5177 -0.6768  1.1411
  168SOPE   C2618930   5.980   4.377   7.520  0.5818  0.1254 -0.0256
  168SOPE   H6R18931   5.890   4.321   7.488  1.0378 -0.7225  0.1335
  168SOPE   H6S18932   6.061   4.304   7.544 -0.0965 -0.7108 -0.2165
  168SOPE   C2718933   5.936   4.451   7.642 -0.4882  0.1106 -0.1334
  168SOPE   H7R18934   5.866   4.536   7.629 -1.5956 -0.6979  0.3132
  168SOPE   H7S18935   5.903   4.374   7.716 -0.6675 -0.0253 -0.3516
  168SOPE   C2818936   6.065   4.510   7.709 -0.3625  0.3547  0.0708
  168SOPE   H8R18937   6.136   4.425   7.721 -1.1564 -0.6239 -1.7436
  168SOPE   H8S18938   6.098   4.584   7.632 -0.4684 -0.6975 -1.0192
  168SOPE   C2918939   6.037   4.581   7.840  0.0058  0.2623  0.7520
  168SOPE   H9118940   5.931   4.600   7.857 -0.0586 -1.5572  2.8358
  168SOPE  C21018941   6.112   4.603   7.949 -0.0085  0.0984  0.3176
  168SOPE  H10118942   6.064   4.654   8.034 -1.6482 -0.2364 -0.3661
  168SOPE  C21118943   6.260   4.562   7.964  0.3913 -0.2241  0.2363
  168SOPE  H11R18944   6.325   4.651   7.958  0.2844 -0.1438  0.2606
  168SOPE  H11S18945   6.290   4.489   7.886 -1.4887 -1.0763  0.2439
  168SOPE  C21218946   6.282   4.480   8.097 -0.1214 -0.7337  1.1161
  168SOPE  H12R18947   6.263   4.373   8.070  0.9796 -0.6701 -0.0093
  168SOPE  H12S18948   6.217   4.530   8.171 -2.1368  0.8192 -1.5034
  168SOPE  C21318949   6.429   4.502   8.145  0.2065 -0.3366 -0.4591
  168SOPE  H13R18950   6.453   4.606   8.175 -0.0005  0.0900 -1.7398
  168SOPE  H13S18951   6.505   4.478   8.068  0.6842 -0.5234  0.0555
  168SOPE  C21418952   6.454   4.414   8.273 -0.6428 -0.3170  0.2114
  168SOPE  H14R18953   6.429   4.310   8.243  1.7759 -0.9858  0.3033
  168SOPE  H14S18954   6.386   4.444   8.355 -2.9101 -1.9865 -0.9432
  168SOPE  C21518955   6.598   4.422   8.320  0.0954  1.1801 -0.3779
  168SOPE  H15R18956   6.605   4.521   8.370  1.2797 -0.1013  2.1965
  168SOPE  H15S18957   6.671   4.414   8.238 -0.5588  1.1238 -0.9634
  168SOPE  C21618958   6.636   4.315   8.416  0.0213  0.4084 -0.5761
  168SOPE  H16R18959   6.549   4.310   8.485 -0.4107 -0.9222 -1.2054
  168SOPE  H16S18960   6.723   4.350   8.476 -1.9194  0.1945  2.6237
  168SOPE  C21718961   6.663   4.179   8.348  0.5750  0.7683 -0.0177
  168SOPE  H17R18962   6.728   4.195   8.259 -1.2850 -2.3590 -2.1339
  168SOPE  H17S18963   6.578   4.134   8.293  1.3199 -1.5876  0.6651
  168SOPE  C21818964   6.729   4.074   8.438  0.2871  0.2339  0.2675
  168SOPE  H18R18965   6.724   3.972   8.394  3.3752 -0.8666  2.1476
  168SOPE  H18S18966   6.666   4.066   8.530  2.7511  0.7645  2.1173
  168SOPE  H18T18967   6.830   4.101   8.476  0.1942 -1.0243  1.4882
  168SOPE   C3318968   5.970   4.845   7.107 -0.2514 -0.5121 -0.3281
  168SOPE   H3X18969   6.019   4.753   7.067  1.0292  0.8900 -2.1025
  168SOPE   H3Y18970   5.863   4.814   7.104 -1.4208  3.2204 -1.7904
  168SOPE   C3418971   6.018   4.879   7.252 -0.1539 -0.6613 -0.1932
  168SOPE   H4X18972   6.069   4.977   7.255 -3.1406  1.0524 -1.4474
  168SOPE   H4Y18973   6.083   4.798   7.292 -0.1648 -0.6459 -0.1450
  168SOPE   C3518974   5.911   4.886   7.358 -0.5149  0.0945  0.1360
  168SOPE   H5X18975   5.859   4.788   7.352  0.3980 -0.3241 -1.3467
  168SOPE   H5Y18976   5.830   4.958   7.332  0.0395  1.3717  1.7764
  168SOPE   C3618977   5.974   4.913   7.500  0.1582  0.3975 -0.1645
  168SOPE   H6X18978   6.044   4.998   7.486 -0.7211  1.3450  1.0096
  168SOPE   H6Y18979   6.039   4.828   7.531 -0.5416 -0.2021 -0.3162
  168SOPE   C3718980   5.871   4.945   7.609 -0.9075  0.4409  0.7324
  168SOPE   H7X18981   5.797   4.863   7.620  0.4176 -0.7456  1.1896
  168SOPE   H7Y18982   5.830   5.043   7.578 -1.7762  0.3882  1.6623
  168SOPE   C3818983   5.945   4.946   7.742  0.1340  0.0899  0.2903
  168SOPE   H8X18984   6.033   5.014   7.738 -0.7500  1.2211 -0.4112
  168SOPE   H8Y18985   5.989   4.848   7.768  1.7717  0.1084 -2.0558
  168SOPE   C3918986   5.842   4.975   7.854 -0.2243  0.2763 -0.1713
  168SOPE   H9X18987   5.762   4.898   7.854 -1.0790  1.0037 -3.3357
  168SOPE   H9Y18988   5.801   5.077   7.834 -1.1275  0.0042  0.2373
  168SOPE  C31018989   5.897   4.951   7.999 -0.4925 -0.0024  0.4132
  168SOPE  H10X18990   5.968   5.032   8.026 -0.3842 -0.3113  1.0719
  168SOPE  H10Y18991   5.962   4.861   8.000 -0.1982  0.2114  0.8792
  168SOPE  C31118992   5.779   4.965   8.098  0.1582  0.4014 -0.7267
  168SOPE  H11X18993   5.701   4.889   8.079 -1.3788  1.5273  0.7737
  168SOPE  H11Y18994   5.723   5.059   8.080  2.1232  1.8795  0.5318
  168SOPE  C31218995   5.821   4.945   8.249 -0.7712 -0.2048 -0.2466
  168SOPE  H12X18996   5.850   5.048   8.280 -0.0503 -0.1832 -0.9480
  168SOPE  H12Y18997   5.919   4.892   8.248  0.7106  2.3257  0.7177
  168SOPE  C31318998   5.722   4.881   8.321 -0.0496 -0.1172 -0.5623
  168SOPE  H13X18999   5.702   4.784   8.271 -1.4719  1.1924 -2.6701
  168SOPE  H13Y19000   5.625   4.935   8.311  0.2124 -0.0225 -3.1549
  168SOPE  C31419001   5.754   4.877   8.469 -0.6246  0.8908 -1.3160
  168SOPE  H14X19002   5.687   4.808   8.525 -0.5265  1.2501 -0.7565
  168SOPE  H14Y19003   5.745   4.972   8.525 -3.4773 -0.5177  0.8446
  168SOPE  C31519004   5.895   4.818   8.519  0.7739 -0.8000 -0.0380
  168SOPE  H15X19005   5.909   4.822   8.629  0.8671 -0.0135 -0.0668
  168SOPE  H15Y19006   5.979   4.866   8.464 -0.2648 -0.2840 -1.2226
  168SOPE  C31619007   5.911   4.671   8.477  0.1837  0.6571  0.1564
  168SOPE  H16X19008   5.908   4.665   8.366 -0.7443  2.2167  0.0685
  168SOPE  H16Y19009   5.837   4.608   8.531 -1.0519 -0.0186 -2.1813
  168SOPE  C31719010   6.042   4.609   8.518 -0.3470  0.1244  0.4085
  168SOPE  H17X19011   6.031   4.579   8.625 -0.7325 -0.5888  0.1751
  168SOPE  H17Y19012   6.124   4.683   8.503 -0.1890 -0.3344 -1.1330
  168SOPE  C31819013   6.073   4.472   8.450 -0.5828  0.2895 -0.3290
  168SOPE  H18X19014   6.084   4.474   8.340  1.2827  0.4211 -0.1625
  168SOPE  H18Y19015   5.990   4.405   8.482 -0.0144 -0.8589 -1.2012
  168SOPE  H18Z19016   6.169   4.425   8.477 -0.5976 -0.2826 -1.2521
  169SOPE     N19017   0.518   6.388   6.653  0.0900 -0.3076 -0.3523
  169SOPE   HN119018   0.453   6.461   6.687 -1.3090 -2.5322  2.0966
  169SOPE   HN219019   0.594   6.374   6.723 -0.5444  1.9429  0.8842
  169SOPE   HN319020   0.559   6.416   6.562  0.5473  0.0274 -0.0447
  169SOPE   C1219021   0.430   6.273   6.621 -0.0400 -0.1915 -0.4135
  169SOPE  H12A19022   0.351   6.301   6.548 -1.2690  0.5862  1.1401
  169SOPE  H12B19023   0.375   6.247   6.715 -1.5510 -2.7894 -1.8887
  169SOPE   C1119024   0.519   6.150   6.572  0.2638  0.0353 -0.5128
  169SOPE  H11A19025   0.446   6.075   6.535 -0.5944  0.8854 -0.5830
  169SOPE  H11B19026   0.575   6.113   6.661 -1.3758 -0.4900  0.3333
  169SOPE     P19027   0.656   6.099   6.355 -0.2031  0.5239  0.0458
  169SOPE   O1319028   0.778   6.167   6.301  0.1969  0.2779  0.5537
  169SOPE   O1419029   0.544   6.077   6.263 -0.1411  0.2150  0.2463
  169SOPE   O1219030   0.609   6.190   6.475  0.2374 -0.6400 -0.2381
  169SOPE   O1119031   0.689   5.960   6.428  0.7282  0.0399 -0.7123
  169SOPE    C119032   0.816   5.906   6.430 -0.0073  0.4011 -0.2071
  169SOPE    HA19033   0.899   5.952   6.372 -0.7457  1.3925 -0.5104
  169SOPE    HB19034   0.803   5.802   6.394  2.6393  0.3761 -1.3523
  169SOPE    C219035   0.867   5.890   6.576 -0.5626 -0.3259  0.8130
  169SOPE    HS19036   0.956   5.824   6.581  0.5431  1.1807  2.1758
  169SOPE   O2119037   0.771   5.827   6.660  0.9403 -0.0845  0.0719
  169SOPE   C2119038   0.755   5.695   6.651 -0.3773 -0.3445 -0.4896
  169SOPE   O2219039   0.821   5.627   6.580  0.2174 -0.2242  0.0231
  169SOPE   C2219040   0.648   5.646   6.747 -0.3879 -0.9761 -0.1503
  169SOPE   H2R19041   0.553   5.674   6.697 -1.2121 -2.2962  0.6300
  169SOPE   H2S19042   0.646   5.709   6.838 -0.7686 -1.8630  0.4711
  169SOPE    C319043   0.907   6.022   6.637 -0.2672 -1.2478 -0.1335
  169SOPE    HX19044   0.808   6.071   6.647 -0.1881 -1.0319 -0.3949
  169SOPE    HY19045   0.969   6.084   6.570  0.1815 -0.9286  0.5679
  169SOPE   O3119046   0.977   6.010   6.759  0.4056 -0.3952 -0.3452
  169SOPE   C3119047   0.904   6.010   6.869 -1.0496 -0.2795  0.9535
  169SOPE   O3219048   0.790   6.053   6.884  0.3299 -0.1164 -0.0037
  169SOPE   C3219049   0.987   5.936   6.972  1.0143  0.1807  0.0508
  169SOPE   H2X19050   1.068   5.996   7.017  1.3995 -0.3621  0.0880
  169SOPE   H2Y19051   1.031   5.847   6.921  0.6604  1.8298 -3.4373
  169SOPE   C2319052   0.640   5.499   6.767 -0.1240  0.4405 -0.5337
  169SOPE   H3R19053   0.680   5.435   6.686  1.0245 -0.5276  0.7483
  169SOPE   H3S19054   0.535   5.467   6.784 -0.3870  0.7320 -1.5597
  169SOPE   C2419055   0.706   5.460   6.897 -1.0474 -0.2035  0.3459
  169SOPE   H4R19056   0.673   5.521   6.984  0.3481  0.7825  0.2092
  169SOPE   H4S19057   0.681   5.359   6.936  2.4234 -2.0574 -1.7408
  169SOPE   C2519058   0.853   5.457   6.884 -0.4718 -0.1577  0.1192
  169SOPE   H5R19059   0.894   5.392   6.804  1.7915  0.4511  0.7000
  169SOPE   H5S19060   0.894   5.556   6.855  1.5563 -0.9923 -0.0064
  169SOPE   C2619061   0.921   5.430   7.017  0.4719  0.5884 -0.9403
  169SOPE   H6R19062   0.891   5.507   7.091 -1.0952  1.0826 -2.0430
  169SOPE   H6S19063   0.874   5.333   7.044 -1.0769  1.5880  0.0576
  169SOPE   C2719064   1.079   5.423   7.013 -0.3620  0.1376 -0.9914
  169SOPE   H7R19065   1.110   5.331   6.960  1.6888 -0.7114  1.4924
  169SOPE   H7S19066   1.117   5.515   6.964 -1.1715  0.8405 -0.3474
  169SOPE   C2819067   1.132   5.420   7.153 -0.0702  0.1609  0.1862
  169SOPE   H8R19068   1.145   5.520   7.200  3.4304 -0.4307  0.7998
  169SOPE   H8S19069   1.062   5.362   7.216  1.9041 -2.3052  0.2804
  169SOPE   C2919070   1.273   5.370   7.149 -0.6735  0.4282 -0.5623
  169SOPE   H9119071   1.302   5.325   7.052  1.9622 -0.0204  0.3371
  169SOPE  C21019072   1.359   5.359   7.247 -0.6846  0.0916  0.4944
  169SOPE  H10119073   1.457   5.312   7.228 -1.3338 -0.5478 -1.4398
  169SOPE  C21119074   1.332   5.412   7.386 -0.0110  0.7268  0.0966
  169SOPE  H11R19075   1.255   5.491   7.401  0.9689  1.4209  1.7111
  169SOPE  H11S19076   1.425   5.456   7.429 -0.7864  0.7718  1.7796
  169SOPE  C21219077   1.294   5.291   7.468  0.4691  0.4521  0.2484
  169SOPE  H12R19078   1.345   5.196   7.441 -1.4676 -0.4552 -0.3112
  169SOPE  H12S19079   1.188   5.274   7.440  1.0370  0.0433 -1.8445
  169SOPE  C21319080   1.317   5.310   7.621  0.3887 -0.2277 -0.2875
  169SOPE  H13R19081   1.246   5.389   7.653  0.4119 -0.5611  0.6114
  169SOPE  H13S19082   1.422   5.347   7.628  0.1633  0.1811  1.1349
  169SOPE  C21419083   1.291   5.185   7.705 -0.3438  0.0491 -0.4226
  169SOPE  H14R19084   1.329   5.092   7.659  1.2621  1.2577 -1.6899
  169SOPE  H14S19085   1.181   5.168   7.713 -0.3858 -0.6381 -2.0646
  169SOPE  C21519086   1.339   5.205   7.853  0.4499 -0.1570  0.3874
  169SOPE  H15R19087   1.313   5.308   7.888  1.0744  0.7333 -1.5879
  169SOPE  H15S19088   1.448   5.201   7.834  0.7067 -0.5297  1.8004
  169SOPE  C21619089   1.303   5.088   7.938  0.5654 -0.3862  0.7480
  169SOPE  H16R19090   1.338   5.002   7.876 -0.4374  1.5148 -2.7236
  169SOPE  H16S19091   1.193   5.074   7.951  0.4593  1.5863  2.5445
  169SOPE  C21719092   1.359   5.103   8.081 -0.1926  0.6650  0.0647
  169SOPE  H17R19093   1.468   5.085   8.072 -0.0439  2.0954 -1.5027
  169SOPE  H17S19094   1.326   5.013   8.138  0.3578  0.2069 -0.3292
  169SOPE  C21819095   1.328   5.227   8.165 -0.2333  0.8069 -0.3084
  169SOPE  H18R19096   1.407   5.300   8.136  1.0897 -0.9555 -1.3262
  169SOPE  H18S19097   1.337   5.182   8.266 -2.2055 -0.7074 -0.7339
  169SOPE  H18T19098   1.222   5.257   8.149 -0.5884 -1.3638 -2.7731
  169SOPE   C3319099   0.892   5.890   7.088  0.0188 -0.4403  0.1951
  169SOPE   H3X19100   0.816   5.829   7.035 -0.4966  1.9924 -2.0325
  169SOPE   H3Y19101   0.842   5.976   7.137 -0.6352 -2.3851  3.2360
  169SOPE   C3419102   0.964   5.814   7.200  0.3047  0.8476  0.4803
  169SOPE   H4X19103   1.026   5.887   7.257 -1.4434  1.3692  1.7928
  169SOPE   H4Y19104   1.019   5.727   7.157 -2.8131 -3.3639  4.1490
  169SOPE   C3519105   0.860   5.747   7.287 -0.2445 -0.4508 -0.9046
  169SOPE   H5X19106   0.803   5.667   7.235 -1.1743 -1.0084  0.8715
  169SOPE   H5Y19107   0.784   5.820   7.322  0.9729  0.6040 -0.4100
  169SOPE   C3619108   0.932   5.677   7.409  0.4723 -0.0844  0.4808
  169SOPE   H6X19109   1.013   5.614   7.367  1.3531  1.0461  0.4317
  169SOPE   H6Y19110   0.857   5.614   7.464  0.0204  1.5791  1.8632
  169SOPE   C3719111   0.984   5.771   7.518  0.5105  0.1430 -0.4666
  169SOPE   H7X19112   0.899   5.831   7.556 -0.0817 -0.9970  0.0497
  169SOPE   H7Y19113   1.038   5.842   7.452  0.6591 -1.0485 -1.6739
  169SOPE   C3819114   1.066   5.699   7.627  0.3688 -0.0594  0.8275
  169SOPE   H8X19115   1.114   5.609   7.582 -0.3166  0.5656 -1.2718
  169SOPE   H8Y19116   1.144   5.767   7.669 -0.7292  0.8991  1.3619
  169SOPE   C3919117   0.980   5.634   7.739  0.2171  0.2679  0.1476
  169SOPE   H9X19118   0.891   5.582   7.697  0.2646  0.2766  0.0346
  169SOPE   H9Y19119   0.942   5.715   7.806  3.5819  1.1696  1.1389
  169SOPE  C31019120   1.060   5.548   7.832  0.1068  0.2172  0.0697
  169SOPE  H10X19121   1.145   5.610   7.867 -0.6543 -0.5212  3.5983
  169SOPE  H10Y19122   1.100   5.454   7.787  2.2080  0.8973  0.4491
  169SOPE  C31119123   0.974   5.506   7.953 -0.3920 -0.4880 -0.0841
  169SOPE  H11X19124   0.940   5.603   7.995  0.5185  0.3921 -1.3467
  169SOPE  H11Y19125   1.042   5.456   8.024  1.2643  1.6989 -0.0436
  169SOPE  C31219126   0.850   5.411   7.918 -0.6793  0.8837  0.6784
  169SOPE  H12X19127   0.775   5.458   7.850 -0.6555 -1.8478 -1.4010
  169SOPE  H12Y19128   0.797   5.396   8.015 -0.2264  0.0194  0.8011
  169SOPE  C31319129   0.898   5.276   7.853  0.1343 -0.1571  0.8499
  169SOPE  H13X19130   0.983   5.234   7.911  3.2601 -0.2487 -3.3878
  169SOPE  H13Y19131   0.959   5.302   7.764 -0.5083 -0.3487  0.3478
  169SOPE  C31419132   0.788   5.180   7.824  0.1433  0.0704  0.3724
  169SOPE  H14X19133   0.755   5.135   7.920  2.0655 -0.8598  0.6601
  169SOPE  H14Y19134   0.829   5.098   7.761 -0.6040  1.2767 -1.7900
  169SOPE  C31519135   0.673   5.235   7.740 -0.3582 -0.0551 -0.2405
  169SOPE  H15X19136   0.625   5.313   7.802 -0.3455 -0.1416 -0.1228
  169SOPE  H15Y19137   0.598   5.154   7.733 -1.1153  0.5075  0.9648
  169SOPE  C31619138   0.714   5.293   7.604  0.6001 -0.0387 -0.1718
  169SOPE  H16X19139   0.788   5.375   7.617  0.6092 -0.1900  0.8096
  169SOPE  H16Y19140   0.620   5.346   7.576 -1.2037 -2.0530  1.6807
  169SOPE  C31719141   0.745   5.186   7.494 -0.3118  0.4551 -0.2205
  169SOPE  H17X19142   0.654   5.124   7.480 -0.3790  0.1142  1.5271
  169SOPE  H17Y19143   0.816   5.120   7.547 -0.3307 -0.5459 -1.3941
  169SOPE  C31819144   0.812   5.249   7.365 -0.5669  0.5836  0.1123
  169SOPE  H18X19145   0.905   5.305   7.388 -0.3196 -0.0458  0.6490
  169SOPE  H18Y19146   0.742   5.320   7.315 -1.5819 -0.5759 -0.1619
  169SOPE  H18Z19147   0.845   5.161   7.306 -0.9251  1.2527 -1.1319
  170SOPE     N19148   3.694   4.820   6.579  0.5580 -0.1921  0.3892
  170SOPE   HN119149   3.766   4.820   6.654 -0.4385  0.5713  1.3741
  170SOPE   HN219150   3.608   4.864   6.616  1.2594  1.5920  0.0287
  170SOPE   HN319151   3.680   4.727   6.536  0.1377 -0.2904  0.7400
  170SOPE   C1219152   3.736   4.910   6.459  0.3068  0.7168 -0.3861
  170SOPE  H12A19153   3.829   4.866   6.416 -0.8040 -1.1015 -1.0559
  170SOPE  H12B19154   3.769   5.010   6.492  2.1132 -0.1264  0.5091
  170SOPE   C1119155   3.613   4.922   6.369  0.4437  0.4518 -0.0461
  170SOPE  H11A19156   3.573   4.826   6.329  1.6096 -0.2990  0.5249
  170SOPE  H11B19157   3.640   4.969   6.272 -0.6433  0.6645 -0.2690
  170SOPE     P19158   3.435   5.122   6.360 -0.1841  0.2581 -0.0721
  170SOPE   O1319159   3.348   5.076   6.255  0.3458 -0.7097 -0.2570
  170SOPE   O1419160   3.531   5.232   6.318  0.0668  0.2032 -0.4266
  170SOPE   O1219161   3.515   5.001   6.426  0.2405  0.5482  0.2092
  170SOPE   O1119162   3.351   5.171   6.484  0.3552  0.3482 -0.6305
  170SOPE    C119163   3.405   5.201   6.620 -0.1155  0.3598  0.3622
  170SOPE    HA19164   3.433   5.309   6.628 -0.9724  0.5468  1.0146
  170SOPE    HB19165   3.497   5.142   6.636  0.6113  0.7655 -1.8655
  170SOPE    C219166   3.312   5.175   6.737  0.1551  0.3067  0.3232
  170SOPE    HS19167   3.294   5.066   6.723 -0.0301  0.1845  1.4147
  170SOPE   O2119168   3.188   5.249   6.721 -0.2914 -0.2931 -0.9710
  170SOPE   C2119169   3.074   5.189   6.744 -0.2489 -0.0191 -0.5653
  170SOPE   O2219170   3.062   5.076   6.790  0.0893 -0.1440  0.0811
  170SOPE   C2219171   2.962   5.281   6.709  0.8454 -0.0599 -0.2403
  170SOPE   H2R19172   2.918   5.244   6.614 -0.1949  4.1577 -1.6080
  170SOPE   H2S19173   3.009   5.382   6.709  0.9753 -0.1134 -1.0448
  170SOPE    C319174   3.379   5.201   6.873 -0.3243 -0.0087 -0.4798
  170SOPE    HX19175   3.404   5.309   6.877 -1.1521  0.1728  0.0378
  170SOPE    HY19176   3.472   5.140   6.876  0.2748  0.8549 -0.9186
  170SOPE   O3119177   3.289   5.167   6.977 -0.2598 -0.2203  0.2966
  170SOPE   C3119178   3.288   5.038   7.019 -0.8015 -0.4412  0.7170
  170SOPE   O3219179   3.353   4.944   6.977 -0.4455  0.4329 -0.8877
  170SOPE   C3219180   3.208   5.042   7.152  0.2782 -0.1056  0.4709
  170SOPE   H2X19181   3.112   5.093   7.131 -1.5718 -2.6016  2.2442
  170SOPE   H2Y19182   3.251   5.113   7.227  0.0126 -0.3240  0.8332
  170SOPE   C2319183   2.851   5.280   6.816  0.0426  0.2091  0.0137
  170SOPE   H3R19184   2.779   5.198   6.798 -1.7425  1.8636 -0.8315
  170SOPE   H3S19185   2.786   5.370   6.806  0.8280  0.7667 -0.2311
  170SOPE   C2419186   2.897   5.289   6.960  0.5810  0.1041  0.2703
  170SOPE   H4R19187   2.974   5.213   6.985  2.6943  2.0422 -0.0406
  170SOPE   H4S19188   2.942   5.388   6.977  0.9734 -0.0668  0.2275
  170SOPE   C2519189   2.773   5.271   7.053  0.6149  0.4698  0.4246
  170SOPE   H5R19190   2.703   5.355   7.037  0.7203  0.4233 -0.3252
  170SOPE   H5S19191   2.718   5.182   7.014  1.6130  0.6838 -1.5792
  170SOPE   C2619192   2.792   5.273   7.204 -0.8889  0.1615 -0.0577
  170SOPE   H6R19193   2.849   5.181   7.231  0.8383  0.8859 -1.0378
  170SOPE   H6S19194   2.856   5.360   7.232  0.0462 -0.4189 -0.3184
  170SOPE   C2719195   2.656   5.270   7.279 -0.0966  0.1026  0.0589
  170SOPE   H7R19196   2.594   5.358   7.248  1.6625  1.3348 -0.0831
  170SOPE   H7S19197   2.613   5.173   7.247 -0.4038  0.6214 -1.1710
  170SOPE   C2819198   2.671   5.248   7.432  0.1040 -0.3150  0.0046
  170SOPE   H8R19199   2.570   5.268   7.475  0.4617 -1.2941  1.3829
  170SOPE   H8S19200   2.695   5.140   7.445  0.8423 -0.2638 -0.8267
  170SOPE   C2919201   2.765   5.345   7.498 -0.4772 -0.4517  0.1412
  170SOPE   H9119202   2.777   5.441   7.446 -3.8497  0.1762  0.3354
  170SOPE  C21019203   2.831   5.323   7.607 -0.7901 -0.2449 -0.2721
  170SOPE  H10119204   2.889   5.408   7.646 -1.2546 -0.0293 -0.0490
  170SOPE  C21119205   2.820   5.205   7.696 -0.3553 -0.9243  0.4041
  170SOPE  H11R19206   2.918   5.154   7.707  0.3771  0.1100 -0.9136
  170SOPE  H11S19207   2.755   5.129   7.647  0.2279  0.3428 -2.5639
  170SOPE  C21219208   2.752   5.232   7.835  0.1957 -1.1084 -0.7601
  170SOPE  H12R19209   2.650   5.271   7.813 -0.3871 -0.8680  1.9444
  170SOPE  H12S19210   2.806   5.308   7.896 -1.7312 -0.3448  0.0825
  170SOPE  C21319211   2.721   5.097   7.912 -0.3185 -0.4547  1.3626
  170SOPE  H13R19212   2.811   5.032   7.906 -0.1749 -0.2680  1.4652
  170SOPE  H13S19213   2.644   5.039   7.856  1.6898 -1.2258 -0.7554
  170SOPE  C21419214   2.678   5.115   8.059  0.0884  0.9258 -0.2578
  170SOPE  H14R19215   2.612   5.203   8.047  2.2400  2.6714 -0.0937
  170SOPE  H14S19216   2.765   5.156   8.115  0.9286 -0.5875 -0.3953
  170SOPE  C21519217   2.607   4.997   8.119 -0.4300 -0.7157  1.0611
  170SOPE  H15R19218   2.683   4.916   8.128  2.2244  1.4063 -0.5799
  170SOPE  H15S19219   2.527   4.959   8.053  0.0936  0.7641 -0.4950
  170SOPE  C21619220   2.551   5.023   8.257  0.2778  0.5571  0.4701
  170SOPE  H16R19221   2.492   4.933   8.287  1.6694 -0.3125  0.6880
  170SOPE  H16S19222   2.483   5.111   8.262 -1.2225 -0.4350 -1.3727
  170SOPE  C21719223   2.664   5.055   8.352 -0.5883  0.1321 -0.5207
  170SOPE  H17R19224   2.737   5.130   8.313  1.6837  0.6549  4.0510
  170SOPE  H17S19225   2.726   4.967   8.377  0.5722  1.4981  1.7283
  170SOPE  C21819226   2.615   5.107   8.485 -0.5008 -0.4706  0.2523
  170SOPE  H18R19227   2.556   5.027   8.535  2.6856 -3.3238 -0.1749
  170SOPE  H18S19228   2.549   5.194   8.469 -1.4767 -1.1128  0.7022
  170SOPE  H18T19229   2.706   5.130   8.545 -0.3979  0.2061 -0.1600
  170SOPE   C3319230   3.178   4.902   7.208 -0.7594 -0.1877  0.2528
  170SOPE   H3X19231   3.276   4.850   7.212 -1.4245 -1.4770  0.4318
  170SOPE   H3Y19232   3.107   4.850   7.140  0.9898  0.7283 -2.3903
  170SOPE   C3419233   3.131   4.911   7.354  0.2389  0.0628  0.0480
  170SOPE   H4X19234   3.054   4.990   7.366  2.1343  1.9328  0.6621
  170SOPE   H4Y19235   3.216   4.937   7.422  0.1987 -1.2092  0.5999
  170SOPE   C3519236   3.091   4.774   7.395  0.3216  0.4631 -1.0320
  170SOPE   H5X19237   3.180   4.717   7.430 -0.4489  0.6896  1.5064
  170SOPE   H5Y19238   3.049   4.735   7.301 -2.5363  0.1500  0.2613
  170SOPE   C3619239   2.985   4.780   7.508  0.0275 -0.6745 -0.7400
  170SOPE   H6X19240   2.932   4.683   7.503  0.4393 -0.9146 -0.5199
  170SOPE   H6Y19241   2.920   4.869   7.495 -1.5489 -1.3971  1.5963
  170SOPE   C3719242   3.055   4.803   7.650  0.1659 -0.1045 -0.2470
  170SOPE   H7X19243   3.081   4.909   7.670 -2.9759  0.9874 -1.3950
  170SOPE   H7Y19244   3.152   4.749   7.647 -0.4843 -1.3251 -0.1435
  170SOPE   C3819245   2.978   4.745   7.769  0.5644  0.9061  0.3471
  170SOPE   H8X19246   2.977   4.635   7.756 -0.5343  0.8903  0.4846
  170SOPE   H8Y19247   2.875   4.787   7.763  0.9465  1.7822 -0.2883
  170SOPE   C3919248   3.026   4.786   7.909 -0.1955 -0.6937 -0.3212
  170SOPE   H9X19249   3.022   4.896   7.928 -0.1052 -0.8146  0.4225
  170SOPE   H9Y19250   3.132   4.752   7.912  0.1825  0.2639 -1.7282
  170SOPE  C31019251   2.945   4.723   8.013 -0.1316 -0.7154  0.3479
  170SOPE  H10X19252   2.929   4.613   8.010 -3.3534 -0.3270 -0.2493
  170SOPE  H10Y19253   2.844   4.767   8.005 -0.4660 -1.5536 -0.0864
  170SOPE  C31119254   2.995   4.767   8.158 -0.4892 -0.1426 -0.0557
  170SOPE  H11X19255   2.995   4.878   8.155  0.2858 -0.1497 -2.0644
  170SOPE  H11Y19256   3.101   4.736   8.168 -0.4580  0.3610  1.2906
  170SOPE  C31219257   2.929   4.697   8.274  0.0867 -0.0019 -0.4742
  170SOPE  H12X19258   2.934   4.587   8.258 -2.4542 -0.3153  0.4442
  170SOPE  H12Y19259   2.821   4.719   8.284  0.7197  2.4523  2.1415
  170SOPE  C31319260   2.995   4.726   8.411 -0.3423  0.0415 -0.2735
  170SOPE  H13X19261   2.976   4.832   8.438 -2.1881 -1.0380  3.3524
  170SOPE  H13Y19262   3.104   4.715   8.432 -0.3517  0.6671  0.1555
  170SOPE  C31419263   2.916   4.658   8.530  0.4217 -0.0034  0.1107
  170SOPE  H14X19264   2.987   4.654   8.616 -0.1771 -0.7176  0.5875
  170SOPE  H14Y19265   2.878   4.556   8.507 -0.0308  0.0382  0.6519
  170SOPE  C31519266   2.800   4.749   8.571 -0.1738  0.4454 -0.6441
  170SOPE  H15X19267   2.731   4.759   8.484  0.2786  1.0278 -0.9416
  170SOPE  H15Y19268   2.840   4.849   8.601 -2.2282  1.4294 -0.9751
  170SOPE  C31619269   2.714   4.689   8.689 -0.3919  0.0982 -0.1384
  170SOPE  H16X19270   2.750   4.718   8.790 -1.1597  0.9273 -0.1011
  170SOPE  H16Y19271   2.712   4.580   8.669 -2.2328  0.5527 -2.9455
  170SOPE  C31719272   2.571   4.728   8.683 -0.0805 -0.3809 -0.0564
  170SOPE  H17X19273   2.570   4.839   8.686  0.5006 -0.3880  0.5563
  170SOPE  H17Y19274   2.522   4.696   8.777 -0.1975 -1.7519 -0.5662
  170SOPE  C31819275   2.488   4.674   8.571  0.3779  0.6703  0.5306
  170SOPE  H18X19276   2.506   4.723   8.473 -2.0224 -2.9732 -2.0119
  170SOPE  H18Y19277   2.382   4.685   8.603  0.3798  1.4794  0.2830
  170SOPE  H18Z19278   2.515   4.566   8.569  2.9358  1.2346  0.2332
  171SOPE     N19279   1.473   0.216   6.094  0.1780 -0.4855  0.0421
  171SOPE   HN119280   1.533   0.191   6.013  0.0555  1.2075 -0.5946
  171SOPE   HN219281   1.370   0.219   6.078 -0.0332 -1.6537  0.9501
  171SOPE   HN319282   1.498   0.314   6.116 -0.4317 -0.9434  3.3167
  171SOPE   C1219283   1.519   0.130   6.206 -0.1683  0.7670 -0.4330
  171SOPE  H12A19284   1.466   0.033   6.204  1.1964 -0.0029 -0.7815
  171SOPE  H12B19285   1.510   0.190   6.299  1.1525  1.7175 -0.8732
  171SOPE   C1119286   1.670   0.105   6.183  0.1182 -0.3617 -0.0638
  171SOPE  H11A19287   1.680   0.065   6.080 -0.4907  0.3668 -0.4188
  171SOPE  H11B19288   1.703   0.019   6.244 -0.4608 -0.6794 -0.1839
  171SOPE     P19289   1.815   0.249   6.326  0.1767 -0.4833  0.1580
  171SOPE   O1319290   1.899   0.367   6.299  0.1882 -0.2144 -0.0896
  171SOPE   O1419291   1.880   0.128   6.374  0.1508  0.2058  0.1729
  171SOPE   O1219292   1.741   0.226   6.192 -0.5306 -0.2754 -0.0225
  171SOPE   O1119293   1.698   0.287   6.420 -0.0702  0.1798 -0.6573
  171SOPE    C119294   1.686   0.408   6.487 -0.9312  0.1366 -0.0818
  171SOPE    HA19295   1.578   0.409   6.513 -0.5939 -3.7865  2.3366
  171SOPE    HB19296   1.704   0.493   6.418 -0.2889 -0.1290 -0.2507
  171SOPE    C219297   1.772   0.398   6.610 -0.5454 -0.2372  0.0729
  171SOPE    HS19298   1.879   0.382   6.583 -1.4608 -2.1357 -2.9545
  171SOPE   O2119299   1.720   0.291   6.693 -0.8023  0.1274  0.0679
  171SOPE   C2119300   1.804   0.249   6.785 -0.3221  0.4981 -0.1965
  171SOPE   O2219301   1.924   0.280   6.784  0.2634  1.0040  0.1584
  171SOPE   C2219302   1.743   0.152   6.886 -0.0873  0.1223 -0.3977
  171SOPE   H2R19303   1.809   0.064   6.873 -1.8627 -1.1802 -0.8905
  171SOPE   H2S19304   1.641   0.127   6.851  0.2339 -1.4829 -0.2332
  171SOPE    C319305   1.755   0.520   6.700 -0.1510  0.3408  0.3270
  171SOPE    HX19306   1.650   0.509   6.735 -0.4273  1.4787 -0.1260
  171SOPE    HY19307   1.766   0.606   6.631  0.6417 -0.7184 -0.9261
  171SOPE   O3119308   1.839   0.521   6.816  0.2388 -0.0958  0.3558
  171SOPE   C3119309   1.948   0.584   6.819 -0.2794  0.6874 -0.4522
  171SOPE   O3219310   1.990   0.646   6.725 -0.5497 -0.3319 -0.4193
  171SOPE   C3219311   2.012   0.572   6.958 -0.5102  0.2192 -0.0636
  171SOPE   H2X19312   2.111   0.620   6.940 -0.8975  1.8434  1.7789
  171SOPE   H2Y19313   2.034   0.466   6.985 -1.9496 -0.6591 -2.1649
  171SOPE   C2319314   1.758   0.194   7.037  0.4111  0.1763 -1.0103
  171SOPE   H3R19315   1.854   0.244   7.062  1.0614 -1.6152  0.2401
  171SOPE   H3S19316   1.753   0.108   7.107 -1.8712  0.6999 -0.4556
  171SOPE   C2419317   1.636   0.280   7.080  0.3536 -0.4699 -0.9101
  171SOPE   H4R19318   1.659   0.387   7.059  2.4933 -0.4596  1.1586
  171SOPE   H4S19319   1.547   0.232   7.034 -0.8513 -0.0148  0.8194
  171SOPE   C2519320   1.596   0.267   7.231  0.3918  0.4013  0.8439
  171SOPE   H5R19321   1.512   0.339   7.236  0.3590  0.2929  2.2201
  171SOPE   H5S19322   1.548   0.171   7.259 -1.7557  1.4890  1.1021
  171SOPE   C2619323   1.701   0.323   7.326  0.2658 -0.2409 -0.9511
  171SOPE   H6R19324   1.769   0.242   7.358  1.9405  1.2660 -0.5336
  171SOPE   H6S19325   1.762   0.397   7.270  1.3911 -0.7101 -0.3726
  171SOPE   C2719326   1.635   0.399   7.443 -1.0636 -0.1822 -0.3703
  171SOPE   H7R19327   1.722   0.422   7.507 -1.8013 -2.8375  1.7716
  171SOPE   H7S19328   1.583   0.492   7.410 -2.3161 -1.0238 -0.8588
  171SOPE   C2819329   1.547   0.310   7.528  0.2407 -0.0484  0.0739
  171SOPE   H8R19330   1.500   0.354   7.619 -1.7943 -2.2772  0.2110
  171SOPE   H8S19331   1.458   0.290   7.463 -0.2064 -1.9527  1.1938
  171SOPE   C2919332   1.622   0.179   7.556  0.1381  0.1219  0.1311
  171SOPE   H9119333   1.627   0.098   7.482  2.7885  0.3262 -0.0170
  171SOPE  C21019334   1.677   0.151   7.678 -0.1372 -0.3812  0.1291
  171SOPE  H10119335   1.719   0.050   7.694 -1.0304 -0.6392  0.8969
  171SOPE  C21119336   1.683   0.238   7.807 -0.1345 -0.0825  0.1348
  171SOPE  H11R19337   1.587   0.234   7.863  0.3033  0.2635  0.9256
  171SOPE  H11S19338   1.697   0.343   7.774 -1.8657  0.0046 -0.4428
  171SOPE  C21219339   1.790   0.183   7.899  0.3407 -0.0618 -0.2508
  171SOPE  H12R19340   1.887   0.200   7.848  1.5023 -1.6837  1.2764
  171SOPE  H12S19341   1.782   0.072   7.909  0.3679 -0.2924 -2.3477
  171SOPE  C21319342   1.807   0.260   8.036  0.5279  0.2280  0.5917
  171SOPE  H13R19343   1.707   0.266   8.085 -0.5320 -1.2601 -1.2457
  171SOPE  H13S19344   1.846   0.360   8.010  1.4432 -0.5376 -1.1605
  171SOPE  C21419345   1.914   0.199   8.128 -0.1787  0.4307  0.0028
  171SOPE  H14R19346   2.008   0.251   8.101  0.7569 -0.0530  2.1615
  171SOPE  H14S19347   1.923   0.094   8.092 -1.0775 -1.0195  3.5538
  171SOPE  C21519348   1.868   0.204   8.276  0.0451  0.3654  0.2295
  171SOPE  H15R19349   1.959   0.179   8.334  0.4046 -0.3192 -0.5968
  171SOPE  H15S19350   1.788   0.129   8.298  1.5011 -0.8363  1.6535
  171SOPE  C21619351   1.832   0.345   8.333  0.0841 -0.2107 -0.0323
  171SOPE  H16R19352   1.722   0.345   8.318 -0.3748  0.1155  2.8026
  171SOPE  H16S19353   1.874   0.415   8.258 -0.7006 -0.2491 -0.5186
  171SOPE  C21719354   1.871   0.374   8.477  0.1224  0.3163  0.1448
  171SOPE  H17R19355   1.980   0.369   8.496  0.0184  0.9257  0.9564
  171SOPE  H17S19356   1.825   0.292   8.536 -0.5084 -0.0821 -0.8565
  171SOPE  C21819357   1.818   0.507   8.531  0.9316 -0.3769 -0.7365
  171SOPE  H18R19358   1.874   0.526   8.625 -0.4168 -1.3860  0.3000
  171SOPE  H18S19359   1.708   0.503   8.542  1.1141 -1.6924  1.1429
  171SOPE  H18T19360   1.856   0.598   8.479  2.8553 -0.0227  1.1643
  171SOPE   C3319361   1.936   0.650   7.067  0.2163  0.2233  0.2110
  171SOPE   H3X19362   1.829   0.618   7.065 -0.0533  0.8306  2.3154
  171SOPE   H3Y19363   1.927   0.759   7.046  0.6318  0.1550 -0.3646
  171SOPE   C3419364   1.990   0.622   7.206 -0.3843  0.3684 -0.0682
  171SOPE   H4X19365   2.093   0.660   7.224 -1.2576  1.6776  2.8374
  171SOPE   H4Y19366   1.991   0.514   7.230  0.3263  0.5666  0.8453
  171SOPE   C3519367   1.902   0.690   7.313 -0.4230  0.3570 -0.3062
  171SOPE   H5X19368   1.804   0.639   7.316 -1.0973  1.6566  1.0422
  171SOPE   H5Y19369   1.888   0.799   7.295  3.9058  0.7938 -2.3063
  171SOPE   C3619370   1.961   0.666   7.457 -0.2722  0.2218 -0.4967
  171SOPE   H6X19371   2.062   0.711   7.448 -0.2703  0.1246 -0.9904
  171SOPE   H6Y19372   1.976   0.558   7.474  0.3190  0.6459  1.9709
  171SOPE   C3719373   1.894   0.740   7.568 -0.4177 -0.4800  0.4602
  171SOPE   H7X19374   1.784   0.724   7.566 -1.4842  4.5995  2.1293
  171SOPE   H7Y19375   1.895   0.850   7.552  2.1634 -0.4680  0.2500
  171SOPE   C3819376   1.931   0.704   7.705 -0.3426  0.0267  0.0014
  171SOPE   H8X19377   1.954   0.595   7.715 -1.2118 -0.4828 -2.8309
  171SOPE   H8Y19378   1.840   0.719   7.767  0.7173 -0.9045  1.9175
  171SOPE   C3919379   2.038   0.807   7.765 -0.2064 -0.1588  0.2653
  171SOPE   H9X19380   2.027   0.900   7.705 -1.4017  0.8527  1.9323
  171SOPE   H9Y19381   2.142   0.768   7.762  1.0785  2.7168  2.3548
  171SOPE  C31019382   2.009   0.852   7.913  0.0574  0.0340  0.2673
  171SOPE  H10X19383   1.904   0.888   7.923 -0.9091 -1.8612 -2.1384
  171SOPE  H10Y19384   2.077   0.938   7.933 -0.4793  0.5853 -0.2397
  171SOPE  C31119385   2.041   0.735   8.018  0.1595 -0.4162 -0.1405
  171SOPE  H11X19386   2.145   0.707   7.989  0.2595  0.0284 -0.2205
  171SOPE  H11Y19387   1.977   0.645   8.004 -0.1900 -0.4547  1.4113
  171SOPE  C31219388   2.047   0.779   8.163  0.5275 -0.0381  0.6034
  171SOPE  H12X19389   1.955   0.839   8.180  1.1095  1.8219 -2.1379
  171SOPE  H12Y19390   2.130   0.852   8.171  1.7492 -1.2465 -0.4624
  171SOPE  C31319391   2.085   0.665   8.258 -0.1043 -0.0025 -0.2894
  171SOPE  H13X19392   2.170   0.612   8.209 -0.5949  1.0695 -2.4259
  171SOPE  H13Y19393   2.001   0.594   8.271  0.2424 -0.6943 -1.6279
  171SOPE  C31419394   2.142   0.713   8.395  0.4585 -0.6995  0.0141
  171SOPE  H14X19395   2.060   0.763   8.452  1.6649  0.2796  0.9445
  171SOPE  H14Y19396   2.222   0.788   8.376 -1.4933  1.4560 -0.1133
  171SOPE  C31519397   2.193   0.605   8.487  0.9709  0.5436  0.0805
  171SOPE  H15X19398   2.274   0.540   8.448  0.6513 -1.5021  2.5450
  171SOPE  H15Y19399   2.107   0.537   8.508  0.6304  1.5062  2.1297
  171SOPE  C31619400   2.230   0.654   8.631  0.3100 -0.4550  0.5679
  171SOPE  H16X19401   2.157   0.726   8.672  1.0285  1.0758 -0.7461
  171SOPE  H16Y19402   2.326   0.709   8.620  0.2536 -0.7197 -1.7698
  171SOPE  C31719403   2.239   0.539   8.735  0.8298 -0.6282  0.3996
  171SOPE  H17X19404   2.149   0.475   8.746  1.1629 -1.2618 -0.4653
  171SOPE  H17Y19405   2.265   0.579   8.836  3.6769  0.8060 -0.7636
  171SOPE  C31819406   2.361   0.438   8.718 -0.2435  0.3328  0.2255
  171SOPE  H18X19407   2.357   0.376   8.810 -1.7953 -0.1110 -0.1078
  171SOPE  H18Y19408   2.456   0.493   8.705  0.5539 -0.6941  1.4659
  171SOPE  H18Z19409   2.336   0.377   8.628  2.1108  2.1890 -1.8310
  172SOPE     N19410   2.297   3.381   5.776  0.1358  0.5716 -0.2036
  172SOPE   HN119411   2.293   3.413   5.677  0.3572 -0.2016 -0.4645
  172SOPE   HN219412   2.379   3.420   5.828  0.2487  1.0812 -0.7577
  172SOPE   HN319413   2.299   3.278   5.782 -1.9440  0.4145 -1.5002
  172SOPE   C1219414   2.178   3.427   5.858  0.4552 -0.4482 -0.3563
  172SOPE  H12A19415   2.088   3.385   5.810 -1.3571  0.7398  1.8062
  172SOPE  H12B19416   2.174   3.536   5.836 -2.6387 -0.8132 -2.1690
  172SOPE   C1119417   2.192   3.397   6.011 -0.4034  0.1052 -0.2549
  172SOPE  H11A19418   2.092   3.420   6.054 -1.6536  1.0418 -3.3828
  172SOPE  H11B19419   2.270   3.459   6.059 -0.4814 -0.6172  0.8522
  172SOPE     P19420   2.245   3.188   6.166  0.0617  0.4512 -0.0570
  172SOPE   O1319421   2.373   3.116   6.151 -1.0205 -0.1598 -0.1409
  172SOPE   O1419422   2.127   3.104   6.194  0.2328  0.2647 -0.3516
  172SOPE   O1219423   2.215   3.256   6.029 -0.0896  0.3827  0.6490
  172SOPE   O1119424   2.256   3.307   6.271 -0.0019 -0.8624  0.4731
  172SOPE    C119425   2.370   3.348   6.337  0.0176 -0.4040 -0.0595
  172SOPE    HA19426   2.348   3.454   6.364 -0.0539 -0.2741 -0.6126
  172SOPE    HB19427   2.463   3.340   6.276  0.9556  0.8775  1.1338
  172SOPE    C219428   2.389   3.270   6.470  0.2005 -0.0145 -0.0455
  172SOPE    HS19429   2.450   3.185   6.435  0.5285 -0.9019  2.5103
  172SOPE   O2119430   2.254   3.237   6.514  0.1799 -0.2394  0.7088
  172SOPE   C2119431   2.237   3.108   6.547 -0.1445  0.2241 -0.2762
  172SOPE   O2219432   2.328   3.025   6.542 -0.7927 -0.2583  0.3952
  172SOPE   C2219433   2.099   3.079   6.611 -0.6326 -0.3592  0.1434
  172SOPE   H2R19434   2.028   3.088   6.526  0.0419  0.9260 -0.3132
  172SOPE   H2S19435   2.062   3.166   6.670 -1.1732  0.5549 -1.4778
  172SOPE    C319436   2.468   3.337   6.582 -0.1820 -0.8157 -0.1322
  172SOPE    HX19437   2.418   3.434   6.605 -1.1592 -1.3960  0.2842
  172SOPE    HY19438   2.566   3.369   6.543  0.5393 -0.7750  1.6000
  172SOPE   O3119439   2.496   3.254   6.699  0.4544  0.2972  0.1004
  172SOPE   C3119440   2.424   3.271   6.810  0.4607  0.7796  0.0562
  172SOPE   O3219441   2.334   3.355   6.820 -0.1308 -0.2443  0.5325
  172SOPE   C3219442   2.465   3.168   6.913  0.6542  0.1460  0.4596
  172SOPE   H2X19443   2.577   3.168   6.917  0.6969 -0.3861 -0.3647
  172SOPE   H2Y19444   2.444   3.064   6.878  0.9575  0.1244  0.3325
  172SOPE   C2319445   2.082   2.945   6.685 -0.0185 -0.2330  0.1576
  172SOPE   H3R19446   2.133   2.860   6.636  1.8815  0.3063  1.1188
  172SOPE   H3S19447   1.972   2.924   6.686 -0.0692 -0.0398  2.2019
  172SOPE   C2419448   2.119   2.941   6.835  0.5354 -0.7143  0.3474
  172SOPE   H4R19449   2.225   2.970   6.852  0.8004 -2.4557  1.9915
  172SOPE   H4S19450   2.062   3.027   6.877  2.7975  1.9126 -1.6000
  172SOPE   C2519451   2.097   2.816   6.912 -0.1872  0.4703  0.0209
  172SOPE   H5R19452   2.004   2.766   6.877  0.6312 -0.5415 -0.7464
  172SOPE   H5S19453   2.179   2.745   6.891  1.0926  1.8495  0.1971
  172SOPE   C2619454   2.089   2.827   7.063 -0.2711 -0.3667 -0.0818
  172SOPE   H6R19455   2.178   2.883   7.099 -1.0389  2.7868 -2.5851
  172SOPE   H6S19456   2.011   2.899   7.093 -0.7576 -0.4078 -1.2050
  172SOPE   C2719457   2.085   2.696   7.141  0.1813  0.1404 -0.0412
  172SOPE   H7R19458   1.983   2.654   7.125  1.1086 -1.7088 -1.3802
  172SOPE   H7S19459   2.149   2.618   7.096  1.3906  1.1419 -0.0965
  172SOPE   C2819460   2.122   2.720   7.290 -0.2317 -0.0303  0.9395
  172SOPE   H8R19461   2.229   2.747   7.297  0.0842 -1.0739  0.2615
  172SOPE   H8S19462   2.075   2.809   7.336 -0.1131 -0.0612  1.1190
  172SOPE   C2919463   2.091   2.591   7.376 -0.5106  0.3746 -0.1172
  172SOPE   H9119464   2.106   2.492   7.330  2.2248  0.7001 -0.1219
  172SOPE  C21019465   2.038   2.593   7.499 -0.5500 -0.8806  0.0811
  172SOPE  H10119466   2.021   2.495   7.546 -2.0580 -1.6948 -2.0151
  172SOPE  C21119467   1.984   2.713   7.564 -1.4003 -0.5096  0.4691
  172SOPE  H11R19468   1.883   2.686   7.601 -3.0595  1.7133 -2.0744
  172SOPE  H11S19469   1.981   2.802   7.497  0.4036 -1.2728 -0.7171
  172SOPE  C21219470   2.066   2.748   7.692 -0.2170  0.2671 -0.0579
  172SOPE  H12R19471   2.017   2.836   7.739 -0.7094  0.0416 -0.1390
  172SOPE  H12S19472   2.166   2.789   7.669 -0.4828  0.4003 -1.0301
  172SOPE  C21319473   2.072   2.635   7.802  0.2221 -0.5799  0.4094
  172SOPE  H13R19474   2.125   2.545   7.763  1.0796  0.8099 -1.8752
  172SOPE  H13S19475   1.969   2.601   7.824 -0.3819  0.9207 -0.0157
  172SOPE  C21419476   2.144   2.672   7.936  0.0815 -0.3869 -0.4600
  172SOPE  H14R19477   2.144   2.583   8.003  0.4906  0.0313  0.1028
  172SOPE  H14S19478   2.090   2.751   7.993 -0.8204 -0.1831 -1.5566
  172SOPE  C21519479   2.291   2.722   7.923  1.2227 -0.2234 -0.0443
  172SOPE  H15R19480   2.281   2.817   7.867  1.5599 -0.1756 -0.0255
  172SOPE  H15S19481   2.349   2.647   7.864 -1.7521 -2.3670 -0.4551
  172SOPE  C21619482   2.372   2.739   8.053 -0.8740 -0.3275  0.1205
  172SOPE  H16R19483   2.343   2.656   8.121 -2.2426 -0.2444 -0.3474
  172SOPE  H16S19484   2.345   2.828   8.113  1.7085  1.3389 -0.9963
  172SOPE  C21719485   2.523   2.732   8.024 -0.0252 -0.7840 -0.1990
  172SOPE  H17R19486   2.543   2.804   7.941  1.0797 -2.3690 -1.3831
  172SOPE  H17S19487   2.544   2.631   7.985  1.6734 -1.3433  1.9810
  172SOPE  C21819488   2.601   2.763   8.145 -0.3500  0.1121  0.4738
  172SOPE  H18R19489   2.710   2.771   8.126 -0.2840 -0.5903  0.5352
  172SOPE  H18S19490   2.570   2.686   8.218 -0.8111 -1.8676 -1.6977
  172SOPE  H18T19491   2.574   2.857   8.198 -0.6788  0.7523 -0.7986
  172SOPE   C3319492   2.411   3.189   7.054  0.3343 -0.0649  0.0872
  172SOPE   H3X19493   2.300   3.192   7.050  0.3585 -0.5214 -1.1968
  172SOPE   H3Y19494   2.433   3.289   7.097  0.4394 -0.5085  1.0866
  172SOPE   C3419495   2.446   3.079   7.150  0.0746  0.0605  0.4936
  172SOPE   H4X19496   2.555   3.060   7.162  0.4114  1.6794  0.1998
  172SOPE   H4Y19497   2.392   2.986   7.124 -0.1867  1.0539 -2.9084
  172SOPE   C3519498   2.398   3.101   7.294 -0.2996 -0.0090 -0.4480
  172SOPE   H5X19499   2.289   3.121   7.287 -0.5620 -0.0310  2.3718
  172SOPE   H5Y19500   2.436   3.194   7.339 -2.4260  1.1002 -0.7982
  172SOPE   C3619501   2.436   2.983   7.393  0.4666  0.4538 -0.1096
  172SOPE   H6X19502   2.545   2.969   7.406  0.5830  2.4634  1.5658
  172SOPE   H6Y19503   2.415   2.892   7.332  2.8116  0.4188 -0.9534
  172SOPE   C3719504   2.356   2.973   7.524 -0.3486 -1.2278  0.4653
  172SOPE   H7X19505   2.353   2.869   7.560 -1.6321 -1.1813  0.5585
  172SOPE   H7Y19506   2.251   2.996   7.496 -0.1149  0.9833  1.1775
  172SOPE   C3819507   2.400   3.080   7.626 -0.2476  0.4871 -0.5655
  172SOPE   H8X19508   2.317   3.087   7.700 -1.3048 -2.7974 -1.2834
  172SOPE   H8Y19509   2.402   3.180   7.577 -1.6854  0.2338 -1.2093
  172SOPE   C3919510   2.529   3.046   7.703 -0.9549 -0.3345  0.1554
  172SOPE   H9X19511   2.613   3.045   7.630 -0.9715 -2.1546  0.1183
  172SOPE   H9Y19512   2.518   2.942   7.741  0.1657 -0.4658  0.1607
  172SOPE  C31019513   2.578   3.132   7.815 -0.3623 -0.3882  0.0845
  172SOPE  H10X19514   2.500   3.157   7.890  1.3010  1.8337  1.2015
  172SOPE  H10Y19515   2.611   3.230   7.772  0.1957 -0.4512  0.3629
  172SOPE  C31119516   2.706   3.079   7.873 -0.1906 -1.1924  0.4766
  172SOPE  H11X19517   2.784   3.087   7.795 -0.9985  0.0704 -0.2250
  172SOPE  H11Y19518   2.705   2.970   7.896 -3.8043 -2.0545 -2.7921
  172SOPE  C31219519   2.758   3.150   8.000 -0.2473 -0.4324  0.1683
  172SOPE  H12X19520   2.693   3.119   8.084 -0.0501 -2.3148 -0.3395
  172SOPE  H12Y19521   2.755   3.260   7.986 -2.2491 -0.4561  0.1336
  172SOPE  C31319522   2.899   3.105   8.020  0.5192 -0.3066  0.1470
  172SOPE  H13X19523   2.961   3.141   7.935 -0.4718  2.1908  0.3940
  172SOPE  H13Y19524   2.900   2.994   8.025 -1.8251 -0.4472 -1.1082
  172SOPE  C31419525   2.968   3.156   8.146 -0.0456  0.9075 -0.1387
  172SOPE  H14X19526   3.062   3.100   8.162 -0.3445  0.4309 -0.0330
  172SOPE  H14Y19527   2.909   3.118   8.232 -0.0322 -1.1742 -0.9831
  172SOPE  C31519528   2.985   3.303   8.149  0.0010 -0.1071  0.6605
  172SOPE  H15X19529   2.892   3.362   8.164  0.0484  0.1143  0.1315
  172SOPE  H15Y19530   3.018   3.317   8.043 -2.2889  0.0731 -0.0736
  172SOPE  C31619531   3.087   3.357   8.252  0.0553  1.1325  0.8384
  172SOPE  H16X19532   3.181   3.297   8.255  0.6392  2.0356  1.0069
  172SOPE  H16Y19533   3.059   3.350   8.359  0.1838  1.1548  0.8746
  172SOPE  C31719534   3.114   3.507   8.237 -0.3115 -0.6529  0.3703
  172SOPE  H17X19535   3.035   3.565   8.290  0.3845  0.4811  0.2097
  172SOPE  H17Y19536   3.110   3.542   8.132  1.2471  0.9474  0.7902
  172SOPE  C31819537   3.246   3.538   8.306 -1.0064 -0.1571 -0.7985
  172SOPE  H18X19538   3.245   3.491   8.407  1.8180  1.1603 -0.0799
  172SOPE  H18Y19539   3.273   3.645   8.297  0.2000 -0.4950 -1.3808
  172SOPE  H18Z19540   3.319   3.477   8.249 -2.1862 -2.6395  0.2052
  173SAPI   C1219541   5.945   0.919  10.962  0.8599  0.0898 -0.4413
  173SAPI    H219542   5.886   0.844  10.906 -1.7741  0.3773  1.7276
  173SAPI    O219543   5.881   0.946  11.086  0.4917  0.1019 -0.3689
  173SAPI   HO219544   5.786   0.958  11.073 -0.4678 -2.1014  3.1865
  173SAPI   C1319545   6.082   0.863  10.980  0.4832  0.3653 -0.2821
  173SAPI    H319546   6.131   0.855  10.881  1.3562 -2.0008  0.2782
  173SAPI    O319547   6.077   0.728  11.032 -0.4067  0.2946 -0.3858
  173SAPI   HO319548   6.157   0.680  11.011 -0.5383  0.0034 -0.2243
  173SAPI   C1419549   6.175   0.962  11.048 -0.1558  0.4348 -0.6048
  173SAPI    H419550   6.129   0.992  11.145 -0.4651 -0.9092 -0.3102
  173SAPI    O419551   6.306   0.899  11.059  0.6785 -0.1345 -0.1299
  173SAPI   HO419552   6.332   0.874  10.970 -1.5510  0.8605 -1.1232
  173SAPI   C1519553   6.189   1.093  10.975  0.9692 -0.1458  0.0642
  173SAPI    H519554   6.239   1.076  10.878 -1.0836 -1.4044 -0.8362
  173SAPI    O519555   6.270   1.190  11.040  0.2772 -0.1231 -0.6540
  173SAPI   HO519556   6.215   1.229  11.108 -1.1689  1.0620 -2.4077
  173SAPI   C1619557   6.043   1.144  10.941 -0.0323  0.7071 -0.0404
  173SAPI    H619558   5.995   1.176  11.036 -0.3609  1.0045 -0.3042
  173SAPI    O619559   6.041   1.260  10.864 -0.1022 -0.1984 -0.2652
  173SAPI   HO619560   5.947   1.278  10.851  0.0727  0.5324 -0.5944
  173SAPI   C1119561   5.967   1.045  10.874  0.2626 -0.1380  0.4832
  173SAPI    H119562   6.025   1.009  10.786 -1.8265  0.6738 -1.3202
  173SAPI     P19563   5.772   1.039  10.686 -0.0172  0.1543 -0.0849
  173SAPI   O1319564   5.629   1.072  10.670 -0.1298 -0.7146 -0.1561
  173SAPI   O1419565   5.792   0.892  10.678 -0.1294 -0.2452  0.5559
  173SAPI   O1219566   5.837   1.092  10.828  0.2658  0.5946 -0.6178
  173SAPI   O1119567   5.853   1.115  10.586  0.0548  0.1156 -0.2252
  173SAPI    C119568   5.894   1.249  10.583  0.0908 -0.3383  0.3609
  173SAPI    HA19569   5.846   1.306  10.666 -0.2701 -0.4893  0.2599
  173SAPI    HB19570   6.001   1.258  10.612 -0.3287 -0.9703  2.2687
  173SAPI    C219571   5.872   1.322  10.448  0.4891  0.4888 -0.7914
  173SAPI    HS19572   5.769   1.362  10.437 -0.8878 -3.0068 -1.8106
  173SAPI   O2119573   5.905   1.228  10.344  0.0268 -0.1692 -0.5030
  173SAPI   C2119574   5.795   1.156  10.303 -0.6260  0.3097 -0.2752
  173SAPI   O2219575   5.684   1.198  10.321 -0.2285 -0.0642  0.5327
  173SAPI   C2219576   5.830   1.029  10.236 -0.3654 -0.1573  0.1281
  173SAPI   H2R19577   5.940   1.035  10.234 -0.3235  1.2113  2.6016
  173SAPI   H2S19578   5.802   0.943  10.301  1.9763 -1.4849 -0.5195
  173SAPI    C319579   5.948   1.460  10.432  0.5235  0.6545 -0.6509
  173SAPI    HX19580   6.056   1.436  10.448  0.5399 -0.8482 -2.6131
  173SAPI    HY19581   5.908   1.523  10.514 -0.4795 -0.5979 -0.1448
  173SAPI   O3119582   5.949   1.523  10.306 -0.2604 -0.5477  0.2320
  173SAPI   C3119583   5.840   1.582  10.253  0.0869  0.6539 -0.5247
  173SAPI   O3219584   5.734   1.586  10.314  0.2069 -0.0578  0.4424
  173SAPI   C3219585   5.887   1.666  10.135 -0.6514  0.1104  0.5614
  173SAPI   H2X19586   5.996   1.646  10.124 -0.2199  2.3275  0.2603
  173SAPI   H2Y19587   5.893   1.773  10.165  1.7744  0.2887 -0.3571
  173SAPI   C2319588   5.780   1.018  10.088  0.3298  0.3996 -0.5218
  173SAPI   H3R19589   5.791   1.122  10.048 -0.5049  0.9267  0.5873
  173SAPI   H3S19590   5.669   1.022  10.090  0.3466  1.5376 -0.9609
  173SAPI   C2419591   5.848   0.912   9.997 -0.5115 -0.1448  0.3469
  173SAPI   H4R19592   5.796   0.915   9.899  1.1798 -1.3076 -0.6174
  173SAPI   H4S19593   5.821   0.810  10.032  0.2537 -0.4431  0.0754
  173SAPI   C2519594   5.996   0.925   9.985  0.5870  0.1290  0.0303
  173SAPI   H5R19595   6.056   0.892  10.071 -0.5182  1.5326  1.4069
  173SAPI   C2619596   6.057   0.976   9.873 -0.1709  0.0893 -0.3134
  173SAPI   H6R19597   6.166   0.989   9.882  0.2286 -1.3494 -2.4149
  173SAPI   C2719598   5.993   1.028   9.749 -0.1095 -0.4245  0.2418
  173SAPI   H7R19599   5.953   1.128   9.774 -1.7173 -0.4429 -1.9707
  173SAPI   H7S19600   5.910   0.957   9.730 -0.0580 -0.1498 -1.0954
  173SAPI   C2819601   6.094   1.034   9.632  0.6086  0.1141 -0.0046
  173SAPI   H8R19602   6.178   1.104   9.646 -1.2989  2.3156  0.9790
  173SAPI   C2919603   6.083   0.973   9.505 -0.4160 -0.1553 -0.9274
  173SAPI   H9R19604   6.175   0.991   9.447 -0.7600  3.3676 -0.5749
  173SAPI  C21019605   5.974   0.877   9.460 -0.9357  0.2042 -0.5946
  173SAPI  H10R19606   5.875   0.925   9.446 -1.8242 -1.6893 -1.1871
  173SAPI  H10S19607   5.950   0.797   9.533  1.2050 -0.9113 -1.0153
  173SAPI  C21119608   6.002   0.793   9.340  0.8249  0.4418 -0.3079
  173SAPI  H11R19609   6.021   0.686   9.357  0.6312  0.3871 -0.4355
  173SAPI  C21219610   6.002   0.833   9.212  0.6734 -0.1410 -0.2729
  173SAPI  H12R19611   6.024   0.760   9.133  0.9039 -1.2021  0.7467
  173SAPI  C21319612   5.975   0.980   9.181 -0.5869  0.1286 -0.1838
  173SAPI  H13R19613   6.045   1.041   9.243 -1.2470 -1.1236  1.9088
  173SAPI  H13S19614   5.875   1.010   9.218 -0.6685  0.9558 -1.0443
  173SAPI  C21419615   5.978   1.024   9.038  0.4870 -0.1374  0.2117
  173SAPI  H14R19616   6.054   1.101   9.018  0.9256 -0.4765  0.5375
  173SAPI  C21519617   5.907   0.982   8.936  0.1909  0.1584  0.1267
  173SAPI  H15R19618   5.921   1.022   8.834 -1.8137 -1.6972 -0.9433
  173SAPI  C21619619   5.798   0.868   8.926  0.5274  0.2909  0.3113
  173SAPI  H16R19620   5.719   0.903   8.857  2.4565  2.3366 -1.0071
  173SAPI  H16S19621   5.758   0.857   9.029  1.3736 -0.1403  0.5995
  173SAPI  C21719622   5.838   0.731   8.872 -0.0790 -0.0415 -0.5029
  173SAPI  H17R19623   5.763   0.650   8.877 -0.4318  0.3522  1.0514
  173SAPI  H17S19624   5.918   0.695   8.941 -0.5486  0.2530  0.2091
  173SAPI  C21819625   5.893   0.746   8.733  0.6383  0.4187  0.5288
  173SAPI  H18R19626   5.985   0.808   8.722  2.5474 -2.7154 -4.4483
  173SAPI  H18S19627   5.825   0.798   8.661 -2.2687 -0.7823  2.2098
  173SAPI  C21919628   5.916   0.611   8.670  0.4450  0.5828 -0.5717
  173SAPI  H19R19629   5.824   0.549   8.670  1.4941 -1.0635  0.3072
  173SAPI  H19S19630   5.995   0.564   8.732 -1.0122  0.9988  1.7132
  173SAPI  C22019631   5.962   0.615   8.526  0.4838 -0.5327  0.0257
  173SAPI  H20R19632   5.869   0.629   8.467  0.4231 -1.1186 -0.0262
  173SAPI  H20S19633   6.000   0.517   8.489 -1.9521 -1.5647  0.0487
  173SAPI  H20T19634   6.040   0.694   8.523 -1.6393  1.6972  0.6733
  173SAPI   C3319635   5.817   1.652  10.000 -0.0400  0.8405 -0.3896
  173SAPI   H3X19636   5.710   1.677  10.012  0.1236  1.0968  0.7190
  173SAPI   H3Y19637   5.820   1.545   9.969 -0.6240  0.4362  0.8844
  173SAPI   C3419638   5.881   1.747   9.893  0.7394 -0.4416 -0.5306
  173SAPI   H4X19639   5.985   1.708   9.886 -0.1021 -2.7665 -0.8166
  173SAPI   H4Y19640   5.887   1.846   9.942 -2.7496 -1.2126  1.8287
  173SAPI   C3519641   5.798   1.758   9.763  0.5643  0.4665  0.5787
  173SAPI   H5X19642   5.707   1.809   9.801  0.7920  1.1078  0.2826
  173SAPI   H5Y19643   5.765   1.655   9.736 -2.1720  1.6245 -0.8635
  173SAPI   C3619644   5.863   1.844   9.665 -0.2559 -0.2954  0.5135
  173SAPI   H6X19645   5.954   1.791   9.628  0.8152 -0.7685  3.5154
  173SAPI   H6Y19646   5.889   1.942   9.710 -0.0579  1.3808 -2.9542
  173SAPI   C3719647   5.782   1.862   9.531 -0.2127  0.4520 -0.1888
  173SAPI   H7X19648   5.677   1.893   9.551  0.0936  1.5327 -0.1955
  173SAPI   H7Y19649   5.773   1.761   9.488 -0.9212  1.3711 -2.3203
  173SAPI   C3819650   5.860   1.957   9.440 -0.1758  0.5638 -0.0109
  173SAPI   H8X19651   5.954   1.909   9.406 -1.5303 -0.3863 -2.6935
  173SAPI   H8Y19652   5.891   2.050   9.494 -1.3754  1.0198 -0.0794
  173SAPI   C3919653   5.773   2.010   9.322 -0.1497 -0.5391  0.3856
  173SAPI   H9X19654   5.826   2.084   9.259  1.6563 -2.9598 -1.1391
  173SAPI   H9Y19655   5.677   2.048   9.364  0.2458 -0.2343  1.0388
  173SAPI  C31019656   5.738   1.902   9.220 -0.6725 -0.2673  0.9246
  173SAPI  H10X19657   5.676   1.825   9.270 -0.3154 -0.1115  1.6068
  173SAPI  H10Y19658   5.834   1.868   9.174 -2.0263  0.5047 -2.8631
  173SAPI  C31119659   5.669   1.949   9.089 -0.0966 -0.3247 -0.5466
  173SAPI  H11X19660   5.723   2.036   9.046  0.2417 -0.5376 -0.5539
  173SAPI  H11Y19661   5.568   1.986   9.117 -0.6792 -1.7057 -0.7071
  173SAPI  C31219662   5.660   1.851   8.972 -0.6986 -0.7725  0.0496
  173SAPI  H12X19663   5.611   1.754   8.996 -2.4221 -0.5161 -2.0461
  173SAPI  H12Y19664   5.764   1.837   8.935 -0.3183  2.3346 -0.3075
  173SAPI  C31319665   5.576   1.902   8.852 -0.6914  0.2133  0.9584
  173SAPI  H13X19666   5.626   1.989   8.804  1.4435 -0.6230  1.5343
  173SAPI  H13Y19667   5.471   1.931   8.874 -1.1674  0.7108 -1.6118
  173SAPI  C31419668   5.554   1.788   8.739 -0.6222  0.0212 -0.1366
  173SAPI  H14X19669   5.512   1.839   8.649  0.2229 -0.4253 -0.7896
  173SAPI  H14Y19670   5.485   1.715   8.787 -1.5761  0.8173 -0.2552
  173SAPI  C31519671   5.684   1.714   8.705 -0.5181  0.0500  0.6971
  173SAPI  H15X19672   5.741   1.665   8.788 -0.8276  0.0211  0.8937
  173SAPI  H15Y19673   5.762   1.782   8.664 -0.0618 -0.3795  0.8347
  173SAPI  C31619674   5.668   1.607   8.597 -0.3834  0.2944 -0.3427
  173SAPI  H16X19675   5.581   1.541   8.616 -0.4102  0.6690  0.9483
  173SAPI  H16Y19676   5.755   1.539   8.592 -2.1795 -2.0390 -1.8990
  173SAPI  C31719677   5.646   1.663   8.448  0.2361  1.0786 -0.4819
  173SAPI  H17X19678   5.729   1.731   8.419  1.1200  1.2049  2.0402
  173SAPI  H17Y19679   5.554   1.724   8.446  0.0841  0.8890  0.1854
  173SAPI  C31819680   5.620   1.552   8.342  0.7737 -0.1318 -0.0336
  173SAPI  H18X19681   5.591   1.607   8.250 -0.4234 -0.9223 -0.1536
  173SAPI  H18Y19682   5.539   1.483   8.374  0.6898 -0.0288 -0.0264
  173SAPI  H18Z19683   5.709   1.486   8.327 -0.0717 -1.3229  0.0276
  174SAPI   C1219684   1.352   2.291  10.755 -0.0945  0.1733  0.0645
  174SAPI    H219685   1.353   2.189  10.800  3.2875  0.0472 -0.0252
  174SAPI    O219686   1.342   2.385  10.857 -0.2007  0.0001  0.1279
  174SAPI   HO219687   1.269   2.365  10.916  0.5783  0.4480  1.2811
  174SAPI   C1319688   1.486   2.308  10.690 -0.6109 -0.2428  0.4082
  174SAPI    H319689   1.493   2.222  10.620 -3.7947  1.2873 -2.0274
  174SAPI    O319690   1.598   2.290  10.778  0.3668 -0.0041  0.2419
  174SAPI   HO319691   1.567   2.293  10.868  0.1196 -0.3594  0.1714
  174SAPI   C1419692   1.492   2.430  10.609 -0.0965 -0.7415  0.1017
  174SAPI    H419693   1.484   2.516  10.679 -1.3634 -1.6937  1.1770
  174SAPI    O419694   1.615   2.449  10.547 -0.2412  0.3778  0.0262
  174SAPI   HO419695   1.682   2.497  10.597 -2.1383  0.4360  2.7287
  174SAPI   C1519696   1.374   2.436  10.509  0.2803 -0.6517  0.6603
  174SAPI    H519697   1.374   2.342  10.450 -1.0977 -0.2191 -0.0591
  174SAPI    O519698   1.379   2.540  10.420 -0.3972  0.1332 -0.1786
  174SAPI   HO519699   1.293   2.538  10.378 -1.1738  1.9792  1.1385
  174SAPI   C1619700   1.239   2.438  10.584  0.5837 -0.0690  0.4231
  174SAPI    H619701   1.239   2.522  10.657  3.4423  0.6595 -0.2489
  174SAPI    O619702   1.129   2.450  10.491 -0.7042  0.0861  0.3913
  174SAPI   HO619703   1.045   2.455  10.538 -1.5401 -1.6365 -0.7985
  174SAPI   C1119704   1.237   2.306  10.656  0.3245 -0.0091  0.0106
  174SAPI    H119705   1.256   2.225  10.581 -1.3721  0.4578 -0.9886
  174SAPI     P19706   1.031   2.151  10.738 -0.3443  0.0585 -0.1568
  174SAPI   O1319707   0.920   2.170  10.834  0.5603  0.0100  0.1210
  174SAPI   O1419708   1.125   2.038  10.758 -0.4500 -0.3908 -0.4019
  174SAPI   O1219709   1.109   2.288  10.718  0.6182 -0.1848  0.2029
  174SAPI   O1119710   0.964   2.134  10.600  0.9973  0.1327  0.6107
  174SAPI    C119711   0.867   2.229  10.547  0.0514  0.3513 -0.2869
  174SAPI    HA19712   0.765   2.203  10.584 -0.6217  0.0701 -2.2477
  174SAPI    HB19713   0.889   2.337  10.566  0.6312  0.5525 -1.9876
  174SAPI    C219714   0.842   2.202  10.400  0.7869  0.3855 -0.1707
  174SAPI    HS19715   0.829   2.093  10.381  2.3065  0.0934  0.2704
  174SAPI   O2119716   0.955   2.256  10.326 -0.1620  0.4167 -0.7067
  174SAPI   C2119717   1.023   2.176  10.249  0.1936  0.6497 -0.4981
  174SAPI   O2219718   0.987   2.060  10.226  0.1667 -0.0828  0.0336
  174SAPI   C2219719   1.141   2.254  10.194  0.1896  0.5431 -0.1800
  174SAPI   H2R19720   1.092   2.340  10.143 -2.7180 -0.6463  0.4172
  174SAPI   H2S19721   1.201   2.292  10.279 -1.0520  1.1752  0.4447
  174SAPI    C319722   0.721   2.296  10.352  0.0754 -0.7684  0.0298
  174SAPI    HX19723   0.761   2.397  10.374 -1.0837 -0.2567 -0.1389
  174SAPI    HY19724   0.629   2.276  10.411 -0.8881  3.9959  0.5285
  174SAPI   O3119725   0.701   2.283  10.206 -0.1161  0.0341 -0.1720
  174SAPI   C3119726   0.641   2.165  10.183  0.2519  0.1916 -0.1896
  174SAPI   O3219727   0.579   2.100  10.265 -0.8174 -0.0244  0.0424
  174SAPI   C3219728   0.663   2.115  10.037 -0.0470 -0.7193 -0.5891
  174SAPI   H2X19729   0.772   2.126  10.019  0.3010 -1.9938  0.6239
  174SAPI   H2Y19730   0.625   2.174   9.951  1.1691  1.7477  0.4979
  174SAPI   C2319731   1.218   2.176  10.088 -0.6411 -0.2035  0.1746
  174SAPI   H3R19732   1.254   2.085  10.140  0.6520  1.4836  2.4542
  174SAPI   H3S19733   1.310   2.232  10.059 -0.8482  0.0022 -0.0838
  174SAPI   C2419734   1.145   2.144   9.961 -0.1946 -0.1560  1.1614
  174SAPI   H4R19735   1.106   2.225   9.896 -3.7841 -1.5047  1.4167
  174SAPI   H4S19736   1.056   2.088   9.997  0.2052 -0.4131  1.7761
  174SAPI   C2519737   1.217   2.043   9.875  0.2876  0.5813  0.2449
  174SAPI   H5R19738   1.212   1.945   9.926 -1.6479  0.6397  0.2484
  174SAPI   C2619739   1.261   2.064   9.751  0.4960 -0.1243  0.1520
  174SAPI   H6R19740   1.313   1.989   9.689  2.4490  0.4600  0.9954
  174SAPI   C2719741   1.261   2.196   9.679 -0.0131  0.0045  0.2541
  174SAPI   H7R19742   1.252   2.277   9.755 -2.8125 -1.0220  1.1550
  174SAPI   H7S19743   1.174   2.209   9.610  0.2295  2.2605  0.2892
  174SAPI   C2819744   1.386   2.200   9.590  0.5619 -0.5202  0.6297
  174SAPI   H8R19745   1.477   2.195   9.652  0.1009  0.1407  1.3740
  174SAPI   C2919746   1.398   2.211   9.456 -0.2356  0.3363 -0.0546
  174SAPI   H9R19747   1.500   2.218   9.416 -0.8953  1.1427 -1.6903
  174SAPI  C21019748   1.289   2.211   9.354 -0.4351  0.4979  0.1804
  174SAPI  H10R19749   1.217   2.128   9.369 -0.2011  0.3053  0.2477
  174SAPI  H10S19750   1.338   2.158   9.269  0.4370 -0.5554  1.2857
  174SAPI  C21119751   1.222   2.337   9.321 -0.1170  0.3199  0.4703
  174SAPI  H11R19752   1.160   2.371   9.406  1.1463  0.0498  1.5279
  174SAPI  C21219753   1.234   2.409   9.207  0.3017  0.5262  0.0551
  174SAPI  H12R19754   1.190   2.509   9.194  0.3420  0.4023 -1.2204
  174SAPI  C21319755   1.318   2.369   9.089  0.8757  0.5588  0.5468
  174SAPI  H13R19756   1.243   2.377   9.006 -0.3868 -1.5352  1.4062
  174SAPI  H13S19757   1.358   2.266   9.081  0.1637  0.1120  2.3565
  174SAPI  C21419758   1.435   2.459   9.077  0.2640 -0.1842 -0.6133
  174SAPI  H14R19759   1.494   2.476   9.168 -0.2448  0.7899 -0.4496
  174SAPI  C21519760   1.479   2.515   8.963 -0.1151  0.0285 -0.7951
  174SAPI  H15R19761   1.568   2.580   8.965 -2.1568  3.0261  1.7310
  174SAPI  C21619762   1.415   2.511   8.827  0.4118 -0.2359 -0.5025
  174SAPI  H16R19763   1.304   2.521   8.831  0.4835  1.2727 -1.5150
  174SAPI  H16S19764   1.420   2.412   8.777 -1.9590 -2.5619  3.3379
  174SAPI  C21719765   1.465   2.632   8.744 -0.2101  0.7008  0.0820
  174SAPI  H17R19766   1.573   2.619   8.725 -0.4704  2.1506 -3.0906
  174SAPI  H17S19767   1.449   2.726   8.800  1.2417  0.4762  0.9073
  174SAPI  C21819768   1.405   2.641   8.607 -0.2976 -1.1607  0.5162
  174SAPI  H18R19769   1.295   2.628   8.597 -0.3800  0.8247 -2.0439
  174SAPI  H18S19770   1.458   2.560   8.551  0.3475  1.0171 -2.2535
  174SAPI  C21919771   1.440   2.773   8.541 -0.1089  0.1536  0.9987
  174SAPI  H19R19772   1.432   2.759   8.432  0.8928  0.6895  0.8458
  174SAPI  H19S19773   1.547   2.797   8.558  0.2725 -0.6493 -0.2038
  174SAPI  C22019774   1.354   2.899   8.570  0.4921  0.4179 -0.0490
  174SAPI  H20R19775   1.331   2.909   8.678  1.9216  3.2632  0.1010
  174SAPI  H20S19776   1.252   2.874   8.535  0.5639 -0.9868  0.6738
  174SAPI  H20T19777   1.392   2.996   8.531 -1.3028  0.6465 -1.3592
  174SAPI   C3319778   0.625   1.965  10.024  0.9918  0.0877 -0.3789
  174SAPI   H3X19779   0.517   1.942  10.017  1.1274 -0.8193  0.3765
  174SAPI   H3Y19780   0.652   1.913  10.119 -0.5464 -0.2007 -0.0682
  174SAPI   C3419781   0.680   1.898   9.899  0.8197  0.3925 -0.1766
  174SAPI   H4X19782   0.645   1.794   9.915 -1.1607  0.9152 -0.8341
  174SAPI   H4Y19783   0.791   1.898   9.894  1.0101 -2.6403  1.6289
  174SAPI   C3519784   0.632   1.954   9.774  0.0413 -0.6392 -0.5028
  174SAPI   H5X19785   0.680   2.054   9.759 -0.7092  0.2140  2.1969
  174SAPI   H5Y19786   0.525   1.982   9.781  0.1401 -0.2961 -0.2838
  174SAPI   C3619787   0.669   1.881   9.640  0.3838  0.6842  0.2541
  174SAPI   H6X19788   0.710   1.781   9.666  0.7463  0.7477 -0.0515
  174SAPI   H6Y19789   0.762   1.929   9.601  1.8988 -1.1389  1.4537
  174SAPI   C3719790   0.551   1.864   9.539 -0.3778  0.0435  0.0303
  174SAPI   H7X19791   0.507   1.951   9.486 -0.6819 -0.4619 -0.5654
  174SAPI   H7Y19792   0.475   1.807   9.598  2.0216 -1.9475  1.3669
  174SAPI   C3819793   0.609   1.784   9.416 -0.2776  0.9716 -0.4058
  174SAPI   H8X19794   0.659   1.691   9.448  0.7811  1.9416  0.8614
  174SAPI   H8Y19795   0.683   1.839   9.355 -0.4711  0.3554 -1.2179
  174SAPI   C3919796   0.491   1.747   9.313  0.2152  0.4762  0.4483
  174SAPI   H9X19797   0.415   1.689   9.369  2.4900 -0.5025  2.7158
  174SAPI   H9Y19798   0.548   1.682   9.243  0.8349 -0.4379  1.7569
  174SAPI  C31019799   0.432   1.866   9.241 -0.1580  0.1349  0.5477
  174SAPI  H10X19800   0.516   1.932   9.208  0.7201 -1.6414 -0.9407
  174SAPI  H10Y19801   0.371   1.921   9.316  1.2208  1.6075  0.6551
  174SAPI  C31119802   0.345   1.825   9.122 -0.3897  0.1444 -0.0164
  174SAPI  H11X19803   0.301   1.917   9.078 -2.5041 -0.8678 -0.1194
  174SAPI  H11Y19804   0.266   1.753   9.154 -1.5572  1.3863 -0.0337
  174SAPI  C31219805   0.423   1.749   9.007  0.1575  0.2747 -0.3794
  174SAPI  H12X19806   0.501   1.678   9.043 -0.2740 -0.5861 -1.0892
  174SAPI  H12Y19807   0.465   1.834   8.950 -1.1891  0.8280 -0.5761
  174SAPI  C31319808   0.329   1.679   8.908 -0.0596 -0.5105 -0.0782
  174SAPI  H13X19809   0.246   1.750   8.889 -2.1510 -2.5728  0.8772
  174SAPI  H13Y19810   0.279   1.595   8.961  0.2027 -0.7341 -0.1831
  174SAPI  C31419811   0.390   1.626   8.773 -0.1298 -0.2574 -0.9782
  174SAPI  H14X19812   0.438   1.531   8.806 -1.7540 -0.1633  2.1091
  174SAPI  H14Y19813   0.463   1.703   8.741 -1.1995  1.8255  1.2277
  174SAPI  C31519814   0.297   1.622   8.655  0.0439 -0.0399 -0.2154
  174SAPI  H15X19815   0.246   1.720   8.646  1.0435  0.7308  1.7935
  174SAPI  H15Y19816   0.209   1.556   8.670  0.3220 -0.0517  1.6492
  174SAPI  C31619817   0.368   1.594   8.523  1.1505  0.7207 -0.3745
  174SAPI  H16X19818   0.458   1.531   8.538  0.6837  0.2826  0.6308
  174SAPI  H16Y19819   0.410   1.689   8.482  2.4475 -0.1008 -1.0336
  174SAPI  C31719820   0.276   1.522   8.418 -0.0752 -0.7570  0.3487
  174SAPI  H17X19821   0.325   1.532   8.319 -0.1737 -2.3262  0.1213
  174SAPI  H17Y19822   0.176   1.571   8.418 -0.6547 -1.9149  0.6827
  174SAPI  C31819823   0.239   1.379   8.455  0.4299  0.3586 -0.3979
  174SAPI  H18X19824   0.183   1.333   8.372  2.6587  0.5615 -2.1028
  174SAPI  H18Y19825   0.181   1.369   8.550  1.3445 -0.8462  0.0616
  174SAPI  H18Z19826   0.334   1.323   8.471 -0.4047 -1.2590 -0.9221
  175SAPI   C1219827   5.128   0.784   6.013 -0.1898  0.1992  0.5502
  175SAPI    H219828   5.167   0.877   5.967  0.0174 -0.8248 -1.4582
  175SAPI    O219829   4.989   0.801   6.005 -0.0956  0.4072 -0.4427
  175SAPI   HO219830   4.971   0.843   5.920  0.1487  1.9446  0.2317
  175SAPI   C1319831   5.166   0.672   5.920  0.0147 -0.3321 -0.6610
  175SAPI    H319832   5.276   0.659   5.910 -0.0512 -1.6067  0.0577
  175SAPI    O319833   5.132   0.696   5.789  0.3437  0.1257 -0.7697
  175SAPI   HO319834   5.041   0.668   5.776  0.4384  0.0984 -1.4184
  175SAPI   C1419835   5.112   0.541   5.978  0.0855  0.0705  0.4471
  175SAPI    H419836   5.002   0.558   5.978  0.2659  1.3445  0.3812
  175SAPI    O419837   5.143   0.435   5.887  0.0751 -0.4522  0.7502
  175SAPI   HO419838   5.073   0.370   5.896  0.5074 -0.7209  2.7828
  175SAPI   C1519839   5.161   0.511   6.117  0.3455 -0.7181  1.1953
  175SAPI    H519840   5.271   0.508   6.101  0.3065 -2.7318  1.0121
  175SAPI    O519841   5.131   0.381   6.171 -0.4675  0.4828  0.6247
  175SAPI   HO519842   5.053   0.382   6.226 -0.6551 -0.7118  0.4088
  175SAPI   C1619843   5.120   0.624   6.217 -0.1748 -1.1281  0.2830
  175SAPI    H619844   5.010   0.634   6.214 -0.0286  0.6734 -0.6711
  175SAPI    O619845   5.156   0.595   6.352 -0.0500  0.5862  0.3613
  175SAPI   HO619846   5.245   0.561   6.357 -0.5375 -1.2890 -2.0121
  175SAPI   C1119847   5.174   0.755   6.156  0.1565  0.0519  0.2317
  175SAPI    H119848   5.283   0.750   6.139  0.3522 -0.2356  1.4838
  175SAPI     P19849   5.221   1.006   6.231  0.3266 -0.5771  0.0437
  175SAPI   O1319850   5.127   1.118   6.205  0.1220 -0.1598  0.1097
  175SAPI   O1419851   5.329   0.990   6.129 -0.1125 -0.1294 -0.0583
  175SAPI   O1219852   5.134   0.867   6.238 -0.5620  0.3875  0.4918
  175SAPI   O1119853   5.290   1.015   6.374 -0.0716  0.4237 -0.6456
  175SAPI    C119854   5.348   0.899   6.435  0.1597 -0.4655  0.4828
  175SAPI    HA19855   5.348   0.810   6.369 -1.6407  1.6382 -2.6147
  175SAPI    HB19856   5.451   0.934   6.459 -0.9137  3.5665 -0.0402
  175SAPI    C219857   5.288   0.852   6.566  0.8972  0.2634 -0.1847
  175SAPI    HS19858   5.183   0.820   6.550 -0.2683  1.4564  3.7767
  175SAPI   O2119859   5.291   0.960   6.663 -0.2761 -0.1041 -0.0667
  175SAPI   C2119860   5.181   1.034   6.659 -0.4154 -0.7307 -0.4028
  175SAPI   O2219861   5.081   1.014   6.586  0.4505 -0.2311 -0.3397
  175SAPI   C2219862   5.187   1.143   6.764 -0.8680  0.3028  0.4340
  175SAPI   H2R19863   5.293   1.175   6.770 -1.3210  1.9485  0.3345
  175SAPI   H2S19864   5.124   1.226   6.724  1.1803  0.3976 -2.9372
  175SAPI    C319865   5.360   0.729   6.629 -0.8886 -0.1080  1.0714
  175SAPI    HX19866   5.468   0.744   6.609 -0.5380 -2.1050  1.3081
  175SAPI    HY19867   5.350   0.640   6.563  1.0533  1.5787 -1.7487
  175SAPI   O3119868   5.327   0.703   6.763 -0.6621  0.4194  0.0736
  175SAPI   C3119869   5.208   0.647   6.772 -0.0898 -0.1015 -0.5825
  175SAPI   O3219870   5.135   0.624   6.678 -0.0688 -0.4753  0.5119
  175SAPI   C3219871   5.177   0.623   6.921 -0.1267  0.2740  0.2386
  175SAPI   H2X19872   5.162   0.514   6.934 -2.7609  0.4228 -0.9749
  175SAPI   H2Y19873   5.082   0.676   6.944 -0.5597 -0.6360  0.5873
  175SAPI   C2319874   5.149   1.084   6.907  0.2218  0.3736  0.1747
  175SAPI   H3R19875   5.172   1.171   6.972 -1.2976  0.9166  0.0324
  175SAPI   H3S19876   5.219   1.006   6.944  0.5297  1.4973  2.1274
  175SAPI   C2419877   5.000   1.046   6.924 -0.2502 -0.6159 -0.2817
  175SAPI   H4R19878   4.970   0.973   6.847 -1.5523  0.4967 -0.8572
  175SAPI   H4S19879   4.931   1.132   6.911  0.0217 -0.3463  0.0302
  175SAPI   C2519880   4.994   0.993   7.065  0.1768  0.3239  0.4864
  175SAPI   H5R19881   5.053   1.049   7.140  0.5966 -0.1277  0.4953
  175SAPI   C2619882   4.930   0.879   7.095  0.1936 -0.0412 -0.1876
  175SAPI   H6R19883   4.930   0.853   7.202  0.1806 -0.0896 -0.1990
  175SAPI   C2719884   4.836   0.797   7.005 -0.7045 -0.3806  0.1453
  175SAPI   H7R19885   4.859   0.689   7.006  1.5791 -0.0270 -2.5292
  175SAPI   H7S19886   4.850   0.820   6.898 -2.2238 -2.0482 -0.4584
  175SAPI   C2819887   4.695   0.812   7.048  0.0013 -0.2512 -0.0056
  175SAPI   H8R19888   4.647   0.905   7.015 -0.1511 -0.0501  0.7615
  175SAPI   C2919889   4.618   0.720   7.106  1.1287  0.6469  0.0116
  175SAPI   H9R19890   4.515   0.747   7.131  0.2891 -0.4937 -1.9623
  175SAPI  C21019891   4.667   0.585   7.151  0.4465 -0.1142 -0.3349
  175SAPI  H10R19892   4.769   0.596   7.192  0.4299  0.3433 -0.4009
  175SAPI  H10S19893   4.660   0.509   7.071 -0.3682 -2.1248  1.5670
  175SAPI  C21119894   4.586   0.531   7.268  1.1571  0.1757 -0.0842
  175SAPI  H11R19895   4.517   0.451   7.237  0.1669  1.2160 -0.6639
  175SAPI  C21219896   4.587   0.572   7.394  0.6923  0.9377 -0.6386
  175SAPI  H12R19897   4.521   0.519   7.465  0.0847  0.9005 -1.2160
  175SAPI  C21319898   4.667   0.688   7.449  0.0795  0.8055 -0.4321
  175SAPI  H13R19899   4.592   0.755   7.498 -1.8737 -0.1639 -1.9797
  175SAPI  H13S19900   4.707   0.750   7.367  1.1554  0.4744 -0.1721
  175SAPI  C21419901   4.782   0.665   7.540 -0.5076 -0.2089 -0.3663
  175SAPI  H14R19902   4.813   0.560   7.551  1.7593  0.4122 -0.4131
  175SAPI  C21519903   4.857   0.752   7.607 -0.1611 -0.4173  0.2407
  175SAPI  H15R19904   4.947   0.720   7.661 -0.8314 -0.8090  1.1331
  175SAPI  C21619905   4.827   0.902   7.610  0.0797  0.2063 -0.4488
  175SAPI  H16R19906   4.799   0.937   7.508 -3.0781  1.2720  0.6866
  175SAPI  H16S19907   4.922   0.953   7.637  0.2277 -0.5998  0.6096
  175SAPI  C21719908   4.729   0.949   7.715 -0.2443  0.3335  0.1338
  175SAPI  H17R19909   4.622   0.929   7.691  0.4989 -1.9892 -1.5847
  175SAPI  H17S19910   4.737   1.060   7.711  1.1216  0.4371  2.9768
  175SAPI  C21819911   4.766   0.897   7.853  0.7787 -0.7233  0.3861
  175SAPI  H18R19912   4.876   0.886   7.843  0.9812  0.8262  0.5171
  175SAPI  H18S19913   4.724   0.800   7.885  1.6817 -0.6637  1.8488
  175SAPI  C21919914   4.757   0.999   7.970 -0.2488 -0.4406 -0.5718
  175SAPI  H19R19915   4.661   1.054   7.980 -1.1892 -2.2962  1.6884
  175SAPI  H19S19916   4.817   1.089   7.946 -1.1805  1.8673  4.4389
  175SAPI  C22019917   4.801   0.954   8.106 -0.3323 -0.2870  0.2466
  175SAPI  H20R19918   4.895   0.894   8.104 -0.6581 -0.8152 -1.6547
  175SAPI  H20S19919   4.723   0.894   8.157  1.1694 -0.9718  1.8291
  175SAPI  H20T19920   4.817   1.043   8.170 -0.5592 -1.0232  1.3510
  175SAPI   C3319921   5.294   0.669   7.017 -0.6395  0.6558 -0.3677
  175SAPI   H3X19922   5.337   0.766   6.985  1.8784 -0.9116 -2.1400
  175SAPI   H3Y19923   5.382   0.601   7.009 -0.7799  0.2247  1.4235
  175SAPI   C3419924   5.256   0.701   7.162  0.8752  0.2865  0.2302
  175SAPI   H4X19925   5.177   0.779   7.156 -1.0905 -1.5310  0.8995
  175SAPI   H4Y19926   5.349   0.735   7.212  2.1187 -1.8742 -0.4769
  175SAPI   C3519927   5.188   0.584   7.233 -0.0333  0.7144 -0.4335
  175SAPI   H5X19928   5.254   0.495   7.247 -1.5262 -0.1428  1.6926
  175SAPI   H5Y19929   5.101   0.565   7.167  0.4601  2.5694 -1.6675
  175SAPI   C3619930   5.147   0.622   7.373  0.0144 -1.0481  0.0468
  175SAPI   H6X19931   5.090   0.532   7.405  1.8451 -2.1379  0.3847
  175SAPI   H6Y19932   5.079   0.710   7.373  3.2146  1.6601 -1.8759
  175SAPI   C3719933   5.263   0.646   7.477 -0.3638 -0.2405 -0.0386
  175SAPI   H7X19934   5.268   0.756   7.490 -0.0345 -0.5106  2.5355
  175SAPI   H7Y19935   5.352   0.595   7.434 -0.1601  1.1560 -1.3940
  175SAPI   C3819936   5.223   0.585   7.614 -0.6549  0.1853  0.9190
  175SAPI   H8X19937   5.283   0.495   7.639 -0.0566  0.6861  1.3076
  175SAPI   H8Y19938   5.114   0.568   7.626 -0.5783 -0.0072  1.3358
  175SAPI   C3919939   5.262   0.696   7.714 -0.4167 -0.0813 -0.4882
  175SAPI   H9X19940   5.215   0.788   7.674 -1.6998 -0.6356 -0.2961
  175SAPI   H9Y19941   5.370   0.713   7.730 -0.7456  0.8999  0.8429
  175SAPI  C31019942   5.200   0.662   7.849  0.2769 -0.0391 -0.1658
  175SAPI  H10X19943   5.258   0.585   7.903  0.3180  0.5564  0.6745
  175SAPI  H10Y19944   5.091   0.641   7.845 -0.3367  2.3619  1.2765
  175SAPI  C31119945   5.223   0.779   7.952  0.8108 -0.7516 -0.2568
  175SAPI  H11X19946   5.174   0.870   7.910  2.7752  0.9192  0.9261
  175SAPI  H11Y19947   5.330   0.803   7.965  0.5303  2.3059 -2.5246
  175SAPI  C31219948   5.171   0.751   8.092  0.2381  0.1234 -0.4051
  175SAPI  H12X19949   5.207   0.653   8.130  1.8759  1.0037  0.3964
  175SAPI  H12Y19950   5.062   0.733   8.083  0.4206 -0.4885 -1.7162
  175SAPI  C31319951   5.207   0.866   8.193 -0.7189  0.0893  0.0034
  175SAPI  H13X19952   5.154   0.954   8.151 -1.1678 -0.4343 -0.5454
  175SAPI  H13Y19953   5.314   0.896   8.190 -1.5805  3.4425 -1.1939
  175SAPI  C31419954   5.163   0.846   8.340  1.0205 -0.6357 -0.3329
  175SAPI  H14X19955   5.210   0.755   8.384  1.9093  0.6741  1.5376
  175SAPI  H14Y19956   5.053   0.837   8.342  0.7127  2.2135  2.6520
  175SAPI  C31519957   5.203   0.971   8.425 -0.1426 -0.3411 -0.1552
  175SAPI  H15X19958   5.231   1.053   8.355  2.2437 -1.3382 -0.4832
  175SAPI  H15Y19959   5.293   0.934   8.479  0.6521 -0.6583 -1.6194
  175SAPI  C31619960   5.088   1.014   8.518 -0.4239  0.1768 -0.9251
  175SAPI  H16X19961   5.050   0.930   8.579  1.1201 -0.0329 -0.1929
  175SAPI  H16Y19962   4.992   1.043   8.470 -0.1768  0.9446 -0.9698
  175SAPI  C31719963   5.122   1.139   8.601 -0.2754  0.5565 -0.7469
  175SAPI  H17X19964   5.101   1.228   8.538  0.1227  0.9102 -0.3874
  175SAPI  H17Y19965   5.229   1.145   8.628 -0.2880  1.7574 -0.9066
  175SAPI  C31819966   5.040   1.153   8.734  0.0751  0.5851  0.2854
  175SAPI  H18X19967   5.040   1.059   8.793  2.9726 -0.7385 -1.6094
  175SAPI  H18Y19968   4.937   1.184   8.708 -0.1067  0.5819  0.9715
  175SAPI  H18Z19969   5.078   1.243   8.787 -2.7349  3.5187 -2.2221
  176SAPI   C1219970   3.578   6.246   6.110 -0.2412  0.0924 -0.3351
  176SAPI    H219971   3.482   6.297   6.136 -0.5245 -0.6215  0.0525
  176SAPI    O219972   3.566   6.102   6.127  0.0797  0.5068 -0.1370
  176SAPI   HO219973   3.556   6.083   6.220  0.1923  1.2480  0.0340
  176SAPI   C1319974   3.604   6.264   5.958 -0.6507  0.2084 -0.2744
  176SAPI    H319975   3.624   6.372   5.941 -0.3234 -0.0794 -1.9237
  176SAPI    O319976   3.486   6.219   5.892 -0.2608 -0.1060 -0.3208
  176SAPI   HO319977   3.480   6.124   5.901  0.5471 -0.1220  0.1999
  176SAPI   C1419978   3.732   6.192   5.914  0.0739 -0.5074  0.5701
  176SAPI    H419979   3.724   6.082   5.929  0.3871 -0.4703  1.0546
  176SAPI    O419980   3.748   6.206   5.779 -0.0837  0.1258  0.5584
  176SAPI   HO419981   3.755   6.121   5.734  1.6476  0.4668  0.1200
  176SAPI   C1519982   3.857   6.231   5.996  0.1011  0.4905 -0.4637
  176SAPI    H519983   3.873   6.335   5.960  1.7783  0.5957  0.4806
  176SAPI    O519984   3.968   6.151   5.961 -0.5681  0.0902 -0.1886
  176SAPI   HO519985   4.020   6.200   5.897 -1.7787  1.3423 -0.2607
  176SAPI   C1619986   3.828   6.230   6.148 -0.1874  0.1674 -0.2896
  176SAPI    H619987   3.817   6.125   6.181 -0.0984  0.5644  1.0931
  176SAPI    O619988   3.942   6.283   6.223  0.9889  0.4849  0.0092
  176SAPI   HO619989   3.907   6.280   6.312  1.1372  0.4462  0.0654
  176SAPI   C1119990   3.701   6.301   6.194 -0.2963  0.5291 -1.0175
  176SAPI    H119991   3.709   6.412   6.187 -0.5614  0.7458  1.3518
  176SAPI     P19992   3.608   6.365   6.446  0.1859 -0.0898  0.3408
  176SAPI   O1319993   3.468   6.320   6.483 -0.9343  0.0117  0.6223
  176SAPI   O1419994   3.630   6.509   6.405  0.5094  0.7157 -0.7486
  176SAPI   O1219995   3.678   6.263   6.336 -0.1195 -0.4374 -0.0217
  176SAPI   O1119996   3.701   6.337   6.569  0.3567 -0.4125 -0.5225
  176SAPI    C119997   3.702   6.206   6.628  0.4959  0.0356  0.3820
  176SAPI    HA19998   3.619   6.179   6.696  3.0554 -3.0995  2.5877
  176SAPI    HB19999   3.728   6.126   6.556  0.6170  0.3090  0.1212
  176SAPI    C220000   3.819   6.195   6.728  0.0291 -0.1455  0.0239
  176SAPI    HS20001   3.915   6.195   6.671  0.7491 -1.2180  1.1842
  176SAPI   O2120002   3.804   6.068   6.797 -0.2089 -0.2643 -0.5247
  176SAPI   C2120003   3.910   6.038   6.873  0.9495  0.3945 -0.1063
  176SAPI   O2220004   4.010   6.100   6.874 -0.1511 -0.0990 -0.1548
  176SAPI   C2220005   3.889   5.908   6.959 -0.5285  0.5733  0.5822
  176SAPI   H2R20006   3.881   5.834   6.877 -1.1029  1.1359  0.1191
  176SAPI   H2S20007   3.985   5.906   7.016  1.0423  0.1029 -1.9516
  176SAPI    C320008   3.817   6.319   6.829  0.1161  1.4387 -0.1870
  176SAPI    HX20009   3.819   6.401   6.754 -0.9944  1.4268 -0.2494
  176SAPI    HY20010   3.911   6.315   6.888 -1.1428  0.8630  1.8615
  176SAPI   O3120011   3.710   6.313   6.931 -0.0160  0.0821  0.2212
  176SAPI   C3120012   3.663   6.432   6.955  0.0814 -0.1332 -0.5327
  176SAPI   O3220013   3.681   6.535   6.895 -0.1642 -0.0782  0.3966
  176SAPI   C3220014   3.596   6.432   7.090 -0.5710  0.1428 -0.0693
  176SAPI   H2X20015   3.669   6.432   7.173 -3.4382  0.5822  2.6399
  176SAPI   H2Y20016   3.545   6.337   7.119 -0.7773  0.5187  0.8392
  176SAPI   C2320017   3.763   5.917   7.044  0.4150  0.1235 -0.3101
  176SAPI   H3R20018   3.758   5.818   7.094 -2.0527 -0.9268 -2.4233
  176SAPI   H3S20019   3.667   5.916   6.989 -0.1834 -4.2237  0.4791
  176SAPI   C2420020   3.773   6.028   7.152 -0.3896  0.7770  0.0648
  176SAPI   H4R20021   3.675   6.012   7.202  0.7576 -3.0410  1.5154
  176SAPI   H4S20022   3.767   6.123   7.095 -0.4990  0.2464 -0.8244
  176SAPI   C2520023   3.885   6.036   7.244 -0.1036 -0.2352  0.3760
  176SAPI   H5R20024   3.985   6.058   7.203  0.0017  0.7618  1.1349
  176SAPI   C2620025   3.884   6.016   7.379  0.6132  0.2351 -0.0255
  176SAPI   H6R20026   3.975   6.028   7.440 -0.4211  0.2015  1.6011
  176SAPI   C2720027   3.773   5.968   7.468 -0.0867  0.2458  0.0873
  176SAPI   H7R20028   3.784   5.866   7.513  0.6729  0.9773  1.6364
  176SAPI   H7S20029   3.677   5.965   7.413 -0.0346 -1.0159  0.0269
  176SAPI   C2820030   3.759   6.064   7.585  0.4590 -0.5792 -0.0274
  176SAPI   H8R20031   3.734   6.168   7.561  0.3195 -0.4861  0.5078
  176SAPI   C2920032   3.770   6.032   7.717  0.4049 -0.8022 -0.1171
  176SAPI   H9R20033   3.776   6.119   7.783  1.7724 -0.9586 -0.0137
  176SAPI  C21020034   3.798   5.902   7.784 -0.2562  0.9157 -0.2461
  176SAPI  H10R20035   3.885   5.913   7.852  0.4222 -3.7892  0.0084
  176SAPI  H10S20036   3.829   5.831   7.704  0.9809  0.5250  0.5528
  176SAPI  C21120037   3.685   5.852   7.871  0.0563  0.4601  0.2564
  176SAPI  H11R20038   3.638   5.758   7.839  0.7089 -0.4600  1.8977
  176SAPI  C21220039   3.641   5.896   7.990  0.2625 -0.5236 -0.9190
  176SAPI  H12R20040   3.554   5.841   8.028  1.4825 -2.2156 -0.4872
  176SAPI  C21320041   3.695   6.019   8.059 -0.2445 -0.8975  1.1612
  176SAPI  H13R20042   3.672   6.099   7.984  1.5631 -0.4472  1.0372
  176SAPI  H13S20043   3.806   6.022   8.058 -0.1384 -3.0811 -0.5542
  176SAPI  C21420044   3.646   6.061   8.194  1.1359  0.8519  0.2673
  176SAPI  H14R20045   3.569   5.995   8.234  0.6284  1.3562  0.1372
  176SAPI  C21520046   3.703   6.156   8.271  0.0895 -0.1135 -0.1921
  176SAPI  H15R20047   3.655   6.183   8.367 -0.1665 -0.0560 -0.3351
  176SAPI  C21620048   3.813   6.248   8.235  0.2882  0.3334  0.8922
  176SAPI  H16R20049   3.888   6.203   8.167 -1.2819 -1.8612  0.5174
  176SAPI  H16S20050   3.873   6.290   8.319  0.0213  0.2514  1.1231
  176SAPI  C21720051   3.763   6.371   8.157  0.1520  0.5075  0.3755
  176SAPI  H17R20052   3.698   6.344   8.072 -2.3895 -0.3655  2.4560
  176SAPI  H17S20053   3.850   6.434   8.127 -2.6040  4.2038 -0.6503
  176SAPI  C21820054   3.679   6.467   8.242  0.6203  0.1791  0.4465
  176SAPI  H18R20055   3.740   6.516   8.321  0.2966 -1.1392  1.5370
  176SAPI  H18S20056   3.593   6.422   8.295  0.7098 -2.7087 -1.6418
  176SAPI  C21920057   3.642   6.588   8.155  0.1392 -0.6484  0.1751
  176SAPI  H19R20058   3.588   6.543   8.068  2.0034 -0.3260 -1.2076
  176SAPI  H19S20059   3.735   6.638   8.122 -1.0946  2.9335  1.6079
  176SAPI  C22020060   3.554   6.694   8.228  0.1353 -0.6370  0.2459
  176SAPI  H20R20061   3.607   6.734   8.317  0.2343  0.0646 -0.1248
  176SAPI  H20S20062   3.460   6.662   8.277 -0.0221 -0.2216  0.2134
  176SAPI  H20T20063   3.530   6.772   8.153  2.1635  0.4718  0.6817
  176SAPI   C3320064   3.488   6.539   7.102  0.2625 -0.8053  0.0596
  176SAPI   H3X20065   3.393   6.520   7.048  0.1974  2.9987 -1.4290
  176SAPI   H3Y20066   3.522   6.640   7.071  0.6915 -1.4773 -1.7645
  176SAPI   C3420067   3.463   6.576   7.252  0.5816 -0.4813  0.3449
  176SAPI   H4X20068   3.565   6.600   7.290  1.3737 -0.3290 -1.7348
  176SAPI   H4Y20069   3.426   6.485   7.305 -0.0797  0.5588  1.7020
  176SAPI   C3520070   3.367   6.694   7.272 -0.2309 -0.0142  0.2051
  176SAPI   H5X20071   3.334   6.690   7.378  1.0498 -1.7764  0.5818
  176SAPI   H5Y20072   3.282   6.683   7.201  0.8507 -2.0949 -0.8461
  176SAPI   C3620073   3.436   6.831   7.239 -0.1996  0.3997 -0.7181
  176SAPI   H6X20074   3.499   6.829   7.148  1.2083  2.6280  0.1435
  176SAPI   H6Y20075   3.505   6.854   7.323 -0.3778 -0.2043 -0.3956
  176SAPI   C3720076   3.336   6.954   7.236  0.0178 -0.0024 -0.0912
  176SAPI   H7X20077   3.265   6.939   7.321 -0.2415  0.9826 -0.1274
  176SAPI   H7Y20078   3.280   6.950   7.140 -2.1373 -1.6011  1.1374
  176SAPI   C3820079   3.404   7.093   7.259  0.5815  0.4170 -0.4842
  176SAPI   H8X20080   3.488   7.106   7.187  2.2834 -1.3471  1.0707
  176SAPI   H8Y20081   3.456   7.103   7.357  0.3399 -0.7429 -0.2226
  176SAPI   C3920082   3.295   7.202   7.260 -0.0295 -0.0750  0.0559
  176SAPI   H9X20083   3.202   7.163   7.307  0.2611  1.5643  2.1254
  176SAPI   H9Y20084   3.256   7.217   7.157 -1.5412 -0.7347  0.5080
  176SAPI  C31020085   3.342   7.334   7.317  0.0117  0.2804  0.6110
  176SAPI  H10X20086   3.345   7.417   7.244  0.9723  0.4000  0.7672
  176SAPI  H10Y20087   3.449   7.326   7.347  0.7250  0.3306 -1.7157
  176SAPI  C31120088   3.256   7.365   7.436 -0.1651  0.0365  0.0000
  176SAPI  H11X20089   3.151   7.364   7.398 -0.5877 -0.1978  1.1386
  176SAPI  H11Y20090   3.298   7.462   7.470  0.7431 -0.9889  1.9815
  176SAPI  C31220091   3.274   7.273   7.557 -0.0687  0.0692  0.0086
  176SAPI  H12X20092   3.266   7.169   7.517  1.3669 -0.3218  0.6625
  176SAPI  H12Y20093   3.183   7.288   7.620 -0.0139 -2.8820  0.9620
  176SAPI  C31320094   3.407   7.293   7.629  0.4367  0.2723 -0.0933
  176SAPI  H13X20095   3.424   7.402   7.645  0.0626  0.2702  0.3360
  176SAPI  H13Y20096   3.479   7.241   7.563 -0.7415 -1.8967  0.2239
  176SAPI  C31420097   3.408   7.208   7.763  0.0043  0.3918 -0.6419
  176SAPI  H14X20098   3.510   7.216   7.805 -0.4800 -0.6913  0.8401
  176SAPI  H14Y20099   3.393   7.103   7.728 -0.9848 -0.9774  3.4059
  176SAPI  C31520100   3.310   7.259   7.872  0.1910 -0.1635  0.7092
  176SAPI  H15X20101   3.210   7.267   7.824 -0.0468  3.1721  1.5424
  176SAPI  H15Y20102   3.342   7.359   7.907 -0.0763  1.3070 -2.8401
  176SAPI  C31620103   3.292   7.158   7.986 -0.7817 -0.2002 -0.3897
  176SAPI  H16X20104   3.227   7.078   7.946 -0.4657  1.1629 -3.9963
  176SAPI  H16Y20105   3.235   7.205   8.069  0.0020 -1.7798  1.0935
  176SAPI  C31720106   3.426   7.105   8.031 -0.2416 -1.0673  0.8374
  176SAPI  H17X20107   3.503   7.185   8.040  0.4050 -1.6364  0.4013
  176SAPI  H17Y20108   3.458   7.042   7.946 -1.7642 -1.5657  0.6083
  176SAPI  C31820109   3.408   7.032   8.158 -0.6156 -0.1811  0.1172
  176SAPI  H18X20110   3.348   7.094   8.229  0.7042  0.4349  0.7210
  176SAPI  H18Y20111   3.503   7.013   8.212  1.2220  1.3250 -2.3469
  176SAPI  H18Z20112   3.357   6.935   8.143  0.4582 -0.7382 -0.0262
  177SLPC     N20113   4.579   3.367  10.841 -0.2528  0.2421 -0.8092
  177SLPC   C1320114   4.677   3.249  10.849  0.1257 -0.7244 -0.4284
  177SLPC  H13A20115   4.690   3.215  10.747  0.0114 -0.4860 -0.5237
  177SLPC  H13B20116   4.768   3.275  10.900  1.0066 -0.6814 -1.9583
  177SLPC  H13C20117   4.625   3.176  10.910 -1.5243  1.7017  1.2319
  177SLPC   C1420118   4.540   3.400  10.982  0.9101 -0.4339 -0.1109
  177SLPC  H14A20119   4.624   3.375  11.045  1.8838 -0.8481 -1.5307
  177SLPC  H14B20120   4.511   3.504  10.990 -1.5689 -1.0966  0.4259
  177SLPC  H14C20121   4.458   3.336  11.011  0.3083  0.3998  0.0656
  177SLPC   C1520122   4.458   3.304  10.777 -0.0225 -0.3561  0.2723
  177SLPC  H15A20123   4.489   3.253  10.688  0.0215 -2.7683  1.5843
  177SLPC  H15B20124   4.418   3.229  10.843  2.2931  0.1045  2.3748
  177SLPC  H15C20125   4.389   3.386  10.766  0.2865 -0.0916  0.2596
  177SLPC   C1220126   4.635   3.487  10.762  0.0393  0.1508  0.6896
  177SLPC  H12A20127   4.558   3.561  10.776  1.6577  2.1880 -0.4959
  177SLPC  H12B20128   4.644   3.459  10.658  1.6420  0.5254  0.6889
  177SLPC   C1120129   4.767   3.550  10.806 -0.1520 -0.6131  0.3726
  177SLPC  H11A20130   4.793   3.632  10.735 -3.1699  0.9767  0.9579
  177SLPC  H11B20131   4.835   3.462  10.800  1.4360  0.6561 -1.3300
  177SLPC     P20132   4.699   3.720  10.995 -0.1813 -0.3566  0.0426
  177SLPC   O1320133   4.631   3.692  11.122  0.4876  0.1672  0.1890
  177SLPC   O1420134   4.788   3.839  10.993  0.1572  0.0158  0.0428
  177SLPC   O1220135   4.776   3.598  10.938  0.4782  0.4793  0.0016
  177SLPC   O1120136   4.585   3.743  10.890 -0.1873 -0.4271 -0.0636
  177SLPC    C120137   4.605   3.827  10.775 -0.2520  0.5831  0.0464
  177SLPC    HA20138   4.618   3.935  10.800 -4.3637  0.5378  3.4938
  177SLPC    HB20139   4.692   3.798  10.712 -0.1098 -1.8022  1.2267
  177SLPC    C220140   4.487   3.826  10.669  0.4262 -0.9364 -0.8634
  177SLPC    HS20141   4.395   3.864  10.717 -0.4294 -2.0566 -1.5608
  177SLPC   O2120142   4.465   3.694  10.620  0.3162 -0.0036 -0.5760
  177SLPC   C2120143   4.388   3.691  10.510 -0.6578  0.0524  0.3565
  177SLPC   O2220144   4.297   3.767  10.488 -0.2862  0.7118  0.5164
  177SLPC   C2220145   4.440   3.579  10.420 -0.3322 -0.0633  0.5489
  177SLPC   H2R20146   4.527   3.529  10.468  0.3736  0.9563  0.3813
  177SLPC   H2S20147   4.355   3.509  10.409  1.4120 -2.2214  0.1157
  177SLPC    C320148   4.516   3.937  10.562  0.1423 -0.2401 -0.5832
  177SLPC    HX20149   4.527   4.033  10.618 -0.7851  0.2465 -1.2108
  177SLPC    HY20150   4.436   3.950  10.487  0.9994  1.5494 -1.2380
  177SLPC   O3120151   4.638   3.893  10.489 -0.0342  0.0096  0.5129
  177SLPC   C3120152   4.729   3.986  10.482 -0.1201 -0.3009  0.1678
  177SLPC   O3220153   4.736   4.091  10.546 -0.2670 -0.0945  0.0722
  177SLPC   C3220154   4.847   3.927  10.404  0.0731 -0.1626  0.4317
  177SLPC   H2X20155   4.818   3.854  10.326  1.1997 -1.2858  1.0262
  177SLPC   H2Y20156   4.911   3.863  10.468  0.2357 -0.5843 -0.1482
  177SLPC   C2320157   4.473   3.639  10.279  0.2795 -0.8865 -0.2165
  177SLPC   H3R20158   4.513   3.742  10.281 -2.2254  0.1781 -0.3086
  177SLPC   H3S20159   4.380   3.669  10.225  0.0946 -0.2996  0.4237
  177SLPC   C2420160   4.554   3.552  10.181 -0.3805 -0.4359  0.6406
  177SLPC   H4R20161   4.483   3.485  10.129 -0.5143  0.9022 -0.9919
  177SLPC   H4S20162   4.634   3.494  10.232 -0.5660  0.1305  1.6115
  177SLPC   C2520163   4.606   3.633  10.064 -0.4080 -0.1609  0.0902
  177SLPC   H5R20164   4.665   3.712  10.116  0.5702  0.8820 -2.4523
  177SLPC   H5S20165   4.525   3.680  10.005 -0.1548 -2.5983 -2.3973
  177SLPC   C2620166   4.700   3.549   9.981 -1.0406 -0.4949  0.7176
  177SLPC   H6R20167   4.634   3.469   9.941 -0.4714 -0.9911  0.7544
  177SLPC   H6S20168   4.791   3.505  10.027  1.2826  0.6483 -2.4158
  177SLPC   C2720169   4.755   3.625   9.863  0.6350 -0.7697 -0.5774
  177SLPC   H7R20170   4.842   3.679   9.907 -0.2668 -0.3229  0.7097
  177SLPC   H7S20171   4.678   3.694   9.823 -0.4993 -1.0456  1.0556
  177SLPC   C2820172   4.810   3.536   9.748 -1.0650 -0.0228 -0.5123
  177SLPC   H8R20173   4.732   3.459   9.731 -1.5127  0.2535  0.2573
  177SLPC   H8S20174   4.897   3.476   9.782 -1.8973  0.0288  1.8641
  177SLPC   C2920175   4.837   3.609   9.617  0.5514  0.3288 -0.1165
  177SLPC   H9R20176   4.781   3.703   9.607 -1.2214 -0.6444  0.3441
  177SLPC  C21020177   4.918   3.568   9.515 -0.0904  0.2462 -0.6671
  177SLPC  H10R20178   4.925   3.629   9.424  1.2774 -0.2820 -0.9389
  177SLPC  C21120179   4.981   3.427   9.512 -0.1161 -0.2248 -0.4854
  177SLPC  H11R20180   5.020   3.408   9.614 -0.4342  0.9104 -0.1355
  177SLPC  H11S20181   4.914   3.340   9.493  0.6638 -1.4561  2.0418
  177SLPC  C21220182   5.105   3.421   9.421 -0.4025  0.2100  0.3027
  177SLPC  H12R20183   5.202   3.424   9.471  0.4052  3.7162 -1.1103
  177SLPC  C21320184   5.105   3.413   9.281  0.5300 -0.5136 -0.6138
  177SLPC  H13R20185   5.199   3.421   9.224  0.7432  1.2247 -0.0722
  177SLPC  C21420186   4.976   3.415   9.200 -0.0855 -0.0298 -0.4462
  177SLPC  H14R20187   4.885   3.408   9.264 -1.5124  0.2455 -2.3697
  177SLPC  H14S20188   4.976   3.334   9.124 -0.9358 -1.5644  1.1237
  177SLPC  C21520189   4.954   3.536   9.108  0.7914 -0.0607 -0.4157
  177SLPC  H15R20190   4.976   3.625   9.171 -0.7349 -0.9005  1.4071
  177SLPC  H15S20191   4.854   3.548   9.063  0.2035  0.6592  1.0127
  177SLPC  C21620192   5.052   3.552   8.988  0.1116  0.5478 -0.2405
  177SLPC  H16R20193   5.157   3.543   9.022 -0.4325 -0.7276  1.2132
  177SLPC  H16S20194   5.020   3.654   8.956 -1.4346  0.3423  0.5560
  177SLPC  C21720195   5.033   3.452   8.875 -0.3440 -0.0212  0.4101
  177SLPC  H17R20196   5.068   3.350   8.905 -0.4594  0.2172  1.3914
  177SLPC  H17S20197   5.093   3.484   8.787 -1.1324  0.8605  0.1806
  177SLPC  C21820198   4.896   3.456   8.818  0.2026  0.2559 -0.0861
  177SLPC  H18R20199   4.889   3.397   8.724 -0.6108 -1.9795  1.2714
  177SLPC  H18S20200   4.864   3.562   8.809  2.3660  1.3021  2.9513
  177SLPC  H18T20201   4.818   3.403   8.878  0.0758 -1.4343 -1.6440
  177SLPC   C3320202   4.949   4.032  10.346  0.2582 -0.2779  0.1984
  177SLPC   H3X20203   5.030   3.975  10.297  0.3934  0.5201 -0.5181
  177SLPC   H3Y20204   4.974   4.100  10.431 -1.6533  1.1638 -0.3173
  177SLPC   C3420205   4.892   4.120  10.234 -0.4074  0.2072  0.1248
  177SLPC   H4X20206   4.970   4.195  10.207 -1.1090  0.4622 -1.2893
  177SLPC   H4Y20207   4.805   4.185  10.258  0.2819  0.8639  0.9457
  177SLPC   C3520208   4.880   4.037  10.101  0.3806  0.2427 -0.0769
  177SLPC   H5X20209   4.791   3.972  10.112  0.0101  0.7434 -0.1261
  177SLPC   H5Y20210   4.964   3.964  10.097 -0.3173 -0.5642 -0.2467
  177SLPC   C3620211   4.877   4.116   9.968  0.0379  0.7057 -0.7454
  177SLPC   H6X20212   4.954   4.195   9.954 -0.7380  1.4080 -1.0821
  177SLPC   H6Y20213   4.775   4.155   9.951 -1.5313 -2.2312  1.0644
  177SLPC   C3720214   4.892   4.011   9.856 -0.2795 -0.1602 -0.2142
  177SLPC   H7X20215   4.810   3.937   9.865  1.2270 -1.9724 -0.5929
  177SLPC   H7Y20216   4.989   3.957   9.856  0.5355  1.1501 -2.5954
  177SLPC   C3820217   4.880   4.084   9.721 -0.0593  0.2589  0.2112
  177SLPC   H8X20218   4.923   4.186   9.736  0.3502  0.1181  0.0189
  177SLPC   H8Y20219   4.774   4.092   9.690 -0.5720 -0.5682  1.6571
  177SLPC   C3920220   4.941   4.011   9.601  0.1074 -0.3442 -0.8322
  177SLPC   H9X20221   4.886   3.918   9.577 -1.1778  0.4562 -1.0564
  177SLPC   H9Y20222   5.049   3.988   9.612  0.8317  1.3623 -3.4029
  177SLPC  C31020223   4.943   4.103   9.474  0.5842 -0.1902 -0.5087
  177SLPC  H10X20224   4.977   4.202   9.511 -0.6749  0.4539 -0.9998
  177SLPC  H10Y20225   4.843   4.116   9.427  0.5273  2.6022  0.1794
  177SLPC  C31120226   5.016   4.034   9.364 -0.5819  0.3894  0.6322
  177SLPC  H11X20227   4.981   3.929   9.367  1.0707 -0.2271 -0.2458
  177SLPC  H11Y20228   5.122   4.057   9.388 -1.0824  3.0081  0.6275
  177SLPC  C31220229   4.998   4.088   9.219  0.2334 -0.0643  0.2174
  177SLPC  H12X20230   4.912   4.045   9.164  0.1976 -0.2685  0.4345
  177SLPC  H12Y20231   5.085   4.062   9.155 -1.3352 -0.1485 -1.9945
  177SLPC  C31320232   4.976   4.242   9.210 -0.3717 -0.0260 -0.0469
  177SLPC  H13X20233   5.071   4.298   9.224  1.2801 -2.9898  1.4763
  177SLPC  H13Y20234   4.899   4.272   9.285  1.6067  1.4711  1.5109
  177SLPC  C31420235   4.921   4.280   9.075  0.0252 -0.7639 -0.0681
  177SLPC  H14X20236   4.837   4.207   9.059  0.2372 -0.8095 -1.0407
  177SLPC  H14Y20237   4.995   4.262   8.994  1.1845  3.7477 -0.2420
  177SLPC  C31520238   4.853   4.423   9.065  0.1972  0.9063 -0.7797
  177SLPC  H15X20239   4.937   4.496   9.061  0.0077  1.0931 -1.7725
  177SLPC  H15Y20240   4.771   4.434   9.138 -0.1966 -2.9205 -0.4414
  177SLPC  C31620241   4.798   4.440   8.921  0.2725 -0.2507 -0.2848
  177SLPC  H16X20242   4.723   4.362   8.896 -2.2992  0.8293  3.2359
  177SLPC  H16Y20243   4.885   4.430   8.853  0.5354  0.8842 -0.1403
  177SLPC  C31720244   4.730   4.572   8.887  0.1655  0.3716 -0.6328
  177SLPC  H17X20245   4.722   4.587   8.777 -0.2269 -1.9611 -0.9713
  177SLPC  H17Y20246   4.791   4.652   8.935 -0.1911 -1.6605  3.6913
  177SLPC  C31820247   4.589   4.576   8.952 -0.4788 -0.3186 -0.0757
  177SLPC  H18X20248   4.602   4.613   9.056  1.4883 -1.1309  0.0209
  177SLPC  H18Y20249   4.535   4.479   8.953 -2.5751  0.7775  2.2197
  177SLPC  H18Z20250   4.521   4.645   8.898 -1.3657 -1.3306 -0.2806
  178SLPC     N20251   0.462   4.291  11.143  0.4106  0.2414  0.4014
  178SLPC   C1320252   0.554   4.318  11.261  0.3543  0.4649  0.1510
  178SLPC  H13A20253   0.657   4.330  11.232  0.3559 -0.8768 -0.4572
  178SLPC  H13B20254   0.528   4.411  11.309 -0.3859  0.6500 -0.5918
  178SLPC  H13C20255   0.537   4.249  11.343  1.9524 -0.4503 -0.2384
  178SLPC   C1420256   0.443   4.422  11.069 -0.1909  0.1640  0.6035
  178SLPC  H14A20257   0.391   4.496  11.129 -0.4083 -1.2654  2.2528
  178SLPC  H14B20258   0.537   4.458  11.031 -0.2631 -1.8751 -1.7623
  178SLPC  H14C20259   0.378   4.408  10.984 -1.1058 -0.5500  1.4015
  178SLPC   C1520260   0.333   4.258  11.203 -0.5276 -0.3903 -0.0402
  178SLPC  H15A20261   0.263   4.225  11.127  0.6799 -0.5193 -1.1317
  178SLPC  H15B20262   0.352   4.181  11.276 -1.1485 -1.6081 -1.1327
  178SLPC  H15C20263   0.294   4.350  11.243 -0.3465 -0.4971  0.3864
  178SLPC   C1220264   0.512   4.176  11.051  0.1713 -0.2298  0.6164
  178SLPC  H12A20265   0.519   4.084  11.107 -0.1852  0.2990  1.5518
  178SLPC  H12B20266   0.615   4.201  11.033  0.4254 -0.7758  1.2651
  178SLPC   C1120267   0.438   4.151  10.917 -0.4916  0.9511 -0.2657
  178SLPC  H11A20268   0.339   4.112  10.952 -0.1022  0.2799  0.1098
  178SLPC  H11B20269   0.492   4.060  10.883 -0.0816  1.0018  0.2290
  178SLPC     P20270   0.542   4.293  10.729  0.1147 -0.0343 -0.3980
  178SLPC   O1320271   0.518   4.434  10.682  0.2667 -0.1025 -0.2753
  178SLPC   O1420272   0.674   4.258  10.793 -0.0945  0.2107 -0.4053
  178SLPC   O1220273   0.424   4.260  10.828  0.1882  0.6629  0.3301
  178SLPC   O1120274   0.532   4.197  10.599  0.1969  0.2532 -0.5131
  178SLPC    C120275   0.406   4.138  10.563  0.3150 -0.2568  0.0471
  178SLPC    HA20276   0.410   4.027  10.551 -2.7461 -0.3627 -0.7811
  178SLPC    HB20277   0.324   4.160  10.634  0.0998 -0.5583 -0.1025
  178SLPC    C220278   0.366   4.190  10.421  0.4740  0.5170  0.2051
  178SLPC    HS20279   0.264   4.149  10.407  2.3508 -5.0584  0.6902
  178SLPC   O2120280   0.459   4.130  10.330 -0.1618  0.2763  0.0241
  178SLPC   C2120281   0.396   4.091  10.220 -0.2074 -0.1288  0.0134
  178SLPC   O2220282   0.280   4.111  10.192  0.4212 -0.4346  0.4410
  178SLPC   C2220283   0.492   4.046  10.119 -0.3208 -0.8810 -0.3696
  178SLPC   H2R20284   0.568   4.123  10.094  2.2050 -2.4314  1.9374
  178SLPC   H2S20285   0.547   3.966  10.174 -0.9382 -0.5770  0.7103
  178SLPC    C320286   0.370   4.346  10.413 -0.0353 -1.1408  0.8664
  178SLPC    HX20287   0.464   4.388  10.455 -1.3967  0.5439  2.4072
  178SLPC    HY20288   0.296   4.381  10.488 -0.2150  0.3742  0.0067
  178SLPC   O3120289   0.323   4.403  10.289 -0.6556  0.0100 -0.5088
  178SLPC   C3120290   0.415   4.443  10.209 -0.1274  0.1964  0.3546
  178SLPC   O3220291   0.538   4.426  10.212  0.3521  0.5871  0.2718
  178SLPC   C3220292   0.343   4.501  10.088  0.1893  0.3112 -0.4679
  178SLPC   H2X20293   0.295   4.598  10.114  1.3837  0.4821  1.3518
  178SLPC   H2Y20294   0.267   4.428  10.055 -0.7739  0.4552  1.2960
  178SLPC   C2320295   0.423   4.001   9.992 -0.4212 -0.2925 -0.3681
  178SLPC   H3R20296   0.349   4.072   9.949 -0.1253  0.8079  0.8678
  178SLPC   H3S20297   0.372   3.905  10.017 -2.6384  0.8972 -0.0806
  178SLPC   C2420298   0.518   3.983   9.880 -0.3046 -0.8400  0.3898
  178SLPC   H4R20299   0.604   3.914   9.894  2.0042  2.0020  1.0513
  178SLPC   H4S20300   0.567   4.080   9.858 -1.1590 -0.9626 -2.4314
  178SLPC   C2520301   0.446   3.962   9.744  0.2358 -0.2488  0.2540
  178SLPC   H5R20302   0.363   4.035   9.730  0.7399  0.1581 -0.7115
  178SLPC   H5S20303   0.394   3.864   9.739 -0.6495  0.2558 -1.1204
  178SLPC   C2620304   0.544   3.966   9.630  0.2967  0.0588 -0.2752
  178SLPC   H6R20305   0.594   3.867   9.630  0.2190 -0.0319 -2.6993
  178SLPC   H6S20306   0.619   4.046   9.649 -0.3834  0.5318  0.5432
  178SLPC   C2720307   0.482   3.975   9.489 -0.0162 -0.0526 -0.5449
  178SLPC   H7R20308   0.409   4.058   9.481 -0.1461  0.1203  1.7496
  178SLPC   H7S20309   0.416   3.891   9.458 -1.9161  0.5938  1.4780
  178SLPC   C2820310   0.601   3.984   9.383 -0.3612 -0.5923 -0.3883
  178SLPC   H8R20311   0.665   4.068   9.416  0.1857 -0.6018 -1.3770
  178SLPC   H8S20312   0.565   4.013   9.282 -1.8869  0.4234  0.4147
  178SLPC   C2920313   0.680   3.859   9.366 -0.3966 -1.1725  0.8408
  178SLPC   H9R20314   0.731   3.818   9.455  4.1667 -1.3104 -1.5907
  178SLPC  C21020315   0.720   3.793   9.260 -0.3495 -0.2239  0.6145
  178SLPC  H10R20316   0.792   3.718   9.293 -0.1177  0.4376  1.6471
  178SLPC  C21120317   0.695   3.823   9.110  0.6940  0.1168 -0.6559
  178SLPC  H11R20318   0.606   3.889   9.108 -0.9989 -1.5717  4.0383
  178SLPC  H11S20319   0.659   3.731   9.060 -0.5257  0.7215 -0.9284
  178SLPC  C21220320   0.803   3.882   9.029 -0.4739  0.5163  0.0929
  178SLPC  H12R20321   0.825   3.987   9.054 -0.3290  0.1900  1.3998
  178SLPC  C21320322   0.868   3.809   8.931  0.8920 -0.2228  0.1828
  178SLPC  H13R20323   0.939   3.869   8.873  0.1376  1.2738  0.7790
  178SLPC  C21420324   0.850   3.668   8.876 -0.5037 -0.2641 -0.6774
  178SLPC  H14R20325   0.758   3.621   8.918 -1.6284  1.2473 -1.3514
  178SLPC  H14S20326   0.928   3.593   8.904 -1.8777 -1.0605  1.3009
  178SLPC  C21520327   0.828   3.670   8.717 -0.5131  0.1620  0.6889
  178SLPC  H15R20328   0.904   3.732   8.665  1.4053 -2.3688  0.2742
  178SLPC  H15S20329   0.735   3.724   8.689 -0.7881  0.3495  1.9120
  178SLPC  C21620330   0.829   3.530   8.648  0.6560 -0.9213  1.1923
  178SLPC  H16R20331   0.747   3.480   8.703  0.3496 -0.6371  0.9998
  178SLPC  H16S20332   0.926   3.479   8.666  1.7836  1.6696  2.9452
  178SLPC  C21720333   0.802   3.537   8.495 -0.5630  0.1173  0.4872
  178SLPC  H17R20334   0.888   3.586   8.446 -1.2370  1.2345  0.3818
  178SLPC  H17S20335   0.710   3.588   8.458 -0.8858 -0.3300  0.6502
  178SLPC  C21820336   0.799   3.392   8.437 -0.4173 -0.2978 -0.4313
  178SLPC  H18R20337   0.899   3.352   8.461 -0.3571  1.0240  1.7663
  178SLPC  H18S20338   0.782   3.394   8.327  0.3310 -0.0052 -0.5439
  178SLPC  H18T20339   0.726   3.327   8.490 -2.6814  1.2284 -1.4778
  178SLPC   C3320340   0.429   4.539   9.960  0.5222 -0.0237  0.3856
  178SLPC   H3X20341   0.514   4.610   9.973  0.9290 -0.5887  0.8380
  178SLPC   H3Y20342   0.360   4.593   9.891 -1.9027 -2.0056  1.1004
  178SLPC   C3420343   0.459   4.419   9.881  0.0360 -0.2946 -0.5567
  178SLPC   H4X20344   0.387   4.335   9.886 -0.7131  0.4102  2.4907
  178SLPC   H4Y20345   0.558   4.389   9.922  0.3801  1.6927  0.1792
  178SLPC   C3520346   0.483   4.452   9.735 -0.6597  0.2258 -0.0228
  178SLPC   H5X20347   0.550   4.540   9.735 -0.4511  0.0749  0.5894
  178SLPC   H5Y20348   0.387   4.475   9.683  0.5524  0.9608 -2.0390
  178SLPC   C3620349   0.553   4.340   9.655 -0.3297  0.3298  0.4123
  178SLPC   H6X20350   0.492   4.253   9.624 -0.3109  0.7420 -0.8499
  178SLPC   H6Y20351   0.646   4.300   9.700 -0.5524 -1.0397 -0.3039
  178SLPC   C3720352   0.593   4.393   9.514  0.5511  0.3631  0.2238
  178SLPC   H7X20353   0.663   4.318   9.473 -0.4649  0.2024 -1.2962
  178SLPC   H7Y20354   0.644   4.490   9.533  0.5697  0.3976  0.0036
  178SLPC   C3820355   0.476   4.413   9.417 -0.3086 -0.4783 -0.2739
  178SLPC   H8X20356   0.412   4.492   9.463 -0.0298  0.1819 -1.0087
  178SLPC   H8Y20357   0.414   4.323   9.399 -1.3683  0.4639 -1.5793
  178SLPC   C3920358   0.536   4.479   9.285 -0.3161 -0.1158 -0.5702
  178SLPC   H9X20359   0.594   4.566   9.322  0.9096 -1.4668  0.8314
  178SLPC   H9Y20360   0.456   4.523   9.222  1.1309  0.6038 -1.9865
  178SLPC  C31020361   0.607   4.389   9.190  0.8350  0.1338 -0.1582
  178SLPC  H10X20362   0.529   4.316   9.158  0.2916  0.5416  0.2267
  178SLPC  H10Y20363   0.683   4.340   9.255  0.9829  0.2665 -0.2331
  178SLPC  C31120364   0.659   4.460   9.064 -0.7197  0.7696 -0.1109
  178SLPC  H11X20365   0.753   4.510   9.098 -0.2063 -0.6672  0.6374
  178SLPC  H11Y20366   0.581   4.524   9.019 -0.6038 -1.5074 -3.9906
  178SLPC  C31220367   0.691   4.362   8.950  0.8417 -0.3246 -0.6618
  178SLPC  H12X20368   0.730   4.269   8.995 -1.1774 -0.5972  0.6636
  178SLPC  H12Y20369   0.768   4.403   8.881 -0.0171 -0.5423 -1.7833
  178SLPC  C31320370   0.582   4.323   8.860 -0.3606  0.3908  0.1707
  178SLPC  H13X20371   0.502   4.277   8.922 -1.8650 -0.0023 -1.9571
  178SLPC  H13Y20372   0.614   4.236   8.800 -0.9861 -1.4509  2.3506
  178SLPC  C31420373   0.510   4.429   8.780 -0.2355 -0.5203  0.5317
  178SLPC  H14X20374   0.596   4.483   8.735  0.1949 -0.1856  1.7193
  178SLPC  H14Y20375   0.455   4.499   8.846  1.9407  3.1302 -1.1927
  178SLPC  C31520376   0.422   4.363   8.668  0.4205 -0.6839  0.2068
  178SLPC  H15X20377   0.478   4.287   8.610  0.5827 -1.4197  1.2973
  178SLPC  H15Y20378   0.341   4.308   8.720  1.8640 -2.5847  0.5403
  178SLPC  C31620379   0.367   4.472   8.576 -0.1705 -0.1800  0.2838
  178SLPC  H16X20380   0.354   4.412   8.483 -1.1946  0.5340 -0.0520
  178SLPC  H16Y20381   0.438   4.556   8.560 -2.6421  2.0074  0.1639
  178SLPC  C31720382   0.233   4.527   8.632 -0.5144  0.1811  0.2438
  178SLPC  H17X20383   0.200   4.485   8.730  1.6381  0.0870  1.0034
  178SLPC  H17Y20384   0.151   4.500   8.563 -2.1283 -2.0222  2.8216
  178SLPC  C31820385   0.243   4.679   8.650 -1.2265  0.3335  0.6704
  178SLPC  H18X20386   0.150   4.721   8.694 -0.8252  2.2434 -0.2187
  178SLPC  H18Y20387   0.254   4.726   8.550 -2.1976  0.8790  0.8126
  178SLPC  H18Z20388   0.330   4.714   8.710  0.5490 -0.8515 -1.0910
  179SLPC     N20389   0.132   1.962  10.655 -0.0642  0.6384  0.4715
  179SLPC   C1320390   0.001   2.022  10.694  0.1624 -0.1685 -0.0400
  179SLPC  H13A20391  -0.020   2.009  10.799  0.4340  2.9607  0.5193
  179SLPC  H13B20392  -0.004   2.128  10.672 -1.0544 -0.2912 -0.4372
  179SLPC  H13C20393  -0.087   1.977  10.649  0.5265  0.8706 -1.9094
  179SLPC   C1420394   0.234   2.012  10.757 -0.5120 -0.1573 -0.1194
  179SLPC  H14A20395   0.224   2.119  10.771 -2.5130 -0.0220 -2.1047
  179SLPC  H14B20396   0.204   1.979  10.855 -1.1240  1.0246  0.1191
  179SLPC  H14C20397   0.331   1.975  10.726 -0.4079 -0.1615  0.2034
  179SLPC   C1520398   0.176   2.000  10.511 -0.3537  0.3675 -1.1273
  179SLPC  H15A20399   0.256   1.935  10.480  0.2974 -0.2714  1.5898
  179SLPC  H15B20400   0.091   1.988  10.446 -1.2943  2.1614 -0.3101
  179SLPC  H15C20401   0.196   2.106  10.497  0.5827  0.0987 -1.9185
  179SLPC   C1220402   0.132   1.808  10.684  1.1941  0.2021  0.0545
  179SLPC  H12A20403   0.047   1.764  10.634  0.0530  0.6621  1.4822
  179SLPC  H12B20404   0.123   1.792  10.791  0.9561 -0.0862 -0.0040
  179SLPC   C1120405   0.255   1.730  10.630  0.0370  0.4831 -0.2806
  179SLPC  H11A20406   0.243   1.623  10.658 -1.2650  0.7417  0.2615
  179SLPC  H11B20407   0.348   1.765  10.679  0.3347 -1.4582  0.6303
  179SLPC     P20408   0.370   1.661  10.402 -0.3646 -0.1719 -0.2893
  179SLPC   O1320409   0.416   1.744  10.287 -0.5587  0.0787  0.2956
  179SLPC   O1420410   0.480   1.607  10.485  0.1039 -0.4671  0.1469
  179SLPC   O1220411   0.258   1.740  10.483 -0.0002 -0.2620 -0.6474
  179SLPC   O1120412   0.292   1.527  10.347 -0.8090 -0.1944 -0.2147
  179SLPC    C120413   0.163   1.491  10.398  0.2250  0.6399  0.0989
  179SLPC    HA20414   0.173   1.415  10.478 -1.1944  1.9591  1.5741
  179SLPC    HB20415   0.100   1.572  10.439 -1.3511  0.0717 -1.1088
  179SLPC    C220416   0.067   1.426  10.290 -0.1683 -0.1561 -0.3069
  179SLPC    HS20417   0.112   1.326  10.271  3.2335  1.1485 -0.0035
  179SLPC   O2120418   0.050   1.513  10.179 -0.0302  0.3811  0.2556
  179SLPC   C2120419   0.162   1.514  10.111  0.2203 -0.7330  0.7632
  179SLPC   O2220420   0.240   1.419  10.104 -0.3628 -0.4155  0.0076
  179SLPC   C2220421   0.178   1.641  10.025 -0.1578  0.6211 -0.3089
  179SLPC   H2R20422   0.106   1.621   9.942 -0.9436 -1.1429  0.7446
  179SLPC   H2S20423   0.138   1.725  10.086  0.5365  0.4826  0.3453
  179SLPC    C320424  -0.077   1.394  10.346  0.2517 -0.1825 -0.0759
  179SLPC    HX20425  -0.136   1.487  10.361  1.6491  0.9807 -1.4806
  179SLPC    HY20426  -0.061   1.343  10.443  1.9647  0.2796 -0.0936
  179SLPC   O3120427  -0.156   1.320  10.251  0.2963 -0.1600  0.1194
  179SLPC   C3120428  -0.167   1.190  10.253  0.3258  0.1986  0.9482
  179SLPC   O3220429  -0.127   1.118  10.337  0.0817 -0.2225  0.7019
  179SLPC   C3220430  -0.259   1.148  10.133  0.2422  0.1062  0.3012
  179SLPC   H2X20431  -0.338   1.224  10.113 -1.2643 -1.6908 -0.9796
  179SLPC   H2Y20432  -0.319   1.062  10.169 -0.0347  0.8869  1.7898
  179SLPC   C2320433   0.322   1.668   9.964  0.1793  0.5414  0.3435
  179SLPC   H3R20434   0.364   1.572   9.928 -0.1197 -0.1115  1.6586
  179SLPC   H3S20435   0.404   1.699  10.034  0.0761 -0.9339  1.1565
  179SLPC   C2420436   0.319   1.755   9.838 -0.1556  0.7329 -0.1756
  179SLPC   H4R20437   0.419   1.782   9.799 -0.2837  0.7576 -0.4903
  179SLPC   H4S20438   0.270   1.850   9.867 -0.9026 -0.2578  2.0784
  179SLPC   C2520439   0.244   1.689   9.721 -0.3421  0.1651  0.1124
  179SLPC   H5R20440   0.161   1.622   9.751 -1.0672  0.6626 -0.7230
  179SLPC   H5S20441   0.327   1.625   9.684 -1.9255 -0.8952 -1.8096
  179SLPC   C2620442   0.198   1.790   9.616 -0.3863  0.2470 -0.0978
  179SLPC   H6R20443   0.270   1.871   9.594 -2.3883  1.8779 -1.0055
  179SLPC   H6S20444   0.115   1.847   9.663 -0.0656  0.0866  0.6900
  179SLPC   C2720445   0.165   1.734   9.483  0.1871  0.7585  0.2412
  179SLPC   H7R20446   0.223   1.641   9.466 -1.6816 -0.2380 -0.9684
  179SLPC   H7S20447   0.181   1.803   9.398  1.3394  0.8466  0.5125
  179SLPC   C2820448   0.011   1.694   9.479 -0.0770 -0.4715  0.0743
  179SLPC   H8R20449  -0.044   1.790   9.474  2.8518  1.2554 -1.0004
  179SLPC   H8S20450  -0.008   1.661   9.583 -0.1179 -0.5698  0.0356
  179SLPC   C2920451  -0.018   1.597   9.371  0.3518 -0.0334  0.2273
  179SLPC   H9R20452  -0.002   1.493   9.402 -0.1779 -0.1747  0.0412
  179SLPC  C21020453  -0.075   1.635   9.254  0.1009  0.3697  0.1327
  179SLPC  H10R20454  -0.084   1.551   9.182  3.7295 -1.5005  1.6051
  179SLPC  C21120455  -0.104   1.774   9.198  0.0130  0.1005  0.6195
  179SLPC  H11R20456  -0.013   1.819   9.154 -0.9417  1.5946  0.0874
  179SLPC  H11S20457  -0.132   1.843   9.281 -0.6006 -0.3164  0.7727
  179SLPC  C21220458  -0.216   1.766   9.093  0.2687 -0.6314 -0.0077
  179SLPC  H12R20459  -0.316   1.759   9.139  0.1739  2.6359  0.5091
  179SLPC  C21320460  -0.208   1.752   8.959 -0.0765 -0.8785  0.6160
  179SLPC  H13R20461  -0.295   1.738   8.893 -0.6222  0.2618  1.0843
  179SLPC  C21420462  -0.080   1.749   8.881 -0.2807  0.2993 -0.0235
  179SLPC  H14R20463   0.008   1.753   8.949  0.9213 -3.7645 -1.0580
  179SLPC  H14S20464  -0.074   1.828   8.804  1.8799 -0.8824 -1.1530
  179SLPC  C21520465  -0.068   1.613   8.812  0.3428  0.0974  0.0042
  179SLPC  H15R20466  -0.068   1.539   8.896  2.4210  1.8712  1.7006
  179SLPC  H15S20467   0.029   1.608   8.760  0.0797 -0.7426 -0.4231
  179SLPC  C21620468  -0.174   1.575   8.709  0.6098  0.0297  0.6528
  179SLPC  H16R20469  -0.169   1.646   8.624  0.3154 -1.1390 -0.3688
  179SLPC  H16S20470  -0.280   1.572   8.740  1.6074 -2.4609  4.5096
  179SLPC  C21720471  -0.140   1.438   8.647 -0.6834  0.1155 -0.2752
  179SLPC  H17R20472  -0.157   1.386   8.744  0.5788  0.5150  0.1970
  179SLPC  H17S20473  -0.030   1.425   8.636 -0.3481  1.9474  0.4082
  179SLPC  C21820474  -0.216   1.396   8.518  0.1448 -0.9350 -0.7242
  179SLPC  H18R20475  -0.325   1.408   8.536  0.4709 -0.0867  0.8379
  179SLPC  H18S20476  -0.183   1.290   8.509  0.8107 -0.8455  0.5029
  179SLPC  H18T20477  -0.169   1.453   8.435 -0.1701 -0.6637 -0.7183
  179SLPC   C3320478  -0.190   1.103  10.005  0.1302  0.0063 -0.5016
  179SLPC   H3X20479  -0.131   1.010  10.017  1.5966  0.8449 -1.0208
  179SLPC   H3Y20480  -0.119   1.184   9.979  0.0323 -0.6558 -3.1465
  179SLPC   C3420481  -0.296   1.074   9.895 -0.1499  0.3519 -0.1497
  179SLPC   H4X20482  -0.363   1.163   9.885  0.2403  0.5390 -1.2695
  179SLPC   H4Y20483  -0.350   0.983   9.927  0.9044 -0.4311 -0.5345
  179SLPC   C3520484  -0.236   1.048   9.755  0.0851  0.1148  0.3217
  179SLPC   H5X20485  -0.182   0.951   9.763  0.1347  0.1444  0.3483
  179SLPC   H5Y20486  -0.165   1.123   9.715  1.0413 -0.8896  0.0523
  179SLPC   C3620487  -0.344   1.031   9.647 -0.7186  0.0327 -0.5078
  179SLPC   H6X20488  -0.423   1.110   9.643 -0.4410  0.3311 -0.2301
  179SLPC   H6Y20489  -0.398   0.937   9.670 -1.4866  0.6300  0.2258
  179SLPC   C3720490  -0.273   1.008   9.511  0.0577 -0.2419 -0.5908
  179SLPC   H7X20491  -0.193   0.931   9.515  1.2017  0.6652 -3.3714
  179SLPC   H7Y20492  -0.220   1.100   9.478  1.0232 -0.6959 -0.3379
  179SLPC   C3820493  -0.376   0.960   9.412  0.0152 -0.7339 -0.5163
  179SLPC   H8X20494  -0.461   1.031   9.407 -1.5718 -2.5571 -0.7278
  179SLPC   H8Y20495  -0.420   0.864   9.448 -0.5005 -0.0834  0.6609
  179SLPC   C3920496  -0.324   0.938   9.273 -0.2973 -0.6112 -0.3162
  179SLPC   H9X20497  -0.289   0.834   9.260  0.9706 -0.4534  1.4769
  179SLPC   H9Y20498  -0.243   1.010   9.251 -1.1356  1.1845  1.9945
  179SLPC  C31020499  -0.434   0.950   9.164 -0.1403 -0.0474  0.6467
  179SLPC  H10X20500  -0.483   1.048   9.179  1.3971  0.6760  1.1068
  179SLPC  H10Y20501  -0.519   0.880   9.174 -1.0386  0.9289  0.0246
  179SLPC  C31120502  -0.380   0.917   9.020  0.1570  0.3382 -0.4143
  179SLPC  H11X20503  -0.325   0.820   9.015  1.7131  1.2639 -2.1436
  179SLPC  H11Y20504  -0.298   0.989   8.999  1.5745 -0.6219  1.4427
  179SLPC  C31220505  -0.495   0.938   8.920  0.5551  0.1722  0.3198
  179SLPC  H12X20506  -0.538   1.037   8.948  3.2859  1.7925 -0.7832
  179SLPC  H12Y20507  -0.571   0.858   8.932  0.6257  0.4459  3.2536
  179SLPC  C31320508  -0.442   0.945   8.780  0.0609  0.8332  1.2729
  179SLPC  H13X20509  -0.369   0.871   8.740 -2.2282  0.4047 -2.6207
  179SLPC  H13Y20510  -0.390   1.044   8.777 -0.6782  1.2146 -0.2624
  179SLPC  C31420511  -0.559   0.953   8.681  0.1345  0.1584  0.1008
  179SLPC  H14X20512  -0.621   1.044   8.695 -0.2005 -0.2945  1.7568
  179SLPC  H14Y20513  -0.624   0.863   8.694  0.6025 -0.2959 -0.6056
  179SLPC  C31520514  -0.501   0.958   8.542  0.0242 -0.5270  0.2865
  179SLPC  H15X20515  -0.583   0.955   8.467  0.7741  0.0621 -0.5686
  179SLPC  H15Y20516  -0.440   0.869   8.517 -2.4490 -1.8937 -1.3443
  179SLPC  C31620517  -0.409   1.082   8.502  0.1429  0.2583  0.6584
  179SLPC  H16X20518  -0.305   1.075   8.540  0.6260 -0.7148 -0.7621
  179SLPC  H16Y20519  -0.459   1.176   8.533 -1.3560 -0.2086 -0.2304
  179SLPC  C31720520  -0.385   1.102   8.354  0.5694 -0.7427 -0.4958
  179SLPC  H17X20521  -0.382   1.004   8.301  1.8097 -1.1221  0.2493
  179SLPC  H17Y20522  -0.284   1.148   8.348  0.3726 -0.4406 -1.6576
  179SLPC  C31820523  -0.486   1.195   8.282  0.2594  0.9762 -0.0040
  179SLPC  H18X20524  -0.590   1.164   8.304  0.4186  0.8611  0.6108
  179SLPC  H18Y20525  -0.449   1.195   8.177 -2.5205 -2.7310 -1.2178
  179SLPC  H18Z20526  -0.476   1.298   8.324  0.5562  1.5626 -1.4656
  180SLPC     N20527   3.687   5.760  10.997 -0.1571  0.1112 -0.3941
  180SLPC   C1320528   3.742   5.724  10.865 -0.2536 -0.0922 -0.1645
  180SLPC  H13A20529   3.845   5.692  10.873 -1.0865 -2.8942  0.6390
  180SLPC  H13B20530   3.691   5.636  10.829  0.8575 -0.9652  0.3314
  180SLPC  H13C20531   3.732   5.805  10.795 -1.1088 -1.1559 -1.3265
  180SLPC   C1420532   3.766   5.885  11.037  0.7952  0.5998  0.2834
  180SLPC  H14A20533   3.731   5.925  11.130  0.3249  2.2609 -0.5711
  180SLPC  H14B20534   3.868   5.854  11.056  0.0675 -1.9517  0.4165
  180SLPC  H14C20535   3.751   5.963  10.964  0.1524 -0.5256 -0.8294
  180SLPC   C1520536   3.708   5.642  11.091 -0.5024 -0.2120 -0.0666
  180SLPC  H15A20537   3.659   5.555  11.050  2.2028 -2.0268  0.3144
  180SLPC  H15B20538   3.811   5.612  11.086 -0.3204  0.6277 -2.3254
  180SLPC  H15C20539   3.682   5.657  11.195 -0.4447  1.4310 -0.2597
  180SLPC   C1220540   3.536   5.794  11.001  0.5188 -0.2249 -0.4751
  180SLPC  H12A20541   3.516   5.831  11.100  1.8242  0.2412 -0.3641
  180SLPC  H12B20542   3.484   5.700  10.993 -0.6402  0.4737 -1.6408
  180SLPC   C1120543   3.459   5.895  10.908  0.0174 -0.1861  0.2657
  180SLPC  H11A20544   3.359   5.926  10.946 -0.1409 -0.2857 -0.0641
  180SLPC  H11B20545   3.440   5.837  10.815  0.0644 -1.9453  1.3146
  180SLPC     P20546   3.554   6.093  10.762 -0.3055  0.0225  0.1123
  180SLPC   O1320547   3.451   6.197  10.757 -0.1340  0.6581  0.2351
  180SLPC   O1420548   3.697   6.131  10.763  0.0259  0.4057  0.0556
  180SLPC   O1220549   3.543   6.010  10.894  0.3379  0.0865 -0.1802
  180SLPC   O1120550   3.539   5.988  10.646  0.2141 -0.2633  0.5453
  180SLPC    C120551   3.461   6.019  10.531  0.0742  0.4388  0.1622
  180SLPC    HA20552   3.437   6.127  10.523 -1.6823  0.3751  3.0235
  180SLPC    HB20553   3.517   5.977  10.445 -2.0238  1.0993 -1.6159
  180SLPC    C220554   3.322   5.952  10.547 -0.1331  0.3438  0.3560
  180SLPC    HS20555   3.294   5.969  10.654 -0.3341 -3.8188  1.1428
  180SLPC   O2120556   3.334   5.808  10.519  0.7623  0.6641 -0.2560
  180SLPC   C2120557   3.225   5.743  10.540  0.4496 -0.0165 -0.0339
  180SLPC   O2220558   3.125   5.779  10.608 -0.5785 -0.1710 -0.1710
  180SLPC   C2220559   3.252   5.597  10.523 -0.6104  0.3284  1.1013
  180SLPC   H2R20560   3.331   5.582  10.445  0.8200  2.2528  2.0879
  180SLPC   H2S20561   3.298   5.550  10.612  2.8254  0.8932 -0.1991
  180SLPC    C320562   3.217   6.016  10.456  0.0348  0.1999  0.5254
  180SLPC    HX20563   3.213   6.122  10.491  1.6293  0.0054  1.4068
  180SLPC    HY20564   3.113   5.982  10.475  0.2910  0.1791  2.0260
  180SLPC   O3120565   3.253   5.989  10.320 -0.1087 -0.1269  0.3301
  180SLPC   C3120566   3.291   6.096  10.251  0.7182  0.2077 -0.2392
  180SLPC   O3220567   3.319   6.204  10.298  0.3711 -0.2452 -0.5922
  180SLPC   C3220568   3.298   6.058  10.104  0.1635  0.4668  0.2884
  180SLPC   H2X20569   3.356   6.142  10.059  2.8283 -1.9608 -1.1833
  180SLPC   H2Y20570   3.194   6.053  10.066 -0.2488  0.7088  1.3725
  180SLPC   C2320571   3.132   5.517  10.486 -0.1172  0.6373 -0.4681
  180SLPC   H3R20572   3.031   5.550  10.521 -0.7516 -1.4680 -0.1526
  180SLPC   H3S20573   3.147   5.420  10.539 -0.3931  1.3130  0.8944
  180SLPC   C2420574   3.118   5.478  10.341 -0.8112  0.2271 -0.1021
  180SLPC   H4R20575   3.215   5.449  10.296 -0.8551 -0.2441  0.0993
  180SLPC   H4S20576   3.085   5.571  10.289 -0.9240 -0.1730 -0.7514
  180SLPC   C2520577   3.022   5.365  10.313 -0.0105 -0.2889  0.1116
  180SLPC   H5R20578   2.918   5.401  10.332 -0.3981 -1.1459 -0.3125
  180SLPC   H5S20579   3.036   5.275  10.377  1.3579 -0.6407 -0.6536
  180SLPC   C2620580   3.024   5.323  10.163  0.6458  0.0495  0.1648
  180SLPC   H6R20581   2.963   5.231  10.151  0.6396  0.1234 -0.3504
  180SLPC   H6S20582   3.129   5.290  10.143  0.7634  1.2462 -1.3447
  180SLPC   C2720583   2.980   5.429  10.070  0.2398  0.0845 -0.1657
  180SLPC   H7R20584   3.047   5.517  10.076 -0.2826  0.3908  1.8128
  180SLPC   H7S20585   2.876   5.457  10.097 -0.2960  0.7047 -2.6430
  180SLPC   C2820586   2.967   5.387   9.918  0.2142 -0.1964 -0.2503
  180SLPC   H8R20587   2.906   5.294   9.924 -0.5124  0.3909  2.6680
  180SLPC   H8S20588   3.068   5.352   9.887 -1.1392 -3.2782 -1.6290
  180SLPC   C2920589   2.897   5.475   9.817  0.2092 -0.7241  0.6671
  180SLPC   H9R20590   2.811   5.537   9.848 -0.4965 -1.5210  0.3329
  180SLPC  C21020591   2.951   5.512   9.698 -0.1330  0.7780  0.3465
  180SLPC  H10R20592   2.884   5.570   9.634  0.4366  0.3629 -0.6429
  180SLPC  C21120593   3.088   5.472   9.641  0.3701  0.1372  0.4842
  180SLPC  H11R20594   3.156   5.445   9.725 -0.1802 -1.5149  0.4413
  180SLPC  H11S20595   3.139   5.565   9.606  0.8372  0.1065  1.0654
  180SLPC  C21220596   3.079   5.360   9.537 -0.3013  0.2662  0.7753
  180SLPC  H12R20597   3.093   5.262   9.587  1.7861  0.8133  1.3362
  180SLPC  C21320598   3.051   5.367   9.404 -0.7437 -0.5988 -0.7146
  180SLPC  H13R20599   3.024   5.282   9.341 -2.5766 -1.1570  0.7556
  180SLPC  C21420600   3.038   5.494   9.324  0.1997 -0.4395 -0.7278
  180SLPC  H14R20601   3.096   5.495   9.230  1.5712 -0.8176  0.0844
  180SLPC  H14S20602   3.071   5.580   9.386 -0.3938  0.1180 -1.1718
  180SLPC  C21520603   2.891   5.529   9.291 -0.2950 -0.7429  0.2440
  180SLPC  H15R20604   2.808   5.537   9.364 -1.5022 -0.1725 -1.1376
  180SLPC  H15S20605   2.853   5.437   9.240  1.1537 -0.4098 -1.5524
  180SLPC  C21620606   2.880   5.653   9.201  0.2386  0.0557  0.3008
  180SLPC  H16R20607   2.895   5.738   9.272 -0.5967 -2.2898  3.4994
  180SLPC  H16S20608   2.773   5.663   9.174 -0.3770  1.3347  2.8588
  180SLPC  C21720609   2.969   5.659   9.084  0.3282 -0.1286  1.2936
  180SLPC  H17R20610   3.006   5.559   9.052  1.8203  0.8966 -0.3709
  180SLPC  H17S20611   3.050   5.726   9.119  1.6167 -0.3106 -1.0877
  180SLPC  C21820612   2.894   5.711   8.959 -0.4321 -0.0343 -0.8593
  180SLPC  H18R20613   2.802   5.654   8.935 -0.7634  0.4259 -0.6977
  180SLPC  H18S20614   2.967   5.708   8.876  0.3779 -0.1465 -0.1526
  180SLPC  H18T20615   2.872   5.819   8.976 -0.6752 -0.0503 -1.0747
  180SLPC   C3320616   3.377   5.927  10.081  0.1151  1.1640 -0.9694
  180SLPC   H3X20617   3.336   5.843  10.141  2.1538  0.9613  0.2192
  180SLPC   H3Y20618   3.479   5.936  10.124 -0.7397  0.2936  1.4528
  180SLPC   C3420619   3.409   5.884   9.931  0.3158  0.8373 -0.6462
  180SLPC   H4X20620   3.501   5.823   9.941  1.2294  2.2882  0.2464
  180SLPC   H4Y20621   3.425   5.976   9.871  0.1067  0.8419 -0.6942
  180SLPC   C3520622   3.295   5.805   9.869 -0.3293  0.0297 -0.4254
  180SLPC   H5X20623   3.196   5.848   9.898 -0.1972 -1.4084  2.5690
  180SLPC   H5Y20624   3.287   5.703   9.911  1.3625 -0.0136 -0.1729
  180SLPC   C3620625   3.310   5.798   9.716  0.1214  0.1374 -0.4419
  180SLPC   H6X20626   3.296   5.899   9.672  2.5398  0.6962 -0.0683
  180SLPC   H6Y20627   3.235   5.733   9.665  0.5195 -0.9579  0.3221
  180SLPC   C3720628   3.439   5.720   9.675  0.1651 -0.5702 -0.3055
  180SLPC   H7X20629   3.429   5.611   9.696  1.6313 -0.6945 -0.1114
  180SLPC   H7Y20630   3.533   5.754   9.725  0.2517  0.3552 -1.0699
  180SLPC   C3820631   3.485   5.721   9.528  0.4122 -0.4896  0.5488
  180SLPC   H8X20632   3.568   5.648   9.522  0.9013  0.1264 -0.3073
  180SLPC   H8Y20633   3.526   5.823   9.514 -1.2083  0.2165  0.6739
  180SLPC   C3920634   3.370   5.683   9.428 -0.1026  0.2144 -0.1413
  180SLPC   H9X20635   3.288   5.757   9.437 -1.1698 -0.8813 -0.5844
  180SLPC   H9Y20636   3.323   5.591   9.470  1.9036  0.5254  3.1432
  180SLPC  C31020637   3.428   5.671   9.283 -0.4217  0.4781  0.6457
  180SLPC  H10X20638   3.489   5.578   9.273 -0.6231  0.5137 -1.1886
  180SLPC  H10Y20639   3.508   5.749   9.280 -0.1958  0.3684  2.3541
  180SLPC  C31120640   3.326   5.691   9.166 -0.0716 -0.1289 -0.1881
  180SLPC  H11X20641   3.304   5.800   9.161  1.8860  0.2934 -0.2251
  180SLPC  H11Y20642   3.229   5.636   9.175  0.4383 -1.3831 -1.8136
  180SLPC  C31220643   3.387   5.642   9.038  0.2835  0.7977 -0.1057
  180SLPC  H12X20644   3.381   5.533   9.017 -1.5352  1.4089 -3.6231
  180SLPC  H12Y20645   3.496   5.663   9.047  0.4717 -0.6282  1.2572
  180SLPC  C31320646   3.321   5.718   8.923  0.5019 -0.1061  0.6251
  180SLPC  H13X20647   3.331   5.827   8.943  0.0473  0.0976 -0.2139
  180SLPC  H13Y20648   3.214   5.694   8.943  0.6253  1.2251  3.4683
  180SLPC  C31420649   3.372   5.678   8.784 -0.8574  1.1968 -0.5128
  180SLPC  H14X20650   3.355   5.569   8.769  1.1109  1.0684 -2.3546
  180SLPC  H14Y20651   3.480   5.697   8.766 -0.7686  0.6175 -0.6169
  180SLPC  C31520652   3.289   5.743   8.670 -1.0509  0.9675 -0.0731
  180SLPC  H15X20653   3.308   5.852   8.679 -0.4753  0.8707 -0.0645
  180SLPC  H15Y20654   3.187   5.710   8.699 -0.3506 -0.0875  1.2529
  180SLPC  C31620655   3.334   5.697   8.535 -0.4288 -0.1945  0.9503
  180SLPC  H16X20656   3.276   5.604   8.514  0.0776 -0.8375  2.2994
  180SLPC  H16Y20657   3.441   5.669   8.538  0.0355  1.2208 -0.7039
  180SLPC  C31720658   3.309   5.804   8.422 -0.7418  0.1912 -0.5719
  180SLPC  H17X20659   3.373   5.892   8.445 -1.3200  0.0558  1.8234
  180SLPC  H17Y20660   3.203   5.831   8.437 -0.5561  0.0433  1.2021
  180SLPC  C31820661   3.329   5.768   8.273  0.4804  0.7822 -0.6995
  180SLPC  H18X20662   3.435   5.740   8.257  0.3062  0.5070 -1.4486
  180SLPC  H18Y20663   3.316   5.861   8.213 -0.8432  1.6679  0.8816
  180SLPC  H18Z20664   3.268   5.680   8.245  0.7633  0.3320  0.0637
  181SLPC     N20665   3.572   4.072  11.196 -0.2006  0.2362 -0.2384
  181SLPC   C1320666   3.696   4.021  11.129  0.4516 -0.0237  0.0443
  181SLPC  H13A20667   3.782   4.039  11.192  0.1871 -0.3953  0.5161
  181SLPC  H13B20668   3.686   3.915  11.116  2.0461 -0.1058 -0.7552
  181SLPC  H13C20669   3.702   4.060  11.028  1.4278 -0.1009  0.0633
  181SLPC   C1420670   3.544   4.012  11.329  0.0701  0.1971 -0.2546
  181SLPC  H14A20671   3.534   3.905  11.320 -1.0091  0.3855 -1.6984
  181SLPC  H14B20672   3.617   4.038  11.404 -2.0620 -1.7506  2.7495
  181SLPC  H14C20673   3.460   4.054  11.382  0.3841 -0.3512  0.6956
  181SLPC   C1520674   3.457   4.046  11.109  0.0618 -0.2648 -0.0556
  181SLPC  H15A20675   3.370   4.089  11.154  0.9088  0.7812  0.6380
  181SLPC  H15B20676   3.459   4.099  11.015  1.8936  0.0823  0.1236
  181SLPC  H15C20677   3.445   3.940  11.092 -1.8833  0.0715 -1.0153
  181SLPC   C1220678   3.586   4.222  11.214 -0.5724  0.7458 -0.0088
  181SLPC  H12A20679   3.680   4.231  11.267 -0.9282  1.5788  0.5064
  181SLPC  H12B20680   3.520   4.277  11.280  0.4198  1.5707  0.3182
  181SLPC   C1120681   3.605   4.308  11.086 -0.5950 -0.5971  0.1833
  181SLPC  H11A20682   3.615   4.412  11.122  0.9976 -0.6145 -0.1270
  181SLPC  H11B20683   3.509   4.310  11.029  0.1699  0.0099 -1.1306
  181SLPC     P20684   3.865   4.311  11.022 -0.4428  0.7012 -0.2950
  181SLPC   O1320685   3.886   4.337  11.166 -0.3960 -0.4546 -0.2430
  181SLPC   O1420686   3.948   4.213  10.951 -0.7654 -0.4746 -0.3764
  181SLPC   O1220687   3.712   4.276  10.997  0.1626  0.3378  0.6223
  181SLPC   O1120688   3.887   4.450  10.966 -0.6913  0.5004  0.5760
  181SLPC    C120689   3.795   4.526  10.890 -0.7807  0.4202 -0.5073
  181SLPC    HA20690   3.694   4.523  10.936 -0.0600 -0.3766  1.0913
  181SLPC    HB20691   3.819   4.634  10.899  2.4849 -0.3288  1.7666
  181SLPC    C220692   3.798   4.494  10.741 -0.0657 -0.4315 -0.9520
  181SLPC    HS20693   3.818   4.385  10.742 -0.9809 -0.7059  2.9097
  181SLPC   O2120694   3.893   4.574  10.674 -0.1498 -0.3971 -0.3275
  181SLPC   C2120695   3.978   4.507  10.604 -0.8379  0.9059 -0.7012
  181SLPC   O2220696   3.990   4.387  10.591  0.1160  0.6186 -0.0162
  181SLPC   C2220697   4.060   4.612  10.529  0.0250 -0.0275 -0.0498
  181SLPC   H2R20698   3.991   4.658  10.455  0.5097 -0.0906 -0.5461
  181SLPC   H2S20699   4.099   4.690  10.598 -0.0306 -0.7121  0.7676
  181SLPC    C320700   3.671   4.530  10.671  0.5358 -0.1130  0.6276
  181SLPC    HX20701   3.645   4.637  10.682  2.2125  0.4364 -0.3672
  181SLPC    HY20702   3.590   4.471  10.719 -2.7798  2.3165 -1.5580
  181SLPC   O3120703   3.682   4.505  10.524  0.1715  0.5944  0.0892
  181SLPC   C3120704   3.649   4.380  10.496 -0.6156 -0.4802 -0.3152
  181SLPC   O3220705   3.645   4.288  10.577  0.4775  0.5457  0.4245
  181SLPC   C3220706   3.621   4.352  10.344  0.2107 -0.1482  0.2801
  181SLPC   H2X20707   3.527   4.404  10.316  0.8486  0.3913 -0.9449
  181SLPC   H2Y20708   3.614   4.241  10.336 -0.7646 -0.0316 -0.6999
  181SLPC   C2320709   4.175   4.542  10.452 -0.2424  0.1002 -0.6663
  181SLPC   H3R20710   4.218   4.622  10.388 -1.1313  0.5148 -0.7570
  181SLPC   H3S20711   4.141   4.454  10.393  0.5749  0.0488 -1.0789
  181SLPC   C2420712   4.289   4.497  10.543  0.1796  0.8777 -0.0859
  181SLPC   H4R20713   4.259   4.412  10.606 -0.1008  0.7144 -0.4335
  181SLPC   H4S20714   4.316   4.586  10.604  4.7960 -0.2113 -0.1849
  181SLPC   C2520715   4.407   4.452  10.459 -0.1710  0.4481  0.4832
  181SLPC   H5R20716   4.436   4.537  10.394 -1.1881  1.5746  1.4486
  181SLPC   H5S20717   4.369   4.377  10.386  0.0659  0.3058  0.5050
  181SLPC   C2620718   4.522   4.401  10.540 -0.5127 -0.0735  0.1117
  181SLPC   H6R20719   4.499   4.300  10.580  0.6173 -0.3539  0.0644
  181SLPC   H6S20720   4.551   4.463  10.627 -3.2740  0.6687  0.6274
  181SLPC   C2720721   4.645   4.379  10.455 -0.1677  0.6390 -0.3194
  181SLPC   H7R20722   4.614   4.323  10.364  2.4153 -0.9289 -0.3430
  181SLPC   H7S20723   4.719   4.312  10.503 -0.7427 -0.4092 -0.8553
  181SLPC   C2820724   4.714   4.506  10.402 -0.4623  0.2599 -0.1842
  181SLPC   H8R20725   4.754   4.563  10.489 -1.8730 -1.4643  1.7021
  181SLPC   H8S20726   4.639   4.575  10.359  0.5460  0.2214 -2.0826
  181SLPC   C2920727   4.812   4.474  10.290 -0.2286 -0.1655 -0.5780
  181SLPC   H9R20728   4.914   4.473  10.331 -0.8056 -2.4692  1.0471
  181SLPC  C21020729   4.784   4.444  10.163  0.0278 -0.3573  0.3908
  181SLPC  H10R20730   4.865   4.432  10.089 -0.2320 -1.9540  0.3345
  181SLPC  C21120731   4.654   4.413  10.103  0.3150 -0.3541 -0.7435
  181SLPC  H11R20732   4.579   4.406  10.184  1.1207 -1.5863 -0.0731
  181SLPC  H11S20733   4.663   4.307  10.071 -0.6973 -0.0386 -2.1466
  181SLPC  C21220734   4.590   4.515  10.002  0.4567  0.3278 -0.5535
  181SLPC  H12R20735   4.581   4.618  10.039 -0.9104  0.5401 -1.4350
  181SLPC  C21320736   4.540   4.490   9.882 -0.4638 -0.2154  0.2502
  181SLPC  H13R20737   4.505   4.573   9.818 -1.4698  1.3866  2.7246
  181SLPC  C21420738   4.543   4.358   9.820  0.0750  0.1207  0.4379
  181SLPC  H14R20739   4.449   4.330   9.769  0.0353 -0.1994  0.6824
  181SLPC  H14S20740   4.551   4.279   9.898 -2.3173 -0.5839  0.0417
  181SLPC  C21520741   4.659   4.340   9.712 -0.4867 -0.7132  0.3347
  181SLPC  H15R20742   4.650   4.235   9.676  3.8623 -1.0425 -0.4313
  181SLPC  H15S20743   4.760   4.346   9.757  0.3546  0.4711 -1.5482
  181SLPC  C21620744   4.650   4.427   9.589 -0.1398  0.5578  0.3356
  181SLPC  H16R20745   4.731   4.401   9.518  2.0077  1.9963  2.1126
  181SLPC  H16S20746   4.654   4.537   9.609  0.1634  0.6146 -0.0242
  181SLPC  C21720747   4.520   4.396   9.513  0.5055  0.3015  0.0443
  181SLPC  H17R20748   4.440   4.434   9.580 -0.8695 -1.2397 -0.6632
  181SLPC  H17S20749   4.497   4.290   9.492  1.2963  0.1516 -0.0892
  181SLPC  C21820750   4.524   4.486   9.385 -0.0112 -0.4681 -0.0032
  181SLPC  H18R20751   4.516   4.593   9.414  0.3400  0.2680 -2.4032
  181SLPC  H18S20752   4.442   4.453   9.318 -0.1532 -1.3012  0.5667
  181SLPC  H18T20753   4.618   4.488   9.326  0.0436  1.6504  0.0750
  181SLPC   C3320754   3.736   4.411  10.249 -0.0010  0.2082 -0.0267
  181SLPC   H3X20755   3.826   4.384  10.308  0.8154  2.9181  0.0999
  181SLPC   H3Y20756   3.723   4.520  10.227 -2.0343 -0.1899 -1.0967
  181SLPC   C3420757   3.741   4.332  10.123 -0.6723  0.0146  0.6420
  181SLPC   H4X20758   3.778   4.228  10.140  0.5968  0.0892 -1.3186
  181SLPC   H4Y20759   3.811   4.379  10.051 -2.4154  0.9237 -0.5343
  181SLPC   C3520760   3.616   4.333  10.027 -0.1741 -0.4953 -0.9235
  181SLPC   H5X20761   3.568   4.433  10.027  0.4733 -0.1238 -3.1912
  181SLPC   H5Y20762   3.537   4.272  10.077  0.2771  1.7252  2.9650
  181SLPC   C3620763   3.635   4.288   9.882 -0.1628 -0.1081  0.8460
  181SLPC   H6X20764   3.691   4.192   9.889 -1.4552 -0.9827 -0.1872
  181SLPC   H6Y20765   3.690   4.371   9.832  0.0413 -2.0924 -2.6069
  181SLPC   C3720766   3.496   4.274   9.805 -0.4248  0.1531  0.5022
  181SLPC   H7X20767   3.440   4.370   9.811  0.3874  0.5675  1.7746
  181SLPC   H7Y20768   3.431   4.206   9.863  0.0227 -2.0190 -1.3800
  181SLPC   C3820769   3.507   4.218   9.669 -0.2880 -0.3509  0.1544
  181SLPC   H8X20770   3.404   4.213   9.629  0.3536 -0.8618 -1.5313
  181SLPC   H8Y20771   3.547   4.117   9.691  1.0608 -0.0273 -0.6213
  181SLPC   C3920772   3.600   4.294   9.567  0.2839  0.3045 -0.0014
  181SLPC   H9X20773   3.706   4.290   9.603  0.7040  0.1038 -1.2193
  181SLPC   H9Y20774   3.581   4.403   9.563  0.1845  0.2750 -0.3492
  181SLPC  C31020775   3.588   4.240   9.423  0.2162 -0.3170  0.9501
  181SLPC  H10X20776   3.681   4.278   9.376 -0.0802  2.0242  2.0609
  181SLPC  H10Y20777   3.505   4.278   9.359  1.3686  0.6279 -0.0280
  181SLPC  C31120778   3.598   4.087   9.411 -1.1382  0.1988  0.3803
  181SLPC  H11X20779   3.506   4.036   9.447  0.1055 -1.3334  1.5385
  181SLPC  H11Y20780   3.681   4.047   9.473 -0.7518 -0.9825 -0.8454
  181SLPC  C31220781   3.621   4.027   9.270 -0.0280  0.5044 -0.0575
  181SLPC  H12X20782   3.630   3.918   9.292 -0.8019  0.8939  2.5283
  181SLPC  H12Y20783   3.718   4.062   9.231 -1.0735  1.1567 -2.2510
  181SLPC  C31320784   3.507   4.059   9.174  0.1287 -0.3013  0.8261
  181SLPC  H13X20785   3.504   4.169   9.158 -1.1119 -0.6427 -1.9363
  181SLPC  H13Y20786   3.414   4.023   9.224 -0.4074 -0.7651 -0.4517
  181SLPC  C31420787   3.529   3.988   9.037  0.8962 -0.6056  0.1161
  181SLPC  H14X20788   3.564   3.885   9.057  1.8870  0.0873  2.2002
  181SLPC  H14Y20789   3.612   4.041   8.985  1.6333  1.0021  2.7511
  181SLPC  C31520790   3.406   4.003   8.945  0.3852 -0.2267 -0.3016
  181SLPC  H15X20791   3.370   4.108   8.945  1.4929  0.1752 -1.6033
  181SLPC  H15Y20792   3.324   3.938   8.981 -0.3184  0.5366 -0.4794
  181SLPC  C31620793   3.433   3.954   8.797  0.7967 -0.1906 -0.4559
  181SLPC  H16X20794   3.456   3.846   8.783 -1.4483 -0.5298 -1.9799
  181SLPC  H16Y20795   3.511   4.019   8.753  0.1834  1.6116  1.0015
  181SLPC  C31720796   3.302   3.987   8.705 -0.7409 -0.2520 -0.8824
  181SLPC  H17X20797   3.288   4.097   8.717  1.8595  0.0816 -0.3985
  181SLPC  H17Y20798   3.216   3.948   8.763 -0.1680 -0.4181 -0.1422
  181SLPC  C31820799   3.311   3.955   8.556 -0.8592  0.6510 -0.1719
  181SLPC  H18X20800   3.396   4.006   8.505  1.9031 -4.5203 -1.4474
  181SLPC  H18Y20801   3.216   3.985   8.506 -2.5045 -0.2665  2.2249
  181SLPC  H18Z20802   3.326   3.846   8.544 -2.1308  0.6047 -1.7295
  182SLPC     N20803   3.005   2.977  10.887  0.2533  0.3835  0.1263
  182SLPC   C1320804   2.969   2.869  10.792  0.3936 -0.1558 -0.2163
  182SLPC  H13A20805   2.884   2.896  10.731  0.6779 -0.4434 -0.7466
  182SLPC  H13B20806   3.058   2.844  10.735 -0.8233 -1.9326 -1.4190
  182SLPC  H13C20807   2.941   2.782  10.849 -1.1527 -0.1730 -0.9537
  182SLPC   C1420808   3.117   2.918  10.977  0.1239  0.2808 -0.4758
  182SLPC  H14A20809   3.204   2.906  10.914  0.3716  1.2947 -0.3520
  182SLPC  H14B20810   3.143   2.987  11.056 -0.0999 -1.8223  1.5300
  182SLPC  H14C20811   3.081   2.825  11.019  1.2847  0.2432  0.4977
  182SLPC   C1520812   2.883   2.994  10.968  0.0838 -0.3582 -0.3418
  182SLPC  H15A20813   2.811   3.056  10.916 -0.6983 -1.7864 -1.0153
  182SLPC  H15B20814   2.830   2.902  10.987  0.4230 -0.4395  0.2689
  182SLPC  H15C20815   2.912   3.039  11.062 -0.3045  0.3896 -0.5739
  182SLPC   C1220816   3.056   3.096  10.806  0.1304  0.4372 -0.5096
  182SLPC  H12A20817   3.160   3.082  10.781 -0.4189 -2.1541 -1.6496
  182SLPC  H12B20818   3.054   3.180  10.874 -0.7058 -0.2898  0.4009
  182SLPC   C1120819   2.985   3.156  10.681  0.8973  0.2131  0.4064
  182SLPC  H11A20820   2.987   3.076  10.604  0.0681  1.0569 -0.5181
  182SLPC  H11B20821   3.040   3.240  10.633  0.6196  0.7220  0.9676
  182SLPC     P20822   2.830   3.347  10.759 -0.0674 -0.2304 -0.2509
  182SLPC   O1320823   2.690   3.365  10.797  0.7182  0.1933 -0.3718
  182SLPC   O1420824   2.923   3.367  10.867  0.1227 -0.4842 -0.5013
  182SLPC   O1220825   2.854   3.201  10.707 -0.6303  0.1754 -0.5199
  182SLPC   O1120826   2.875   3.420  10.629 -0.3505 -0.6889  0.0777
  182SLPC    C120827   2.789   3.411  10.517 -0.0071 -0.1223 -0.3507
  182SLPC    HA20828   2.735   3.314  10.514 -0.7233  0.2988 -1.4577
  182SLPC    HB20829   2.709   3.487  10.529 -0.6003 -0.9453  1.3208
  182SLPC    C220830   2.873   3.438  10.389 -0.3315  0.4406 -0.3052
  182SLPC    HS20831   2.804   3.443  10.302  0.0482 -0.6408 -0.6828
  182SLPC   O2120832   2.970   3.338  10.364  0.4172  0.3276 -0.2621
  182SLPC   C2120833   2.921   3.217  10.333  0.4888 -0.0690 -0.4124
  182SLPC   O2220834   2.804   3.188  10.306 -0.7579 -0.4182  0.9337
  182SLPC   C2220835   3.037   3.119  10.316 -0.1513  1.0959  0.8228
  182SLPC   H2R20836   3.137   3.157  10.346  0.7015 -0.6888  0.3593
  182SLPC   H2S20837   3.010   3.028  10.373 -3.1290  0.3267 -1.5923
  182SLPC    C320838   2.951   3.573  10.401  0.4547 -0.8065 -0.7432
  182SLPC    HX20839   3.037   3.554  10.468 -0.5161 -2.5901  0.0555
  182SLPC    HY20840   2.885   3.643  10.457 -0.5627 -2.5763  0.3762
  182SLPC   O3120841   2.982   3.634  10.270  0.2835  0.1717 -0.0394
  182SLPC   C3120842   3.108   3.657  10.256 -0.2594 -0.2859  0.5279
  182SLPC   O3220843   3.194   3.644  10.337 -0.6311  0.0403 -0.1667
  182SLPC   C3220844   3.144   3.699  10.114  0.5017 -0.3960 -0.0453
  182SLPC   H2X20845   3.087   3.637  10.042  1.0090  1.3297 -2.0017
  182SLPC   H2Y20846   3.253   3.676  10.109  1.2617  1.7602  3.2309
  182SLPC   C2320847   3.053   3.067  10.168 -0.5523 -0.6927  0.3504
  182SLPC   H3R20848   2.950   3.065  10.126 -0.7054  2.1495  0.4323
  182SLPC   H3S20849   3.115   2.976  10.154  0.1750  0.1976 -3.0217
  182SLPC   C2420850   3.135   3.169  10.070  0.3032  0.7448 -0.2978
  182SLPC   H4R20851   3.237   3.167  10.113 -0.4188 -0.5351  1.4912
  182SLPC   H4S20852   3.087   3.268  10.089 -2.1448 -0.3909 -0.1551
  182SLPC   C2520853   3.124   3.119   9.919  0.8333  0.1304  0.3673
  182SLPC   H5R20854   3.023   3.119   9.874  0.6894  0.0674  0.6892
  182SLPC   H5S20855   3.163   3.016   9.908  0.2656 -0.0508  0.0576
  182SLPC   C2620856   3.213   3.204   9.832 -0.3111 -1.0185 -0.0618
  182SLPC   H6R20857   3.294   3.240   9.898 -1.0918  2.6140 -0.8379
  182SLPC   H6S20858   3.162   3.296   9.796  0.4523 -0.7781 -0.5606
  182SLPC   C2720859   3.273   3.130   9.712 -0.0315 -0.6371 -0.2843
  182SLPC   H7R20860   3.188   3.111   9.642  0.4199 -2.3144 -0.4030
  182SLPC   H7S20861   3.316   3.032   9.738  2.5500  0.8225  1.2967
  182SLPC   C2820862   3.381   3.213   9.638  0.2425  0.2961  0.0498
  182SLPC   H8R20863   3.478   3.212   9.692 -0.1070 -2.4806  0.7558
  182SLPC   H8S20864   3.340   3.316   9.632 -0.1505  0.1348 -0.0597
  182SLPC   C2920865   3.400   3.158   9.497 -0.4354 -0.6251 -0.9852
  182SLPC   H9R20866   3.392   3.048   9.492  1.2219 -0.7541 -1.2404
  182SLPC  C21020867   3.433   3.220   9.388  0.0494  0.9355  0.0393
  182SLPC  H10R20868   3.447   3.163   9.295  0.1703  1.6428 -0.3914
  182SLPC  C21120869   3.457   3.365   9.362  0.1352  0.2879 -0.2600
  182SLPC  H11R20870   3.566   3.372   9.341  0.3872 -0.0990  0.8135
  182SLPC  H11S20871   3.438   3.421   9.457 -0.9246 -0.4760  0.0041
  182SLPC  C21220872   3.377   3.447   9.261 -0.4954  1.2131 -0.4005
  182SLPC  H12R20873   3.269   3.429   9.259 -0.3544  0.3232 -1.5165
  182SLPC  C21320874   3.428   3.528   9.165 -0.5973  0.1400  0.3221
  182SLPC  H13R20875   3.354   3.586   9.108 -0.5234 -0.5103 -0.4478
  182SLPC  C21420876   3.572   3.559   9.144  0.1479  0.1920 -0.0211
  182SLPC  H14R20877   3.627   3.463   9.158  0.0125  0.0693 -0.3262
  182SLPC  H14S20878   3.601   3.634   9.220 -1.3761  0.3046  0.4965
  182SLPC  C21520879   3.596   3.606   9.002 -0.1380  0.3945 -0.2867
  182SLPC  H15R20880   3.702   3.636   8.996  0.9675 -2.8493  0.8477
  182SLPC  H15S20881   3.538   3.698   8.979 -2.8661 -0.7212  1.5097
  182SLPC  C21620882   3.556   3.508   8.893  0.6080  0.4728  0.8619
  182SLPC  H16R20883   3.449   3.488   8.912  0.7054  0.8036  1.8275
  182SLPC  H16S20884   3.623   3.423   8.916 -0.0448  0.3755  2.5540
  182SLPC  C21720885   3.585   3.559   8.749 -0.0246  0.5198 -0.6742
  182SLPC  H17R20886   3.694   3.579   8.744 -0.0308  0.1576 -3.3820
  182SLPC  H17S20887   3.538   3.655   8.722 -0.4622 -0.2342 -2.7525
  182SLPC  C21820888   3.542   3.454   8.640  0.0807  0.5068 -0.6362
  182SLPC  H18R20889   3.511   3.516   8.554 -2.3433  1.3191  0.7118
  182SLPC  H18S20890   3.454   3.399   8.680  0.6946 -0.1481 -0.1524
  182SLPC  H18T20891   3.630   3.388   8.626 -0.8271 -0.9779  0.3178
  182SLPC   C3320892   3.112   3.849  10.092  0.1589 -0.0937 -0.2267
  182SLPC   H3X20893   3.170   3.911  10.164 -1.1219 -0.0006  0.7567
  182SLPC   H3Y20894   3.005   3.870  10.109 -0.1920 -0.4865 -1.8061
  182SLPC   C3420895   3.145   3.906   9.958  0.1528 -0.9144 -0.2169
  182SLPC   H4X20896   3.107   3.840   9.878  0.9108  0.1306 -1.4853
  182SLPC   H4Y20897   3.255   3.890   9.957  0.1487 -1.0304  0.7331
  182SLPC   C3520898   3.103   4.046   9.922 -0.4380 -0.8589  0.0910
  182SLPC   H5X20899   2.992   4.054   9.913 -0.6180  0.5357  2.5664
  182SLPC   H5Y20900   3.153   4.084   9.831 -0.6898  2.1389  1.0944
  182SLPC   C3620901   3.133   4.155  10.017 -1.0555  0.4730  0.3285
  182SLPC   H6X20902   3.237   4.144  10.055 -0.4559  4.4343  0.2081
  182SLPC   H6Y20903   3.077   4.136  10.111  1.0351 -0.2949  1.4896
  182SLPC   C3720904   3.104   4.296   9.951  0.0894  0.1717  0.3434
  182SLPC   H7X20905   3.163   4.305   9.858  1.0533 -2.1070  0.6549
  182SLPC   H7Y20906   3.148   4.371  10.020  1.1220 -0.1213  0.0183
  182SLPC   C3820907   2.954   4.328   9.923  0.2590  0.8437 -0.2296
  182SLPC   H8X20908   2.904   4.311  10.021 -0.2363  0.4068 -0.5520
  182SLPC   H8Y20909   2.917   4.260   9.843 -0.6146  1.2391 -0.1715
  182SLPC   C3920910   2.941   4.471   9.866  0.1265 -0.0068  0.5862
  182SLPC   H9X20911   3.016   4.491   9.787 -1.6994  0.0742 -1.2243
  182SLPC   H9Y20912   2.952   4.547   9.946  2.1831 -0.2264  0.5477
  182SLPC  C31020913   2.802   4.487   9.800  0.0117 -0.2938 -0.7948
  182SLPC  H10X20914   2.721   4.474   9.875  0.8797 -1.2460  0.0057
  182SLPC  H10Y20915   2.788   4.407   9.724 -0.1243  0.8847 -2.0497
  182SLPC  C31120916   2.791   4.615   9.723  0.0985 -0.4428  0.0939
  182SLPC  H11X20917   2.875   4.637   9.653 -0.2647 -0.3682 -0.3203
  182SLPC  H11Y20918   2.798   4.689   9.806  3.1897 -0.4906  0.0171
  182SLPC  C31220919   2.657   4.639   9.653 -0.2990  0.4497 -0.3711
  182SLPC  H12X20920   2.649   4.750   9.643  2.7075  0.7859  0.1262
  182SLPC  H12Y20921   2.574   4.596   9.714 -1.5194  2.4530 -0.5014
  182SLPC  C31320922   2.646   4.588   9.510 -0.4314 -0.1061  0.6847
  182SLPC  H13X20923   2.543   4.610   9.476  0.4794  0.6851 -1.8147
  182SLPC  H13Y20924   2.665   4.478   9.510  1.2330  0.1422 -0.0013
  182SLPC  C31420925   2.724   4.659   9.399 -0.1407 -0.0383  0.5405
  182SLPC  H14X20926   2.828   4.666   9.438 -0.7054  2.2229  1.8299
  182SLPC  H14Y20927   2.679   4.758   9.381 -1.7786 -0.5292  1.6759
  182SLPC  C31520928   2.734   4.569   9.273  0.5348  0.3578  0.0052
  182SLPC  H15X20929   2.761   4.469   9.315 -2.4078 -0.1359  0.9665
  182SLPC  H15Y20930   2.816   4.609   9.209  0.6489  0.2787  0.1000
  182SLPC  C31620931   2.602   4.570   9.202 -0.1117  0.6579 -0.0834
  182SLPC  H16X20932   2.570   4.671   9.166 -1.3171  0.7145  1.0479
  182SLPC  H16Y20933   2.527   4.520   9.266  1.0200 -0.3909  0.4472
  182SLPC  C31720934   2.600   4.482   9.073  0.2202  0.7688 -0.2915
  182SLPC  H17X20935   2.660   4.389   9.082  0.4617  0.6747 -2.3812
  182SLPC  H17Y20936   2.658   4.542   9.000  2.9977  0.3405  1.3931
  182SLPC  C31820937   2.459   4.456   9.019  0.8492  0.4606  0.0276
  182SLPC  H18X20938   2.390   4.542   9.004  2.0770  1.1761 -2.0095
  182SLPC  H18Y20939   2.412   4.396   9.100  0.1864 -0.9434 -1.3495
  182SLPC  H18Z20940   2.465   4.394   8.928  0.8433  0.3812  0.0804
  183SLPC     N20941   4.819   4.693  10.990 -0.5418  0.0026 -0.2100
  183SLPC   C1320942   4.772   4.608  11.105  0.0662 -0.1402 -0.3630
  183SLPC  H13A20943   4.852   4.542  11.133 -0.2029 -0.8264 -1.1636
  183SLPC  H13B20944   4.728   4.666  11.185  0.5244  0.6265 -0.6555
  183SLPC  H13C20945   4.695   4.541  11.070 -0.4484  1.3408 -2.2655
  183SLPC   C1420946   4.931   4.775  11.046  0.1723 -0.1469  0.2379
  183SLPC  H14A20947   4.889   4.863  11.092  1.7092  1.3844 -1.1451
  183SLPC  H14B20948   5.001   4.720  11.107  0.7969  1.5359  1.1084
  183SLPC  H14C20949   4.997   4.814  10.970  1.6279 -0.7914  1.1217
  183SLPC   C1520950   4.706   4.773  10.948  0.0354 -0.2893  0.8751
  183SLPC  H15A20951   4.633   4.710  10.900  0.0539 -0.4849  1.1049
  183SLPC  H15B20952   4.656   4.831  11.024  0.1394  1.2405 -0.1665
  183SLPC  H15C20953   4.734   4.845  10.872 -1.0597 -0.4246  0.3168
  183SLPC   C1220954   4.877   4.602  10.881 -0.0620 -0.1861 -0.3522
  183SLPC  H12A20955   4.798   4.538  10.844 -0.1632  0.2274 -0.8700
  183SLPC  H12B20956   4.962   4.550  10.923 -1.0910 -0.3231  1.6342
  183SLPC   C1120957   4.932   4.667  10.750  0.3430 -0.1566 -0.0159
  183SLPC  H11A20958   4.856   4.735  10.706  1.2172 -0.6033 -2.3805
  183SLPC  H11B20959   4.940   4.588  10.672 -0.0631 -0.3449  0.1294
  183SLPC     P20960   5.186   4.656  10.810  0.1655 -0.1001  0.1971
  183SLPC   O1320961   5.297   4.756  10.808  0.6755 -0.2595  0.3278
  183SLPC   O1420962   5.176   4.553  10.918  0.2671  0.0557 -0.3540
  183SLPC   O1220963   5.050   4.730  10.779 -0.0580  0.2205  0.1323
  183SLPC   O1120964   5.197   4.566  10.671  0.3380 -0.6008  0.4897
  183SLPC    C120965   5.183   4.641  10.546 -0.3853 -0.3427  0.0284
  183SLPC    HA20966   5.121   4.599  10.464 -1.1150  0.6802  0.0448
  183SLPC    HB20967   5.128   4.735  10.567  2.0638  0.6699  2.6645
  183SLPC    C220968   5.326   4.674  10.495 -0.4308  0.5512 -0.4649
  183SLPC    HS20969   5.377   4.741  10.567 -0.4213  2.1149 -1.8568
  183SLPC   O2120970   5.304   4.733  10.373 -0.1135  0.3009  0.5599
  183SLPC   C2120971   5.396   4.827  10.328 -0.3400  0.1184  0.5175
  183SLPC   O2220972   5.486   4.870  10.394  0.4849 -0.3698 -0.4719
  183SLPC   C2220973   5.353   4.872  10.185  0.9851 -0.8692 -0.0504
  183SLPC   H2R20974   5.244   4.893  10.197  0.9110 -1.4014  0.2249
  183SLPC   H2S20975   5.413   4.962  10.159  2.0372 -0.8689  2.1294
  183SLPC    C320976   5.406   4.544  10.480 -0.8270 -0.1017  0.0191
  183SLPC    HX20977   5.352   4.484  10.403 -0.1953 -0.6228 -0.0293
  183SLPC    HY20978   5.400   4.484  10.573  2.2191  0.3014  0.5803
  183SLPC   O3120979   5.546   4.569  10.442  0.5484 -0.2336  0.8572
  183SLPC   C3120980   5.622   4.579  10.558 -0.0083 -0.5195  1.0266
  183SLPC   O3220981   5.572   4.570  10.668 -0.4089 -0.3985  0.1920
  183SLPC   C3220982   5.760   4.628  10.524 -0.3913  0.1783 -0.4931
  183SLPC   H2X20983   5.787   4.712  10.591 -0.2363 -0.0159 -0.3108
  183SLPC   H2Y20984   5.777   4.663  10.420 -1.1243 -0.7474 -0.9392
  183SLPC   C2320985   5.376   4.757  10.090  0.2102  0.2247  0.5357
  183SLPC   H3R20986   5.323   4.779   9.994  0.7122  0.5336  0.3236
  183SLPC   H3S20987   5.338   4.660  10.129  1.4897  0.4797  2.5052
  183SLPC   C2420988   5.530   4.743  10.060  0.3113  0.0487 -0.5010
  183SLPC   H4R20989   5.545   4.641  10.019  2.2317 -0.6749  1.7910
  183SLPC   H4S20990   5.585   4.752  10.156  0.5955  1.2070 -0.7596
  183SLPC   C2520991   5.569   4.843   9.954 -0.0952 -0.2424  0.2861
  183SLPC   H5R20992   5.575   4.949   9.986  3.6046 -0.5155  0.8852
  183SLPC   H5S20993   5.490   4.826   9.878  0.3427  1.0342 -0.4818
  183SLPC   C2620994   5.696   4.796   9.873  0.1942  0.2928  0.3950
  183SLPC   H6R20995   5.699   4.860   9.782 -0.8035 -0.6353 -0.3208
  183SLPC   H6S20996   5.682   4.688   9.851  2.3500  0.1570 -0.5585
  183SLPC   C2720997   5.830   4.826   9.943 -0.2898 -0.0303  0.0471
  183SLPC   H7R20998   5.837   4.766  10.037  1.1543 -1.8085 -1.1121
  183SLPC   H7S20999   5.840   4.934   9.967  1.7484 -0.2409  0.2754
  183SLPC   C2821000   5.955   4.814   9.853  0.0348  0.3380 -0.3105
  183SLPC   H8R21001   5.985   4.708   9.837 -2.5258 -0.3619 -0.8877
  183SLPC   H8S21002   6.039   4.850   9.917 -0.5301  2.4382 -0.6557
  183SLPC   C2921003   5.956   4.913   9.740  0.7239 -0.9371  0.6194
  183SLPC   H9R21004   5.961   5.019   9.771  0.1811 -0.4018 -1.0618
  183SLPC  C21021005   5.927   4.889   9.607 -0.4401 -0.3819 -0.1717
  183SLPC  H10R21006   5.922   4.973   9.536  1.5513  0.2783  0.3840
  183SLPC  C21121007   5.887   4.756   9.547  0.8823  0.0008  0.4907
  183SLPC  H11R21008   5.783   4.754   9.508  1.2242  1.1383 -0.5487
  183SLPC  H11S21009   5.900   4.679   9.626 -0.0334 -0.5812  0.0761
  183SLPC  C21221010   5.991   4.724   9.438  0.2398 -0.1352 -0.0957
  183SLPC  H12R21011   6.087   4.688   9.479  0.6247  2.6677  1.7547
  183SLPC  C21321012   5.987   4.738   9.304  0.7903 -1.0507 -0.0875
  183SLPC  H13R21013   6.076   4.710   9.246  1.9571 -2.7753  2.3892
  183SLPC  C21421014   5.868   4.786   9.224 -0.0704 -0.3226  0.4569
  183SLPC  H14R21015   5.778   4.751   9.280 -0.7191  2.2592  1.1547
  183SLPC  H14S21016   5.860   4.721   9.134 -0.1917 -1.0447  0.9770
  183SLPC  C21521017   5.859   4.931   9.177 -0.8621 -0.4018  0.0199
  183SLPC  H15R21018   5.860   4.996   9.267 -1.0871 -0.6317  0.1906
  183SLPC  H15S21019   5.760   4.950   9.131 -0.2381  1.2966 -0.6809
  183SLPC  C21621020   5.967   4.979   9.078 -0.3507  0.0795  0.1715
  183SLPC  H16R21021   6.066   4.954   9.122  0.1339 -1.1369 -1.5088
  183SLPC  H16S21022   5.955   5.090   9.080  2.5254  0.4669  2.6950
  183SLPC  C21721023   5.960   4.922   8.929 -0.1550  0.6164 -0.1522
  183SLPC  H17R21024   5.857   4.952   8.899 -0.5469 -0.9439 -0.4388
  183SLPC  H17S21025   5.968   4.811   8.923  0.9216  0.7353 -1.7186
  183SLPC  C21821026   6.061   4.980   8.833 -0.3213  0.4308  0.0717
  183SLPC  H18R21027   6.040   4.937   8.732 -1.5533 -1.5900  1.1154
  183SLPC  H18S21028   6.168   4.968   8.858  0.1280 -1.9198 -2.4974
  183SLPC  H18T21029   6.046   5.090   8.831  2.3673  0.8930  1.2857
  183SLPC   C3321030   5.861   4.513  10.543 -0.1594  0.0729 -0.6782
  183SLPC   H3X21031   5.842   4.456  10.636  1.4969  3.2120  1.7795
  183SLPC   H3Y21032   5.964   4.554  10.557  1.0060 -2.9229  0.2778
  183SLPC   C3421033   5.859   4.419  10.422 -0.7914 -0.3113 -0.1845
  183SLPC   H4X21034   5.756   4.379  10.407 -0.8614 -0.0094 -0.5156
  183SLPC   H4Y21035   5.934   4.339  10.440  0.5016  0.7673 -0.6502
  183SLPC   C3521036   5.916   4.492  10.303  0.0915 -0.3241 -0.3973
  183SLPC   H5X21037   6.020   4.521  10.327 -0.4703  2.6055 -1.0631
  183SLPC   H5Y21038   5.860   4.581  10.265  0.9230  0.8403  1.0145
  183SLPC   C3621039   5.925   4.385  10.192 -0.1096 -0.3387  0.5045
  183SLPC   H6X21040   5.832   4.324  10.183  0.1915 -0.5214 -2.6118
  183SLPC   H6Y21041   5.999   4.303  10.208  1.8547  1.5079  1.2895
  183SLPC   C3721042   5.964   4.455  10.065 -0.5639  0.2617  0.5570
  183SLPC   H7X21043   6.032   4.536  10.101 -2.5525  1.3410  2.0442
  183SLPC   H7Y21044   5.878   4.508  10.020 -0.6514 -1.2757 -1.2297
  183SLPC   C3821045   6.016   4.361   9.960  0.2988  0.2523  0.5304
  183SLPC   H8X21046   5.937   4.286   9.937 -0.1269  0.3574  1.6154
  183SLPC   H8Y21047   6.111   4.310   9.986  0.5761  1.3927  1.8530
  183SLPC   C3921048   6.036   4.432   9.818  0.0231  0.4183 -0.9051
  183SLPC   H9X21049   6.114   4.510   9.824 -0.6646  1.0142  2.1751
  183SLPC   H9Y21050   5.943   4.490   9.798 -0.2318  0.1853 -0.4121
  183SLPC  C31021051   6.053   4.323   9.709 -0.1350 -0.6816 -0.2760
  183SLPC  H10X21052   5.950   4.285   9.691 -0.2909 -0.1131 -0.6354
  183SLPC  H10Y21053   6.115   4.243   9.756 -3.8609 -2.4691  2.0684
  183SLPC  C31121054   6.111   4.389   9.579  0.2039  0.3575  0.0845
  183SLPC  H11X21055   6.201   4.439   9.621 -0.1631  1.4722 -0.4300
  183SLPC  H11Y21056   6.030   4.463   9.561  1.6183  2.2594  1.1197
  183SLPC  C31221057   6.136   4.301   9.456 -0.9597  0.4574  0.5521
  183SLPC  H12X21058   6.046   4.241   9.431 -1.0534  0.9993 -0.4938
  183SLPC  H12Y21059   6.218   4.226   9.465  0.4542  1.7722 -0.7306
  183SLPC  C31321060   6.164   4.390   9.330  0.0583 -0.4017 -0.1691
  183SLPC  H13X21061   6.259   4.445   9.345 -0.1803  0.6399 -2.0569
  183SLPC  H13Y21062   6.071   4.452   9.324 -2.0838 -3.3500  0.2467
  183SLPC  C31421063   6.180   4.311   9.207 -0.0138 -0.5086  0.4794
  183SLPC  H14X21064   6.074   4.287   9.184 -0.4141 -0.2902  1.9904
  183SLPC  H14Y21065   6.241   4.218   9.215  0.2649 -0.4109 -0.4555
  183SLPC  C31521066   6.236   4.394   9.086  0.0827 -0.8810 -0.1711
  183SLPC  H15X21067   6.291   4.331   9.013  1.3156  0.0995 -0.1095
  183SLPC  H15Y21068   6.302   4.475   9.122 -1.2704 -0.4677  1.5130
  183SLPC  C31621069   6.126   4.463   9.004 -0.1585  0.0138 -0.2627
  183SLPC  H16X21070   6.056   4.512   9.075  0.5865 -1.5335  1.6289
  183SLPC  H16Y21071   6.075   4.382   8.947  0.4019 -1.5193  1.3228
  183SLPC  C31721072   6.187   4.569   8.908 -0.2327  0.4118  0.4653
  183SLPC  H17X21073   6.246   4.637   8.973 -0.9765  1.0157  0.5109
  183SLPC  H17Y21074   6.119   4.636   8.852  0.9840  1.0104 -0.3287
  183SLPC  C31821075   6.277   4.505   8.799  0.2050 -0.1945  0.1936
  183SLPC  H18X21076   6.326   4.588   8.743  0.3539 -0.8883 -0.7398
  183SLPC  H18Y21077   6.214   4.447   8.728  0.5544  1.6940 -1.7398
  183SLPC  H18Z21078   6.355   4.432   8.829  0.4005 -1.1825 -2.4244
  184SLPC     N21079   5.903   3.249  10.718 -0.6655  0.0188  0.8758
  184SLPC   C1321080   5.855   3.389  10.745 -0.0622 -0.1641  0.0373
  184SLPC  H13A21081   5.771   3.416  10.683 -0.2930  0.0794  0.4495
  184SLPC  H13B21082   5.824   3.387  10.849 -0.1601 -1.9252 -0.0061
  184SLPC  H13C21083   5.936   3.461  10.740  0.2220 -0.4392  0.4920
  184SLPC   C1421084   5.779   3.164  10.704  0.0769  0.3596 -0.1109
  184SLPC  H14A21085   5.706   3.180  10.782  0.2536 -0.2042  0.1750
  184SLPC  H14B21086   5.723   3.186  10.614 -0.9856 -2.1251 -0.1405
  184SLPC  H14C21087   5.798   3.058  10.692 -0.9796  0.3009 -1.4395
  184SLPC   C1521088   5.974   3.206  10.845 -0.4512  0.4997  0.1068
  184SLPC  H15A21089   6.061   3.268  10.858 -2.4636  3.1750  1.8993
  184SLPC  H15B21090   5.917   3.208  10.936  0.9463  0.4807  1.0107
  184SLPC  H15C21091   6.009   3.105  10.829 -0.5340  0.6869 -1.4405
  184SLPC   C1221092   5.999   3.244  10.605 -0.6014 -0.1379  0.8105
  184SLPC  H12A21093   6.076   3.316  10.628 -1.5091  2.1425 -2.5002
  184SLPC  H12B21094   5.963   3.286  10.512  1.3697 -0.5666 -0.1851
  184SLPC   C1121095   6.067   3.109  10.575 -0.7056 -0.6359 -0.0820
  184SLPC  H11A21096   6.117   3.131  10.478 -0.0001 -1.6168  0.0484
  184SLPC  H11B21097   5.982   3.039  10.559 -0.8702 -0.4031 -0.2371
  184SLPC     P21098   6.299   3.157  10.695 -0.4822 -0.1778  0.3254
  184SLPC   O1321099   6.277   3.297  10.737 -0.5565  0.8926 -0.5916
  184SLPC   O1421100   6.388   3.077  10.780 -0.2508 -0.0604  0.0180
  184SLPC   O1221101   6.161   3.073  10.675 -0.6748  0.3208 -0.4092
  184SLPC   O1121102   6.354   3.158  10.549  0.0673 -0.0765  0.7109
  184SLPC    C121103   6.402   3.284  10.488 -0.0713  0.4459  0.3052
  184SLPC    HA21104   6.323   3.361  10.479 -0.2405  0.0878 -1.9267
  184SLPC    HB21105   6.484   3.325  10.550  0.8853  0.7730 -1.1229
  184SLPC    C221106   6.447   3.264  10.343  0.1927  0.0341  0.4169
  184SLPC    HS21107   6.429   3.360  10.290 -2.3725  0.0648  1.2056
  184SLPC   O2121108   6.388   3.157  10.279  0.3762 -0.3399 -0.4554
  184SLPC   C2121109   6.270   3.180  10.233  0.3898 -0.0323 -0.1571
  184SLPC   O2221110   6.215   3.289  10.240 -0.1109 -0.0153 -0.1990
  184SLPC   C2221111   6.209   3.054  10.180 -0.2473  0.2216  0.0043
  184SLPC   H2R21112   6.293   2.993  10.140  0.7995  1.3358  0.4550
  184SLPC   H2S21113   6.156   2.999  10.260  2.0004 -0.0024  1.4398
  184SLPC    C321114   6.595   3.232  10.333 -0.5781 -0.3062 -0.2581
  184SLPC    HX21115   6.607   3.146  10.402 -0.9270  0.5174  0.8532
  184SLPC    HY21116   6.665   3.311  10.365  1.0141 -2.4902  2.0457
  184SLPC   O3121117   6.633   3.198  10.196  0.3807 -0.2204  0.0769
  184SLPC   C3121118   6.653   3.070  10.163 -0.0161  0.4247 -0.1145
  184SLPC   O3221119   6.632   2.963  10.223  0.0767  0.7446  0.3353
  184SLPC   C3221120   6.712   3.079  10.024  0.1339  0.0548 -0.3547
  184SLPC   H2X21121   6.821   3.097  10.039  0.7287 -4.0360  1.4931
  184SLPC   H2Y21122   6.681   3.166   9.962  1.5814  0.9943  0.1727
  184SLPC   C2321123   6.109   3.075  10.067 -0.1202  0.1899 -0.1373
  184SLPC   H3R21124   6.017   3.120  10.110 -0.3082 -0.0644 -0.2642
  184SLPC   H3S21125   6.066   2.976  10.041 -1.5687  1.1773 -1.7173
  184SLPC   C2421126   6.164   3.156   9.944 -0.2009  0.1996  0.2251
  184SLPC   H4R21127   6.266   3.114   9.926  0.4013  2.1342 -1.2172
  184SLPC   H4S21128   6.171   3.267   9.955  2.6703  0.4481 -2.4596
  184SLPC   C2521129   6.075   3.131   9.818 -0.6643  0.5169 -0.2881
  184SLPC   H5R21130   5.968   3.143   9.842 -1.0783  0.1846 -1.8560
  184SLPC   H5S21131   6.089   3.021   9.804  0.1259  0.3560  1.4515
  184SLPC   C2621132   6.117   3.210   9.692 -0.4713  0.1025 -0.4427
  184SLPC   H6R21133   6.224   3.190   9.671 -0.5584 -2.9745  1.4478
  184SLPC   H6S21134   6.104   3.314   9.729 -0.8402 -0.1912  0.2672
  184SLPC   C2721135   6.032   3.192   9.567  0.4942  0.0513 -0.0088
  184SLPC   H7R21136   6.071   3.270   9.499 -1.0520  1.1795  0.3490
  184SLPC   H7S21137   5.930   3.229   9.589  1.0265  0.7804  1.3849
  184SLPC   C2821138   6.041   3.052   9.519 -0.3411  0.0988 -0.3843
  184SLPC   H8R21139   5.961   3.044   9.441 -1.6536  1.6555  0.7351
  184SLPC   H8S21140   6.006   2.989   9.604  0.1784 -0.3164 -0.4714
  184SLPC   C2921141   6.178   3.016   9.465  0.4511  0.8380 -0.6997
  184SLPC   H9R21142   6.227   3.091   9.401  1.7649  0.6151  0.0003
  184SLPC  C21021143   6.249   2.903   9.492 -0.3514 -0.2347 -0.1925
  184SLPC  H10R21144   6.346   2.890   9.441  0.5992  0.0583  1.4235
  184SLPC  C21121145   6.219   2.787   9.575  0.4177  0.3057  0.2309
  184SLPC  H11R21146   6.141   2.726   9.524  0.2144  0.4112  0.4096
  184SLPC  H11S21147   6.162   2.832   9.660 -0.5468  1.2026 -0.8426
  184SLPC  C21221148   6.329   2.697   9.623  1.0356  0.7155 -0.1134
  184SLPC  H12R21149   6.379   2.644   9.541  1.8977 -0.5058  1.1479
  184SLPC  C21321150   6.381   2.676   9.742  0.2621  0.1451  0.2095
  184SLPC  H13R21151   6.447   2.592   9.769 -2.2639 -2.0087  0.0141
  184SLPC  C21421152   6.321   2.747   9.859 -0.0140  0.1188 -0.0691
  184SLPC  H14R21153   6.240   2.820   9.836 -0.8734 -1.1452 -1.2208
  184SLPC  H14S21154   6.401   2.796   9.918  0.8662 -1.4139  0.0546
  184SLPC  C21521155   6.254   2.646   9.958 -0.0112 -0.4280  0.2568
  184SLPC  H15R21156   6.164   2.605   9.908 -1.0416 -0.7100  2.2450
  184SLPC  H15S21157   6.217   2.702  10.046 -1.1379 -1.8749  0.7355
  184SLPC  C21621158   6.363   2.543  10.005  0.1193 -0.2426 -0.4887
  184SLPC  H16R21159   6.381   2.467   9.925 -0.5012  1.9603 -2.8419
  184SLPC  H16S21160   6.309   2.485  10.083  0.0231 -1.1677 -1.2198
  184SLPC  C21721161   6.492   2.593  10.085  0.4530  0.0053  0.1218
  184SLPC  H17R21162   6.463   2.679  10.149  1.5468 -0.7157  1.6290
  184SLPC  H17S21163   6.579   2.626  10.025  0.8064  0.7597  1.0279
  184SLPC  C21821164   6.537   2.475  10.173  0.4149 -0.8233 -0.3288
  184SLPC  H18R21165   6.541   2.373  10.127  1.8669 -0.9341 -0.0058
  184SLPC  H18S21166   6.475   2.466  10.265  1.7112 -2.7864  0.4286
  184SLPC  H18T21167   6.642   2.489  10.206  0.8315 -0.2490 -1.8184
  184SLPC   C3321168   6.689   2.949   9.948 -0.2094 -0.0009 -0.2043
  184SLPC   H3X21169   6.592   2.942   9.895  0.9566 -0.4336 -2.4226
  184SLPC   H3Y21170   6.705   2.862  10.016 -0.5880  1.5630  1.9961
  184SLPC   C3421171   6.791   2.941   9.835  0.0908 -0.8039 -0.1289
  184SLPC   H4X21172   6.896   2.948   9.870  0.3507 -2.6845 -0.4265
  184SLPC   H4Y21173   6.770   3.032   9.775  0.0066 -1.1444 -0.6186
  184SLPC   C3521174   6.771   2.819   9.752  0.3246  0.3563  0.4107
  184SLPC   H5X21175   6.667   2.782   9.745  0.5070 -0.1962  0.5600
  184SLPC   H5Y21176   6.824   2.730   9.792 -1.7914 -1.1061  0.1122
  184SLPC   C3621177   6.821   2.840   9.612 -0.1665  0.8436  0.2687
  184SLPC   H6X21178   6.828   2.739   9.566 -0.8244 -0.2302  2.4119
  184SLPC   H6Y21179   6.924   2.882   9.609 -0.8664  2.5751 -0.5335
  184SLPC   C3721180   6.725   2.930   9.531  0.6723 -0.3353 -0.0466
  184SLPC   H7X21181   6.741   3.032   9.574  1.9227 -0.5469  0.0312
  184SLPC   H7Y21182   6.618   2.910   9.553  0.3879  1.6837  0.6574
  184SLPC   C3821183   6.764   2.945   9.391 -0.6926 -0.1151  0.0596
  184SLPC   H8X21184   6.874   2.942   9.406 -0.8344 -2.1013  1.0633
  184SLPC   H8Y21185   6.731   3.041   9.346 -0.3982 -0.5822 -1.2216
  184SLPC   C3921186   6.724   2.833   9.304 -0.3758 -0.5553 -0.4189
  184SLPC   H9X21187   6.621   2.844   9.265 -0.9597 -1.0886  0.8897
  184SLPC   H9Y21188   6.737   2.742   9.367  2.5013  0.4472  0.6375
  184SLPC  C31021189   6.817   2.815   9.179 -0.5355 -0.1055 -0.2449
  184SLPC  H10X21190   6.915   2.763   9.192  0.7521  1.9265 -1.2909
  184SLPC  H10Y21191   6.839   2.917   9.142  1.0750 -0.4082 -0.2299
  184SLPC  C31121192   6.738   2.763   9.061  0.4060  0.5134 -0.2975
  184SLPC  H11X21193   6.657   2.837   9.041 -2.3903 -1.5473  2.3623
  184SLPC  H11Y21194   6.691   2.666   9.091  0.1926  0.8413  0.4414
  184SLPC  C31221195   6.839   2.743   8.937  0.4583 -0.3023  0.4815
  184SLPC  H12X21196   6.924   2.680   8.971 -0.3815 -0.4992  2.3683
  184SLPC  H12Y21197   6.876   2.844   8.907 -0.6241 -0.4288 -1.4382
  184SLPC  C31321198   6.770   2.670   8.819 -1.3202 -0.5744  0.2909
  184SLPC  H13X21199   6.667   2.709   8.802 -1.7308 -1.2575  1.1179
  184SLPC  H13Y21200   6.763   2.563   8.848  0.6915 -0.5446  1.0666
  184SLPC  C31421201   6.861   2.663   8.692 -0.4197  0.1796 -0.1953
  184SLPC  H14X21202   6.952   2.601   8.704 -0.8129 -0.4212 -0.2993
  184SLPC  H14Y21203   6.902   2.765   8.675  0.3535 -0.4400 -2.2504
  184SLPC  C31521204   6.789   2.617   8.560 -0.3244 -0.5097 -0.2941
  184SLPC  H15X21205   6.687   2.660   8.554 -0.8065 -1.3191  1.5400
  184SLPC  H15Y21206   6.764   2.509   8.563 -2.8344  0.0218  0.3798
  184SLPC  C31621207   6.876   2.645   8.436 -0.2290  0.2102  0.3869
  184SLPC  H16X21208   6.823   2.601   8.349 -0.7077 -1.6848  1.5581
  184SLPC  H16Y21209   6.971   2.590   8.452 -1.3928 -1.3307  2.6900
  184SLPC  C31721210   6.915   2.791   8.413 -0.4174  0.1215  0.5138
  184SLPC  H17X21211   6.964   2.829   8.505  0.0679  0.6613  0.0393
  184SLPC  H17Y21212   6.817   2.841   8.399 -0.9714 -1.1084 -0.1746
  184SLPC  C31821213   7.007   2.827   8.292  0.0315 -0.3199 -0.5362
  184SLPC  H18X21214   7.029   2.935   8.274  0.8201  0.0411  2.1350
  184SLPC  H18Y21215   6.955   2.798   8.198 -0.1194 -2.2307  0.1081
  184SLPC  H18Z21216   7.101   2.770   8.306 -0.0352 -0.1378  0.7297
  185SLPC     N21217   5.010   6.843   6.504 -0.6368  0.5894  0.4687
  185SLPC   C1321218   5.103   6.941   6.439  0.4142 -0.3469 -0.1589
  185SLPC  H13A21219   5.203   6.902   6.443 -0.3420 -2.3203  0.4289
  185SLPC  H13B21220   5.060   6.967   6.343 -0.8967  3.0133  1.1855
  185SLPC  H13C21221   5.117   7.034   6.493  0.2863 -0.3981 -0.0372
  185SLPC   C1421222   5.054   6.836   6.651  0.5410 -0.2811 -0.2637
  185SLPC  H14A21223   5.007   6.921   6.697 -0.2595  0.0559 -1.6502
  185SLPC  H14B21224   5.017   6.741   6.686  0.5581  0.0743  0.7365
  185SLPC  H14C21225   5.161   6.841   6.667  0.5482  1.0932 -0.6362
  185SLPC   C1521226   5.028   6.711   6.439  1.0189 -0.4158  0.0251
  185SLPC  H15A21227   4.954   6.637   6.467 -0.2626  0.8998  0.2086
  185SLPC  H15B21228   5.020   6.730   6.333  2.1051  0.1539  0.0417
  185SLPC  H15C21229   5.129   6.684   6.464  0.8147 -0.9810  0.2693
  185SLPC   C1221230   4.867   6.895   6.512  0.0785 -0.3102  0.5274
  185SLPC  H12A21231   4.866   6.993   6.557 -1.2860 -0.5510  1.0693
  185SLPC  H12B21232   4.814   6.833   6.584 -2.0053 -0.6083 -1.1866
  185SLPC   C1121233   4.791   6.893   6.373 -0.4210  0.8039  0.0247
  185SLPC  H11A21234   4.688   6.912   6.410 -0.6924 -0.1751 -0.1955
  185SLPC  H11B21235   4.805   6.795   6.322 -0.5961  0.3551  0.8178
  185SLPC     P21236   4.798   7.146   6.293 -0.2577 -0.3148 -0.3427
  185SLPC   O1321237   4.906   7.231   6.347 -0.7687  0.6302  0.5042
  185SLPC   O1421238   4.744   7.187   6.159  0.1965 -0.6039 -0.1397
  185SLPC   O1221239   4.848   6.995   6.294  0.6508  0.2615 -0.2241
  185SLPC   O1121240   4.677   7.154   6.398  0.5075 -0.6858 -0.3091
  185SLPC    C121241   4.544   7.144   6.358  0.0205 -0.3252  0.5380
  185SLPC    HA21242   4.520   7.223   6.283  2.1324 -0.3128 -0.1993
  185SLPC    HB21243   4.531   7.046   6.308 -2.1182  0.0087  0.3564
  185SLPC    C221244   4.453   7.158   6.486  0.4040 -0.2184  0.0805
  185SLPC    HS21245   4.350   7.142   6.448  0.2839  1.0056 -0.1421
  185SLPC   O2121246   4.468   7.285   6.544 -0.1061  0.0698  0.2802
  185SLPC   C2121247   4.378   7.376   6.520 -0.5416 -0.4132  0.4449
  185SLPC   O2221248   4.279   7.364   6.454 -0.2221  0.5064  0.5100
  185SLPC   C2221249   4.418   7.497   6.615 -0.7734  0.0030 -0.1504
  185SLPC   H2R21250   4.517   7.532   6.579 -0.3353 -0.3343  0.6833
  185SLPC   H2S21251   4.337   7.572   6.599  0.2902  1.5073  1.1390
  185SLPC    C321252   4.503   7.050   6.590  0.4074 -0.2081  0.1586
  185SLPC    HX21253   4.612   7.049   6.609  0.0886  0.6640  2.3982
  185SLPC    HY21254   4.479   6.954   6.540  1.6940  0.1022 -1.0981
  185SLPC   O3121255   4.424   7.046   6.715 -1.0928 -0.1927  0.2173
  185SLPC   C3121256   4.481   7.078   6.832  0.2108 -0.1970  0.6035
  185SLPC   O3221257   4.596   7.124   6.841  0.0277 -0.0705 -0.2186
  185SLPC   C3221258   4.394   7.044   6.949 -0.1927  0.2521  0.0402
  185SLPC   H2X21259   4.285   7.053   6.925 -0.0989  2.0884  0.2304
  185SLPC   H2Y21260   4.418   7.115   7.030 -1.0460 -0.7882  1.2581
  185SLPC   C2321261   4.437   7.465   6.771  0.4295  0.3578  0.1088
  185SLPC   H3R21262   4.476   7.552   6.827 -1.8221  0.4867  1.6426
  185SLPC   H3S21263   4.513   7.390   6.801  0.4327  0.7639  1.1364
  185SLPC   C2421264   4.303   7.430   6.836 -0.9184 -0.0958  0.5073
  185SLPC   H4R21265   4.270   7.333   6.792 -0.8460 -0.5730  1.4719
  185SLPC   H4S21266   4.227   7.511   6.829 -0.2055  0.9006  2.9978
  185SLPC   C2521267   4.322   7.413   6.989  0.2019 -0.1619 -0.1021
  185SLPC   H5R21268   4.348   7.505   7.047 -0.1310 -0.4901  0.5715
  185SLPC   H5S21269   4.394   7.335   7.021 -0.2639 -0.0127  1.3898
  185SLPC   C2621270   4.197   7.359   7.057 -0.3340  0.2862 -0.3982
  185SLPC   H6R21271   4.168   7.267   7.003 -2.0471 -0.1138  1.1103
  185SLPC   H6S21272   4.114   7.428   7.032 -0.6441 -0.1025 -0.4434
  185SLPC   C2721273   4.203   7.323   7.210  0.4973 -0.3388 -0.2280
  185SLPC   H7R21274   4.290   7.257   7.232 -0.6260 -1.4587  1.0276
  185SLPC   H7S21275   4.115   7.258   7.230 -0.0880  0.0983 -1.3004
  185SLPC   C2821276   4.195   7.438   7.308  0.0531  0.6133 -0.2878
  185SLPC   H8R21277   4.109   7.497   7.272  0.3563  0.5319 -1.1681
  185SLPC   H8S21278   4.281   7.507   7.295  1.0164 -0.6256 -0.7259
  185SLPC   C2921279   4.169   7.388   7.452  0.0605 -0.0254 -0.4187
  185SLPC   H9R21280   4.119   7.290   7.451  1.2318 -0.6513 -0.1351
  185SLPC  C21021281   4.163   7.459   7.566  0.6695 -0.0497 -0.3895
  185SLPC  H10R21282   4.145   7.407   7.661  1.1173 -2.0724 -1.3659
  185SLPC  C21121283   4.189   7.612   7.565  0.7553 -0.8556 -0.0189
  185SLPC  H11R21284   4.110   7.664   7.624  1.8438 -0.9426  1.5934
  185SLPC  H11S21285   4.166   7.663   7.470 -4.6884 -0.1325  1.3626
  185SLPC  C21221286   4.322   7.632   7.639  0.0456 -0.9259  0.1953
  185SLPC  H12R21287   4.407   7.568   7.613  1.1199 -0.3744  2.1638
  185SLPC  C21321288   4.345   7.740   7.715  0.2724 -0.3973  0.1412
  185SLPC  H13R21289   4.445   7.756   7.759  0.4268  1.2410 -0.7084
  185SLPC  C21421290   4.251   7.857   7.747  0.6801  0.2459  0.4436
  185SLPC  H14R21291   4.154   7.839   7.695  1.2779 -0.5452 -0.4415
  185SLPC  H14S21292   4.288   7.954   7.708 -0.4202 -0.1644 -1.8221
  185SLPC  C21521293   4.217   7.876   7.892  0.3422  0.2723  0.3779
  185SLPC  H15R21294   4.191   7.778   7.937  1.4048  0.2273  0.9098
  185SLPC  H15S21295   4.132   7.947   7.893  1.1015  1.2557 -1.3778
  185SLPC  C21621296   4.343   7.937   7.968  0.4011 -0.0787  0.1468
  185SLPC  H16R21297   4.363   8.042   7.937  1.2128 -0.1271  0.4777
  185SLPC  H16S21298   4.440   7.888   7.947  1.2701  2.1744 -1.4834
  185SLPC  C21721299   4.318   7.926   8.120  0.1220 -0.4179  0.5185
  185SLPC  H17R21300   4.298   7.820   8.143 -1.2907  0.1764  2.2795
  185SLPC  H17S21301   4.224   7.981   8.142 -0.2130 -0.3493 -0.9374
  185SLPC  C21821302   4.438   7.986   8.205  0.7851  0.2140  0.6235
  185SLPC  H18R21303   4.464   8.089   8.171 -0.0128 -0.4008 -2.0976
  185SLPC  H18S21304   4.529   7.932   8.172 -0.2211 -0.5222 -1.0931
  185SLPC  H18T21305   4.417   7.990   8.314  0.2798  0.3287  0.5261
  185SLPC   C3321306   4.420   6.902   7.002  0.5946 -0.5572 -0.9614
  185SLPC   H3X21307   4.525   6.865   7.002  0.8777  0.2008 -1.7569
  185SLPC   H3Y21308   4.358   6.834   6.940 -1.2581  1.1338 -1.0474
  185SLPC   C3421309   4.359   6.886   7.141 -0.3679 -0.3576  0.5348
  185SLPC   H4X21310   4.265   6.943   7.153 -1.4006 -1.7804 -0.4984
  185SLPC   H4Y21311   4.430   6.928   7.216  0.0938 -1.4574  0.7241
  185SLPC   C3521312   4.332   6.742   7.182  0.0008 -0.1678  0.3073
  185SLPC   H5X21313   4.427   6.685   7.177 -0.4875 -0.9554 -0.2346
  185SLPC   H5Y21314   4.270   6.687   7.108  0.3062 -0.7033  0.4439
  185SLPC   C3621315   4.256   6.711   7.315  0.5952 -0.1794  0.1189
  185SLPC   H6X21316   4.220   6.606   7.312 -0.4552  0.1965 -1.6230
  185SLPC   H6Y21317   4.174   6.784   7.331  0.9886 -0.2111  2.7114
  185SLPC   C3721318   4.336   6.719   7.445 -0.2230 -0.0893  0.1929
  185SLPC   H7X21319   4.423   6.653   7.425 -0.3542 -0.5105  0.9674
  185SLPC   H7Y21320   4.273   6.680   7.528  0.5318 -2.1143 -0.1342
  185SLPC   C3821321   4.375   6.860   7.482  0.0005 -0.0685 -0.3575
  185SLPC   H8X21322   4.287   6.924   7.460  0.6495 -0.4164 -4.9639
  185SLPC   H8Y21323   4.457   6.893   7.415  1.8526 -1.3969  1.1277
  185SLPC   C3921324   4.408   6.878   7.632 -0.6327 -0.6919 -0.8613
  185SLPC   H9X21325   4.509   6.833   7.647  0.8347  1.9151 -2.1535
  185SLPC   H9Y21326   4.335   6.843   7.708  1.5511 -1.2777  1.0973
  185SLPC  C31021327   4.445   7.029   7.658  0.1293  0.0744  0.3077
  185SLPC  H10X21328   4.354   7.090   7.641  0.4459  0.1636 -1.1700
  185SLPC  H10Y21329   4.516   7.074   7.586 -1.1117  0.8548 -0.4515
  185SLPC  C31121330   4.503   7.066   7.795 -0.4865  0.0268  0.0432
  185SLPC  H11X21331   4.593   7.001   7.803 -0.7739 -0.6037 -1.3805
  185SLPC  H11Y21332   4.439   7.030   7.879  0.2911 -1.3417  0.0799
  185SLPC  C31221333   4.520   7.216   7.807 -0.8390 -0.6785 -0.0752
  185SLPC  H12X21334   4.418   7.257   7.791 -0.3128  1.3647  1.4599
  185SLPC  H12Y21335   4.596   7.254   7.736  2.1481  1.8702  4.0671
  185SLPC  C31321336   4.578   7.254   7.947  0.7303 -0.2198 -0.4501
  185SLPC  H13X21337   4.650   7.183   7.992  2.9673  2.7739  1.0368
  185SLPC  H13Y21338   4.493   7.248   8.018  1.3158 -1.4937  0.1660
  185SLPC  C31421339   4.625   7.402   7.951  0.4561 -0.3611  0.5703
  185SLPC  H14X21340   4.565   7.449   7.870  0.0068  0.6293  1.4544
  185SLPC  H14Y21341   4.729   7.402   7.911  0.2860  0.8609  0.0796
  185SLPC  C31521342   4.611   7.479   8.081  0.0137 -0.0643  0.1023
  185SLPC  H15X21343   4.641   7.585   8.066 -3.6482  0.7205 -3.4555
  185SLPC  H15Y21344   4.671   7.435   8.163 -0.7105 -2.5514 -0.6280
  185SLPC  C31621345   4.467   7.475   8.136  0.4214  0.1756  0.1173
  185SLPC  H16X21346   4.456   7.375   8.183  0.8547 -0.2262 -0.6097
  185SLPC  H16Y21347   4.400   7.493   8.049 -0.5545 -1.8040  0.4044
  185SLPC  C31721348   4.431   7.574   8.246  0.5690 -0.1355 -0.8119
  185SLPC  H17X21349   4.455   7.677   8.215 -0.5371  0.4209  0.0968
  185SLPC  H17Y21350   4.479   7.558   8.345 -0.3503  1.5071 -0.0646
  185SLPC  C31821351   4.284   7.559   8.276  0.4153 -0.3402  0.4443
  185SLPC  H18X21352   4.266   7.463   8.329  0.4999 -0.4702  0.2368
  185SLPC  H18Y21353   4.231   7.563   8.179 -2.0721  3.3093  1.7050
  185SLPC  H18Z21354   4.241   7.639   8.341 -1.6685 -1.3330  0.3583
  186SLPC     N21355   3.442   0.997   6.134  0.4309  0.2094 -0.1956
  186SLPC   C1321356   3.563   0.977   6.048 -0.4832 -0.0826 -0.1481
  186SLPC  H13A21357   3.648   0.987   6.113  0.3806 -1.1790 -1.0690
  186SLPC  H13B21358   3.564   0.878   6.006  1.6050 -0.0078 -0.3775
  186SLPC  H13C21359   3.578   1.063   5.984  1.6648  1.2555  2.0192
  186SLPC   C1421360   3.412   0.884   6.226 -0.0529  0.3267  0.0606
  186SLPC  H14A21361   3.310   0.890   6.260  0.6284  0.0292  2.2960
  186SLPC  H14B21362   3.415   0.785   6.183  1.4111  1.0148 -1.5680
  186SLPC  H14C21363   3.468   0.881   6.318 -0.1628 -1.5098  0.1044
  186SLPC   C1521364   3.327   1.017   6.043 -0.0188  0.5185  0.0442
  186SLPC  H15A21365   3.226   1.002   6.080 -0.8948  0.1140 -2.3205
  186SLPC  H15B21366   3.336   1.114   5.996  3.4129 -0.6010 -1.8525
  186SLPC  H15C21367   3.330   0.945   5.963 -0.6363  0.7096 -0.1611
  186SLPC   C1221368   3.457   1.127   6.216 -0.5871  0.2880 -0.3076
  186SLPC  H12A21369   3.363   1.151   6.263  0.6554  1.3587  1.7542
  186SLPC  H12B21370   3.483   1.206   6.148  0.7084  1.6762  1.7095
  186SLPC   C1121371   3.558   1.132   6.336 -0.0178 -0.2571 -0.1552
  186SLPC  H11A21372   3.527   1.055   6.411  0.0287  0.4064  0.5602
  186SLPC  H11B21373   3.547   1.225   6.397  2.1772 -0.7617  1.1395
  186SLPC     P21374   3.778   1.211   6.217  0.4425 -0.0932  0.0979
  186SLPC   O1321375   3.886   1.135   6.149  0.5049  0.0901  0.2631
  186SLPC   O1421376   3.679   1.291   6.137  0.2043 -0.3628  0.0252
  186SLPC   O1221377   3.692   1.106   6.296 -0.4307  0.2711  0.4525
  186SLPC   O1121378   3.839   1.311   6.319 -0.4914  0.2892  0.3488
  186SLPC    C121379   3.918   1.262   6.426  0.8378 -0.5518  0.8706
  186SLPC    HA21380   3.951   1.158   6.407 -0.5768 -0.8109 -0.2903
  186SLPC    HB21381   4.001   1.336   6.424 -2.0159  2.9288 -0.4863
  186SLPC    C221382   3.846   1.277   6.565 -0.1630  0.1139 -0.7634
  186SLPC    HS21383   3.775   1.193   6.583 -0.1355 -0.0943 -1.5934
  186SLPC   O2121384   3.782   1.405   6.580 -0.1768 -0.0658  0.1518
  186SLPC   C2121385   3.662   1.412   6.640 -0.6667  0.3668  0.0774
  186SLPC   O2221386   3.611   1.318   6.700 -0.3974 -0.3966  0.3573
  186SLPC   C2221387   3.612   1.555   6.625 -0.2064 -0.4946 -0.4095
  186SLPC   H2R21388   3.693   1.621   6.589  1.5435 -1.4505  1.5461
  186SLPC   H2S21389   3.521   1.551   6.561 -1.3099  1.4896  0.9026
  186SLPC    C321390   3.961   1.268   6.678 -0.1475  0.6908 -0.1034
  186SLPC    HX21391   4.047   1.324   6.637  0.1856  0.5004  0.3292
  186SLPC    HY21392   3.995   1.163   6.688  0.7709  1.0044  0.1338
  186SLPC   O3121393   3.924   1.326   6.805  0.2142  0.8034  0.0197
  186SLPC   C3121394   3.852   1.249   6.883 -0.0128 -0.6923  0.0582
  186SLPC   O3221395   3.813   1.134   6.862 -0.2596 -0.4879 -0.2392
  186SLPC   C3221396   3.833   1.309   7.023 -0.5659  0.6129 -0.1359
  186SLPC   H2X21397   3.753   1.386   7.030 -0.6540  0.4773  0.4110
  186SLPC   H2Y21398   3.929   1.359   7.050 -0.8564  1.9950 -1.5352
  186SLPC   C2321399   3.566   1.623   6.756  0.4891  0.5396 -0.0040
  186SLPC   H3R21400   3.486   1.565   6.806  0.2781 -0.2469 -1.2057
  186SLPC   H3S21401   3.521   1.720   6.727  1.1123  1.4816  1.9921
  186SLPC   C2421402   3.665   1.646   6.862 -1.0164 -0.0635 -0.1070
  186SLPC   H4R21403   3.755   1.699   6.824 -1.0656 -0.9414 -1.5357
  186SLPC   H4S21404   3.697   1.548   6.904  2.6502  0.4298 -1.3758
  186SLPC   C2521405   3.611   1.728   6.975  0.6569 -0.5502 -0.5082
  186SLPC   H5R21406   3.511   1.693   7.010  1.0940  0.7163  2.3239
  186SLPC   H5S21407   3.597   1.825   6.922 -0.2165 -0.8007 -0.7574
  186SLPC   C2621408   3.685   1.765   7.102  0.6041  0.4949 -0.5459
  186SLPC   H6R21409   3.613   1.818   7.167 -0.3767 -0.1987 -1.0509
  186SLPC   H6S21410   3.776   1.820   7.068  0.3188  0.3523 -1.5814
  186SLPC   C2721411   3.734   1.639   7.178 -0.0123  0.0957 -0.3899
  186SLPC   H7R21412   3.794   1.575   7.110 -1.5511 -0.9409 -0.8166
  186SLPC   H7S21413   3.651   1.578   7.219  0.8865 -1.0647 -0.2605
  186SLPC   C2821414   3.834   1.674   7.299 -0.5640  0.0640 -0.3097
  186SLPC   H8R21415   3.904   1.749   7.257 -0.6625 -0.4506 -1.4250
  186SLPC   H8S21416   3.903   1.590   7.322  0.7605  0.4620 -2.5805
  186SLPC   C2921417   3.749   1.726   7.410  0.0340  0.0085 -0.4055
  186SLPC   H9R21418   3.660   1.666   7.432  0.5299 -0.5961 -0.0085
  186SLPC  C21021419   3.779   1.829   7.491 -0.5362  0.2047 -0.3180
  186SLPC  H10R21420   3.710   1.858   7.572 -2.0115  0.3989 -1.6038
  186SLPC  C21121421   3.903   1.912   7.481  0.0210 -0.4328 -0.9097
  186SLPC  H11R21422   3.907   1.965   7.383 -0.0922  1.9314  0.3007
  186SLPC  H11S21423   3.997   1.852   7.487  0.4808  0.3535 -0.1010
  186SLPC  C21221424   3.925   2.012   7.594  0.3312  0.0838 -0.6898
  186SLPC  H12R21425   3.933   2.118   7.565 -0.4355  0.2326 -0.3922
  186SLPC  C21321426   3.920   1.980   7.727 -0.1121  0.3063 -0.0479
  186SLPC  H13R21427   3.949   2.057   7.801  1.2749 -0.1312 -0.1071
  186SLPC  C21421428   3.909   1.851   7.790  0.0086 -0.1592 -0.0809
  186SLPC  H14R21429   3.976   1.777   7.741 -0.2388 -1.3941  1.3912
  186SLPC  H14S21430   3.801   1.822   7.785 -0.8602  2.9467 -2.2814
  186SLPC  C21521431   3.961   1.843   7.935 -0.0367  0.1493 -0.5539
  186SLPC  H15R21432   4.066   1.881   7.941 -0.4595  1.1885  0.4843
  186SLPC  H15S21433   3.973   1.735   7.959 -1.7280  0.2042  0.6258
  186SLPC  C21621434   3.878   1.910   8.047 -0.1261  0.2565  0.5089
  186SLPC  H16R21435   3.773   1.876   8.055  0.6387 -2.6665 -0.6191
  186SLPC  H16S21436   3.863   2.015   8.016 -2.2102 -0.4936 -1.3032
  186SLPC  C21721437   3.945   1.902   8.192 -0.2302  0.8245  0.3148
  186SLPC  H17R21438   4.051   1.934   8.181 -0.2049  0.6925  0.1628
  186SLPC  H17S21439   3.943   1.796   8.223 -1.9843 -0.8923 -4.5893
  186SLPC  C21821440   3.878   2.003   8.295  0.1470  0.0639  0.0689
  186SLPC  H18R21441   3.931   1.994   8.392  0.6332 -1.0103 -0.2825
  186SLPC  H18S21442   3.776   1.963   8.311  0.8714 -1.0162  2.2648
  186SLPC  H18T21443   3.876   2.108   8.256 -0.5091  1.0391  2.5488
  186SLPC   C3321444   3.795   1.206   7.128  0.1338  0.1046 -0.0161
  186SLPC   H3X21445   3.857   1.116   7.110 -0.5429 -0.4731  0.4746
  186SLPC   H3Y21446   3.695   1.163   7.107  0.7304 -0.5852 -1.5399
  186SLPC   C3421447   3.815   1.243   7.276 -0.0724  0.2551  0.3575
  186SLPC   H4X21448   3.762   1.339   7.292 -0.2715  0.2944 -0.4945
  186SLPC   H4Y21449   3.924   1.257   7.295  0.0873 -0.7903  0.2851
  186SLPC   C3521450   3.752   1.148   7.376 -0.0838 -0.0342 -0.3542
  186SLPC   H5X21451   3.789   1.051   7.335 -0.0935 -0.2389  0.1210
  186SLPC   H5Y21452   3.642   1.143   7.364  0.0731 -3.1691 -1.5397
  186SLPC   C3621453   3.794   1.180   7.531  0.9172  0.5851  0.4301
  186SLPC   H6X21454   3.904   1.182   7.544  1.0573 -1.2448 -0.1118
  186SLPC   H6Y21455   3.756   1.102   7.601 -1.1869  1.0967 -0.0498
  186SLPC   C3721456   3.728   1.303   7.577 -0.1486  0.2716 -0.6008
  186SLPC   H7X21457   3.618   1.298   7.562  0.0367  1.0456 -2.4495
  186SLPC   H7Y21458   3.775   1.380   7.513  0.1599 -0.9441 -1.9097
  186SLPC   C3821459   3.753   1.338   7.719  0.2774  0.1829  0.0611
  186SLPC   H8X21460   3.857   1.377   7.726 -0.0725  1.5791 -1.8249
  186SLPC   H8Y21461   3.732   1.249   7.781 -1.1155  1.3104  1.2911
  186SLPC   C3921462   3.663   1.452   7.768 -0.1642 -0.3721 -0.0294
  186SLPC   H9X21463   3.558   1.415   7.771 -0.0868 -0.6021 -0.1501
  186SLPC   H9Y21464   3.682   1.527   7.688  1.5695 -0.3410  0.3661
  186SLPC  C31021465   3.702   1.511   7.897 -0.1774  0.3503 -0.4081
  186SLPC  H10X21466   3.637   1.586   7.946  1.0750  1.6076 -0.6053
  186SLPC  H10Y21467   3.795   1.571   7.887  0.0350  0.4738  1.7953
  186SLPC  C31121468   3.739   1.407   8.013 -0.3887  1.1366 -0.3278
  186SLPC  H11X21469   3.822   1.348   7.967  0.4501  1.4964  0.6808
  186SLPC  H11Y21470   3.648   1.345   8.021 -0.0769  0.8132  0.9311
  186SLPC  C31221471   3.797   1.463   8.146 -0.3675 -0.3766  0.5653
  186SLPC  H12X21472   3.888   1.521   8.122 -1.7191  0.8980 -1.9315
  186SLPC  H12Y21473   3.823   1.377   8.211  0.7609  0.6386  1.5145
  186SLPC  C31321474   3.712   1.572   8.211  0.2603  0.3501 -0.3769
  186SLPC  H13X21475   3.691   1.651   8.136  0.0533 -0.7285 -1.5052
  186SLPC  H13Y21476   3.773   1.630   8.284  0.3910  1.5156 -1.3867
  186SLPC  C31421477   3.586   1.503   8.267 -0.5011  0.0221  0.5883
  186SLPC  H14X21478   3.576   1.400   8.227  0.8330 -1.2455  3.3340
  186SLPC  H14Y21479   3.495   1.563   8.244 -0.1885  0.2588 -0.0792
  186SLPC  C31521480   3.612   1.484   8.417 -0.4113 -0.2952  0.8301
  186SLPC  H15X21481   3.707   1.432   8.440 -0.8097 -2.1539 -1.4054
  186SLPC  H15Y21482   3.524   1.433   8.461 -0.8494  0.3031  0.6749
  186SLPC  C31621483   3.626   1.614   8.501  0.2243 -0.4217 -0.2181
  186SLPC  H16X21484   3.582   1.687   8.430 -1.2253  1.0699  2.0949
  186SLPC  H16Y21485   3.726   1.660   8.515 -0.6429  1.1938  0.9368
  186SLPC  C31721486   3.550   1.600   8.630 -0.0900 -0.0630  0.2703
  186SLPC  H17X21487   3.603   1.528   8.696 -1.5419 -1.4957 -0.0645
  186SLPC  H17Y21488   3.446   1.563   8.615  0.7651 -1.4872 -3.0905
  186SLPC  C31821489   3.539   1.734   8.709 -0.1650 -0.6992 -0.2926
  186SLPC  H18X21490   3.644   1.770   8.719 -0.1131 -0.4776 -1.4114
  186SLPC  H18Y21491   3.499   1.713   8.810 -0.3336  1.3345  0.1103
  186SLPC  H18Z21492   3.480   1.812   8.656 -0.6932 -1.3148 -0.6115
  187SLPC     N21493   5.003   5.326   6.430  0.3065 -0.3236 -0.0069
  187SLPC   C1321494   5.082   5.448   6.396 -0.4714 -0.7642 -0.0806
  187SLPC  H13A21495   5.154   5.462   6.475  0.8192  2.6521 -1.7021
  187SLPC  H13B21496   5.138   5.423   6.307 -0.2080 -0.8661  0.1150
  187SLPC  H13C21497   5.022   5.537   6.387 -1.0587 -1.1157  0.3191
  187SLPC   C1421498   4.917   5.301   6.304  0.6570 -0.9415 -0.2546
  187SLPC  H14A21499   4.865   5.207   6.305 -3.2505  0.9418  2.6645
  187SLPC  H14B21500   4.845   5.382   6.304 -0.1034 -1.5885  0.5662
  187SLPC  H14C21501   4.972   5.325   6.214 -1.9579  3.6240 -0.9865
  187SLPC   C1521502   4.916   5.348   6.551 -0.5236 -0.0438 -0.4535
  187SLPC  H15A21503   4.845   5.267   6.557  1.8420 -2.1184  2.0558
  187SLPC  H15B21504   4.973   5.342   6.643 -0.9546  0.1468 -0.1732
  187SLPC  H15C21505   4.860   5.440   6.559 -1.6315 -0.7660  0.5324
  187SLPC   C1221506   5.095   5.206   6.442  0.1322  0.2283  0.5965
  187SLPC  H12A21507   5.125   5.183   6.543  0.8170 -1.6925 -0.0019
  187SLPC  H12B21508   5.187   5.233   6.394  0.8472  1.3509  2.5092
  187SLPC   C1121509   5.049   5.067   6.396  0.1325 -0.3702  0.3954
  187SLPC  H11A21510   5.129   4.995   6.425  0.2865 -1.4320 -2.3023
  187SLPC  H11B21511   5.050   5.073   6.285 -1.7659  0.7915  0.3897
  187SLPC     P21512   4.890   4.953   6.566  0.1506 -0.5238  0.0599
  187SLPC   O1321513   4.763   4.998   6.628 -0.4003  0.1763 -0.3001
  187SLPC   O1421514   4.878   4.808   6.534  0.3183  0.7113  1.0533
  187SLPC   O1221515   4.912   5.034   6.433  0.2758 -0.1304 -0.2190
  187SLPC   O1121516   5.008   4.979   6.656  0.0864 -0.3800 -0.0869
  187SLPC    C121517   5.122   4.899   6.677  0.4887  0.3231  0.3494
  187SLPC    HA21518   5.147   4.852   6.580 -2.3913  0.0362 -0.3437
  187SLPC    HB21519   5.205   4.965   6.709  0.8996  1.5659 -2.8889
  187SLPC    C221520   5.100   4.785   6.783 -0.5487 -1.2664  0.5733
  187SLPC    HS21521   4.995   4.758   6.760 -1.1329  1.0171  0.3051
  187SLPC   O2121522   5.115   4.843   6.913  0.3954 -0.7080 -0.1779
  187SLPC   C2121523   5.035   4.787   7.004 -0.3825 -0.3136  0.0381
  187SLPC   O2221524   4.964   4.689   6.983  0.2076 -0.4514  0.3076
  187SLPC   C2221525   5.049   4.850   7.143  0.1057  0.4674  0.6008
  187SLPC   H2R21526   5.159   4.857   7.157  0.4704 -1.5238 -0.8906
  187SLPC   H2S21527   5.005   4.951   7.131  0.0476  0.1686 -2.2519
  187SLPC    C321528   5.189   4.663   6.740  0.2964 -0.1786 -0.0724
  187SLPC    HX21529   5.165   4.622   6.640 -3.3520  0.7282  0.2615
  187SLPC    HY21530   5.166   4.583   6.814 -3.6757 -0.0874 -0.9862
  187SLPC   O3121531   5.326   4.706   6.747  0.2940  0.7423  0.1835
  187SLPC   C3121532   5.412   4.619   6.801 -0.3238  0.8566 -0.5602
  187SLPC   O3221533   5.381   4.506   6.841  0.2252  0.3323  0.4318
  187SLPC   C3221534   5.553   4.680   6.820 -0.2845 -0.2346 -0.2512
  187SLPC   H2X21535   5.544   4.788   6.795  1.3226 -0.8447 -4.1738
  187SLPC   H2Y21536   5.621   4.631   6.747  0.9794  0.8208  0.1612
  187SLPC   C2321537   4.989   4.764   7.255  0.1812 -0.0879  0.1978
  187SLPC   H3R21538   4.978   4.655   7.237  1.8805 -0.9312  3.3671
  187SLPC   H3S21539   4.887   4.804   7.275  0.9299  2.0724 -0.0544
  187SLPC   C2421540   5.077   4.768   7.387  0.1843  0.5083 -0.1350
  187SLPC   H4R21541   5.083   4.876   7.414 -0.7757  0.7272 -0.7370
  187SLPC   H4S21542   5.180   4.730   7.373 -0.4827 -0.8516 -1.5980
  187SLPC   C2521543   5.007   4.688   7.496 -0.8404  0.0236  0.3130
  187SLPC   H5R21544   5.057   4.589   7.496 -0.4643  0.1317  2.9315
  187SLPC   H5S21545   4.901   4.676   7.468 -0.6021  0.7556 -1.0174
  187SLPC   C2621546   5.028   4.748   7.628 -0.0211 -0.5713  0.2822
  187SLPC   H6R21547   5.000   4.856   7.623 -1.7275 -0.8324  2.5770
  187SLPC   H6S21548   5.138   4.754   7.648  0.0892 -0.2832 -0.4010
  187SLPC   C2721549   4.961   4.668   7.742  0.1185  0.3814 -0.2045
  187SLPC   H7R21550   4.980   4.559   7.740  0.7104  0.4817 -1.1623
  187SLPC   H7S21551   4.853   4.689   7.729  0.5420  2.4869 -0.7849
  187SLPC   C2821552   5.009   4.722   7.880  0.5778  0.5845  0.8028
  187SLPC   H8R21553   5.020   4.833   7.876  0.3340  0.6237 -3.6299
  187SLPC   H8S21554   5.114   4.687   7.886  1.0689  0.7599 -3.5228
  187SLPC   C2921555   4.920   4.676   7.993  0.0493  0.4642 -0.3072
  187SLPC   H9R21556   4.814   4.672   7.966  0.4855 -0.2533 -2.0683
  187SLPC  C21021557   4.961   4.634   8.115 -0.6236  0.4098  1.0163
  187SLPC  H10R21558   4.887   4.613   8.194  0.3418  0.7538  2.0379
  187SLPC  C21121559   5.102   4.621   8.159  0.2257  0.3251 -0.1750
  187SLPC  H11R21560   5.160   4.560   8.086  3.1963  3.2072 -0.4846
  187SLPC  H11S21561   5.096   4.561   8.252 -0.4121 -1.8974 -1.5794
  187SLPC  C21221562   5.174   4.751   8.192 -0.0431  0.3375  0.5642
  187SLPC  H12R21563   5.131   4.838   8.141  0.1525  0.1643  0.0972
  187SLPC  C21321564   5.279   4.769   8.277 -0.3817  0.1769 -0.1076
  187SLPC  H13R21565   5.319   4.869   8.303 -0.1032  0.5588 -1.8737
  187SLPC  C21421566   5.361   4.655   8.342 -0.3294 -0.4424  0.5985
  187SLPC  H14R21567   5.469   4.672   8.321 -0.0517 -0.4642  1.9407
  187SLPC  H14S21568   5.346   4.557   8.292 -0.2425 -1.3414  2.2486
  187SLPC  C21521569   5.326   4.632   8.486  0.2621 -0.2757 -1.2944
  187SLPC  H15R21570   5.361   4.715   8.550 -0.3872 -1.6971  1.0418
  187SLPC  H15S21571   5.367   4.538   8.530 -0.2302 -0.9403 -2.2090
  187SLPC  C21621572   5.176   4.621   8.516  0.5998  0.6683 -0.7570
  187SLPC  H16R21573   5.140   4.542   8.446 -0.0030  0.6309 -0.4121
  187SLPC  H16S21574   5.133   4.723   8.505  0.1407  0.6177  0.4809
  187SLPC  C21721575   5.156   4.561   8.660 -0.1242  0.9640 -0.0949
  187SLPC  H17R21576   5.254   4.550   8.712 -0.9147  2.4217  1.8017
  187SLPC  H17S21577   5.122   4.455   8.660  2.6650 -0.1253 -3.1980
  187SLPC  C21821578   5.074   4.649   8.753  1.0204 -0.4222 -0.2584
  187SLPC  H18R21579   4.975   4.682   8.713  1.4651  0.6849 -0.4639
  187SLPC  H18S21580   5.132   4.743   8.760  0.2080 -0.0456  2.2036
  187SLPC  H18T21581   5.059   4.603   8.853 -0.6943  0.5705 -0.0238
  187SLPC   C3321582   5.616   4.691   6.964 -0.4140 -0.2220 -0.6771
  187SLPC   H3X21583   5.548   4.761   7.018 -0.2152 -0.3917 -0.2068
  187SLPC   H3Y21584   5.711   4.747   6.958 -0.6037  0.2011  0.1741
  187SLPC   C3421585   5.634   4.557   7.027 -0.7638  0.3634 -0.1902
  187SLPC   H4X21586   5.713   4.497   6.977  0.2272 -1.2967  3.1182
  187SLPC   H4Y21587   5.543   4.494   7.014  1.0155 -2.0715 -1.5928
  187SLPC   C3521588   5.672   4.556   7.177  0.1875 -0.6832 -0.2538
  187SLPC   H5X21589   5.754   4.626   7.203 -0.0608 -0.4706 -0.0304
  187SLPC   H5Y21590   5.719   4.461   7.209  1.4193 -0.6594 -1.8475
  187SLPC   C3621591   5.545   4.589   7.252  0.2538  0.1703  0.8099
  187SLPC   H6X21592   5.497   4.489   7.255  1.3096 -0.3709  0.2949
  187SLPC   H6Y21593   5.487   4.670   7.203  1.4780  1.2770  1.1083
  187SLPC   C3721594   5.569   4.638   7.393  0.0240 -0.1346 -0.1600
  187SLPC   H7X21595   5.636   4.576   7.456 -0.0968 -0.3212 -0.2114
  187SLPC   H7Y21596   5.622   4.735   7.380  0.0936 -0.1009  0.3817
  187SLPC   C3821597   5.448   4.670   7.476 -0.4933 -0.2148  0.7329
  187SLPC   H8X21598   5.389   4.576   7.491 -0.7359 -0.1393  0.2636
  187SLPC   H8Y21599   5.399   4.752   7.419 -0.1831 -0.7316 -0.3103
  187SLPC   C3921600   5.483   4.727   7.622 -0.1161  0.3850  0.1517
  187SLPC   H9X21601   5.397   4.791   7.651 -0.7439 -0.6105  0.5251
  187SLPC   H9Y21602   5.573   4.792   7.615  0.3388 -0.0688  1.4907
  187SLPC  C31021603   5.503   4.620   7.724  0.2397 -0.5353 -0.9315
  187SLPC  H10X21604   5.562   4.540   7.676  1.0883 -0.0032 -0.8005
  187SLPC  H10Y21605   5.409   4.578   7.766  1.3561 -0.4509  1.8238
  187SLPC  C31121606   5.574   4.671   7.846 -0.0513  0.1838  0.1489
  187SLPC  H11X21607   5.511   4.740   7.905 -0.1251 -1.6020  2.3139
  187SLPC  H11Y21608   5.673   4.717   7.825  2.0838 -3.5552  1.0750
  187SLPC  C31221609   5.602   4.552   7.948 -0.1556 -0.4745  0.5932
  187SLPC  H12X21610   5.652   4.473   7.888  0.8327  2.1989 -2.4763
  187SLPC  H12Y21611   5.502   4.509   7.968 -0.2789 -0.0631  0.8802
  187SLPC  C31321612   5.674   4.579   8.070 -0.0709  0.6646 -0.5296
  187SLPC  H13X21613   5.604   4.632   8.137 -1.2660  0.2044 -1.3731
  187SLPC  H13Y21614   5.760   4.648   8.069  0.3492  0.1537 -0.2257
  187SLPC  C31421615   5.708   4.460   8.161 -0.2145  0.1172  0.3869
  187SLPC  H14X21616   5.620   4.392   8.163  0.6515 -1.1341 -1.3891
  187SLPC  H14Y21617   5.731   4.499   8.262  5.3775  0.0373 -0.5181
  187SLPC  C31521618   5.841   4.388   8.108  0.4842  0.5818 -0.0813
  187SLPC  H15X21619   5.939   4.437   8.128  0.8523  0.5301 -1.6331
  187SLPC  H15Y21620   5.822   4.386   7.999  1.4288  1.9794 -0.3023
  187SLPC  C31621621   5.842   4.242   8.152 -1.2145  0.7126  0.2940
  187SLPC  H16X21622   5.753   4.182   8.123 -0.5307 -0.2305  0.0859
  187SLPC  H16Y21623   5.837   4.236   8.263 -0.7410 -0.7562  0.2596
  187SLPC  C31721624   5.968   4.162   8.119  0.1623  0.2118 -0.2826
  187SLPC  H17X21625   5.954   4.053   8.135  1.3931 -0.1530 -1.5184
  187SLPC  H17Y21626   6.047   4.198   8.188  0.1226 -0.0166 -0.1188
  187SLPC  C31821627   6.004   4.188   7.963  0.2775 -0.3795 -0.4913
  187SLPC  H18X21628   5.929   4.140   7.896  0.8054 -0.4721 -1.0272
  187SLPC  H18Y21629   6.104   4.146   7.937  0.6782 -0.5067  1.1248
  187SLPC  H18Z21630   6.002   4.297   7.939 -0.8040  0.2928  2.2940
  188SLPC     N21631   6.498   6.563   6.030 -0.0282  0.1168 -0.0682
  188SLPC   C1321632   6.471   6.414   6.048 -0.1627 -0.6168  0.1638
  188SLPC  H13A21633   6.410   6.383   5.964  0.3374 -0.8619 -0.1115
  188SLPC  H13B21634   6.562   6.357   6.037 -1.0665 -1.8446 -1.5209
  188SLPC  H13C21635   6.410   6.405   6.136 -1.5543  0.0519 -0.7011
  188SLPC   C1421636   6.369   6.641   6.043  0.4692 -0.7510  0.1194
  188SLPC  H14A21637   6.380   6.737   5.995 -3.2272 -0.4828 -0.5229
  188SLPC  H14B21638   6.285   6.589   5.998 -0.0642  0.7715 -0.7207
  188SLPC  H14C21639   6.345   6.661   6.146  2.3378  0.2225  0.3899
  188SLPC   C1521640   6.553   6.591   5.897  0.1746  0.1445 -0.1942
  188SLPC  H15A21641   6.636   6.529   5.866  0.8707  0.8315  0.2383
  188SLPC  H15B21642   6.470   6.583   5.830 -0.2303  0.4701  0.2590
  188SLPC  H15C21643   6.595   6.691   5.893 -1.6737  0.9288 -0.8930
  188SLPC   C1221644   6.601   6.609   6.138 -0.3794 -0.2889 -0.2965
  188SLPC  H12A21645   6.690   6.551   6.118 -2.0623 -3.3215  0.4156
  188SLPC  H12B21646   6.562   6.583   6.235  0.9717 -0.1973  0.2893
  188SLPC   C1121647   6.641   6.759   6.150 -0.1802  0.1253 -0.4649
  188SLPC  H11A21648   6.667   6.793   6.048  0.5212 -0.2203 -0.4044
  188SLPC  H11B21649   6.726   6.769   6.220 -1.6295 -1.3483  1.6646
  188SLPC     P21650   6.480   6.822   6.345  0.2868 -0.1885  0.0308
  188SLPC   O1321651   6.445   6.957   6.400 -0.5828  0.6216 -0.9880
  188SLPC   O1421652   6.368   6.728   6.335  0.5615 -0.1291 -0.1169
  188SLPC   O1221653   6.533   6.839   6.194 -0.4874  0.2161  0.1799
  188SLPC   O1121654   6.603   6.761   6.421 -0.1446  0.0977 -0.3105
  188SLPC    C121655   6.594   6.660   6.528  0.0819 -0.4113  0.1224
  188SLPC    HA21656   6.493   6.613   6.533 -0.6506  1.0482 -0.2631
  188SLPC    HB21657   6.671   6.583   6.505  1.3973  1.1248 -0.8508
  188SLPC    C221658   6.632   6.715   6.664 -0.3631 -0.2477 -0.4692
  188SLPC    HS21659   6.609   6.643   6.745  4.1497 -0.6261  0.7115
  188SLPC   O2121660   6.559   6.837   6.689  0.3366 -0.8640 -0.5982
  188SLPC   C2121661   6.436   6.827   6.710 -0.1582  0.0849  0.4576
  188SLPC   O2221662   6.374   6.724   6.721  0.2518 -0.1538  0.0196
  188SLPC   C2221663   6.375   6.970   6.729 -0.3176 -0.2432 -0.0639
  188SLPC   H2R21664   6.415   7.036   6.649 -1.6721  0.3483 -0.2836
  188SLPC   H2S21665   6.265   6.956   6.727 -0.3670  0.1929 -0.5024
  188SLPC    C321666   6.783   6.744   6.666  0.3885 -0.0178  0.4674
  188SLPC    HX21667   6.788   6.809   6.576  0.2539 -1.1389 -0.3641
  188SLPC    HY21668   6.850   6.658   6.650  2.4502  1.6593 -0.3842
  188SLPC   O3121669   6.811   6.814   6.782  0.2034  0.1846  0.3015
  188SLPC   C3121670   6.826   6.750   6.895 -0.7689  0.0807  0.3325
  188SLPC   O3221671   6.833   6.629   6.914 -0.2052 -0.1576 -0.1603
  188SLPC   C3221672   6.819   6.846   7.012 -0.0187  0.1097  0.0597
  188SLPC   H2X21673   6.715   6.881   7.029  0.0728 -0.0973  1.1451
  188SLPC   H2Y21674   6.874   6.940   6.990 -0.1021 -0.0320 -0.7600
  188SLPC   C2321675   6.422   7.044   6.860  0.6871 -0.2965  0.0851
  188SLPC   H3R21676   6.364   7.137   6.876  1.7585  0.2854  0.7544
  188SLPC   H3S21677   6.526   7.079   6.844  1.3711 -2.3758 -0.3933
  188SLPC   C2421678   6.409   6.956   6.989  0.0362  0.1255  0.3151
  188SLPC   H4R21679   6.467   6.862   6.974  0.8162  0.5313  0.7362
  188SLPC   H4S21680   6.304   6.928   7.011  0.0891  0.9405  1.6797
  188SLPC   C2521681   6.473   7.023   7.112  0.3099  0.0946 -0.5867
  188SLPC   H5R21682   6.434   7.127   7.104 -0.1541  0.0392  0.6728
  188SLPC   H5S21683   6.582   7.040   7.119  0.4591 -1.2936  1.3055
  188SLPC   C2621684   6.429   6.958   7.247  0.5060 -0.2710  0.6848
  188SLPC   H6R21685   6.456   6.850   7.250 -2.0428 -0.9645  2.0319
  188SLPC   H6S21686   6.320   6.968   7.265  0.5589 -0.0647  0.8858
  188SLPC   C2721687   6.492   7.024   7.367 -0.0772 -1.3898 -0.0000
  188SLPC   H7R21688   6.465   7.132   7.369 -1.2408 -1.6721 -0.0311
  188SLPC   H7S21689   6.597   7.019   7.330  0.1054  0.2378  0.2163
  188SLPC   C2821690   6.461   6.956   7.492  0.3654  0.3411 -0.0721
  188SLPC   H8R21691   6.481   6.848   7.479  1.0761  0.4865 -0.2421
  188SLPC   H8S21692   6.353   6.968   7.513 -0.2652  1.9619 -3.5597
  188SLPC   C2921693   6.545   6.999   7.612  0.0708 -0.2533 -0.0798
  188SLPC   H9R21694   6.603   7.091   7.593 -1.8831  1.0586  0.0041
  188SLPC  C21021695   6.571   6.932   7.725  0.4254 -0.6015 -0.4688
  188SLPC  H10R21696   6.646   6.965   7.798 -1.6464  1.7739  0.7369
  188SLPC  C21121697   6.506   6.799   7.770  0.0353 -0.7945 -0.3663
  188SLPC  H11R21698   6.431   6.769   7.693  2.9977  0.5380 -4.0630
  188SLPC  H11S21699   6.456   6.823   7.866  0.1794  0.5496 -0.6065
  188SLPC  C21221700   6.612   6.688   7.776 -0.0111 -0.0054 -0.8575
  188SLPC  H12R21701   6.669   6.668   7.684  1.9044  1.8097 -0.1622
  188SLPC  C21321702   6.627   6.601   7.878  0.0800  0.5238  0.5135
  188SLPC  H13R21703   6.709   6.528   7.872  0.1694  0.4373  2.4171
  188SLPC  C21421704   6.555   6.603   8.007 -0.1109 -0.1593 -0.4144
  188SLPC  H14R21705   6.490   6.513   8.018 -1.2813  0.8299  1.1435
  188SLPC  H14S21706   6.488   6.692   8.011  1.0543  0.7225  0.2309
  188SLPC  C21521707   6.667   6.630   8.110  0.1407  0.4322  0.3907
  188SLPC  H15R21708   6.626   6.675   8.203 -0.9112  2.1368 -0.8279
  188SLPC  H15S21709   6.751   6.693   8.076  1.0355 -0.8210  0.1960
  188SLPC  C21621710   6.739   6.496   8.149 -0.3828 -0.1105 -0.5465
  188SLPC  H16R21711   6.805   6.451   8.072 -0.2867  0.0182 -0.5387
  188SLPC  H16S21712   6.660   6.420   8.167  0.3657 -0.6580  0.5079
  188SLPC  C21721713   6.818   6.512   8.284  0.8892 -0.4100  0.2792
  188SLPC  H17R21714   6.738   6.557   8.346  0.4186 -0.3663 -0.3440
  188SLPC  H17S21715   6.899   6.584   8.263 -0.3383  0.3682 -2.2322
  188SLPC  C21821716   6.872   6.378   8.337 -0.6221  0.2939  0.5294
  188SLPC  H18R21717   6.801   6.342   8.414 -0.3784  1.2932  1.2427
  188SLPC  H18S21718   6.974   6.385   8.381  0.8150 -0.8870 -2.3311
  188SLPC  H18T21719   6.881   6.305   8.254 -1.2333  0.0132  0.7018
  188SLPC   C3321720   6.872   6.785   7.142  0.1347 -0.6405  0.0533
  188SLPC   H3X21721   6.979   6.760   7.121  0.8768  1.1573  1.4839
  188SLPC   H3Y21722   6.834   6.685   7.172 -1.2876 -0.5172 -1.2166
  188SLPC   C3421723   6.850   6.864   7.275 -0.5912 -0.1532  0.3386
  188SLPC   H4X21724   6.744   6.886   7.301 -0.2997  1.0899  0.5296
  188SLPC   H4Y21725   6.907   6.958   7.264 -0.9723 -0.1598 -2.3251
  188SLPC   C3521726   6.905   6.785   7.401  0.1579 -0.6681 -0.2496
  188SLPC   H5X21727   7.003   6.737   7.381  0.9412  0.5760  0.4299
  188SLPC   H5Y21728   6.836   6.702   7.425 -1.5447  1.1192  1.4172
  188SLPC   C3621729   6.921   6.876   7.522  0.1348  0.1384 -1.0540
  188SLPC   H6X21730   6.822   6.916   7.553 -0.3928 -0.3376 -2.0914
  188SLPC   H6Y21731   6.986   6.960   7.488  0.9727  0.3222  0.8514
  188SLPC   C3721732   6.994   6.803   7.645  0.3281 -0.2610  0.1634
  188SLPC   H7X21733   7.090   6.765   7.604 -0.4221  0.3256 -2.3685
  188SLPC   H7Y21734   6.945   6.712   7.684 -1.0539  0.1565 -0.5175
  188SLPC   C3821735   7.018   6.910   7.760  0.7505  0.0583 -0.0766
  188SLPC   H8X21736   6.925   6.960   7.794  1.3571  1.1370  0.0326
  188SLPC   H8Y21737   7.077   6.994   7.717 -2.4860  1.5960 -1.8821
  188SLPC   C3921738   7.081   6.848   7.886 -0.5057 -0.2386  0.0143
  188SLPC   H9X21739   7.159   6.773   7.862 -1.4145 -1.9846  2.1580
  188SLPC   H9Y21740   7.010   6.797   7.954 -0.2778 -0.1505  0.3206
  188SLPC  C31021741   7.149   6.954   7.976  0.2811  0.1768 -0.1985
  188SLPC  H10X21742   7.068   7.009   8.028  0.8154  0.3998  0.4086
  188SLPC  H10Y21743   7.213   7.015   7.909  0.3758 -0.1489 -0.4096
  188SLPC  C31121744   7.246   6.896   8.082  0.0756 -0.0814 -0.1578
  188SLPC  H11X21745   7.300   6.988   8.113  0.8726 -0.5253 -0.1741
  188SLPC  H11Y21746   7.316   6.830   8.026 -1.9115 -0.9265 -1.7323
  188SLPC  C31221747   7.184   6.825   8.203  0.1134 -0.2961 -0.0110
  188SLPC  H12X21748   7.123   6.741   8.164 -0.7093  0.5866 -0.7001
  188SLPC  H12Y21749   7.139   6.910   8.258 -1.1562 -1.7130  1.2148
  188SLPC  C31321750   7.289   6.770   8.294 -0.1128  0.2549  0.4680
  188SLPC  H13X21751   7.340   6.848   8.355  0.2641  1.6618 -1.5744
  188SLPC  H13Y21752   7.364   6.709   8.239  0.1632  1.1847 -0.1953
  188SLPC  C31421753   7.232   6.661   8.383 -0.0258 -0.5006  0.2746
  188SLPC  H14X21754   7.200   6.576   8.321 -0.6080 -0.3562  0.3719
  188SLPC  H14Y21755   7.143   6.696   8.439 -0.4634  0.7099 -1.1059
  188SLPC  C31521756   7.333   6.605   8.481 -0.0711 -0.0869  0.1109
  188SLPC  H15X21757   7.367   6.693   8.541  0.1099 -0.2953  0.3165
  188SLPC  H15Y21758   7.419   6.565   8.424  0.1471 -1.1633  1.1488
  188SLPC  C31621759   7.270   6.500   8.574 -0.5854 -0.5142 -0.2008
  188SLPC  H16X21760   7.164   6.532   8.570 -1.5059 -2.9799  1.7393
  188SLPC  H16Y21761   7.309   6.513   8.677  0.5252  3.6131 -0.9434
  188SLPC  C31721762   7.263   6.368   8.507 -0.2224 -0.4617  0.0128
  188SLPC  H17X21763   7.367   6.330   8.512  0.1864  0.5954 -0.2000
  188SLPC  H17Y21764   7.225   6.379   8.403 -2.2105 -0.7176  0.6536
  188SLPC  C31821765   7.191   6.266   8.591  0.1725 -0.1606 -0.3073
  188SLPC  H18X21766   7.237   6.260   8.692  2.1824 -2.9415 -1.2538
  188SLPC  H18Y21767   7.201   6.164   8.548  0.6716 -1.3408  2.4154
  188SLPC  H18Z21768   7.082   6.286   8.602  0.0249  0.3843 -2.3849
  189SLPC     N21769   0.407   0.375   5.805 -0.5055 -0.4074  0.1244
  189SLPC   C1321770   0.294   0.293   5.745 -0.2407  0.1554  0.1325
  189SLPC  H13A21771   0.239   0.356   5.678 -0.5413 -0.0370  0.1969
  189SLPC  H13B21772   0.323   0.214   5.678 -1.0076  1.4456 -1.7949
  189SLPC  H13C21773   0.232   0.245   5.820  0.7809  0.9677  1.5582
  189SLPC   C1421774   0.472   0.481   5.716 -0.0128  0.9875  0.2568
  189SLPC  H14A21775   0.514   0.441   5.625  0.7871 -0.8810  1.3703
  189SLPC  H14B21776   0.400   0.548   5.672  0.7159  1.3575 -0.3975
  189SLPC  H14C21777   0.553   0.533   5.766  0.8711  0.8398 -0.9661
  189SLPC   C1521778   0.515   0.281   5.840 -0.1868 -0.1038  0.1565
  189SLPC  H15A21779   0.482   0.211   5.916  2.0688  1.1939  2.4880
  189SLPC  H15B21780   0.546   0.227   5.753  3.9922  1.8823  0.1838
  189SLPC  H15C21781   0.599   0.335   5.881  0.7125 -0.4175 -1.2093
  189SLPC   C1221782   0.349   0.448   5.934  0.6023  0.0139 -0.2219
  189SLPC  H12A21783   0.304   0.370   5.993 -0.2091  0.1444 -0.6625
  189SLPC  H12B21784   0.267   0.500   5.886 -0.0662 -1.9729 -1.3797
  189SLPC   C1121785   0.444   0.525   6.021 -0.2131 -0.0068  0.3545
  189SLPC  H11A21786   0.380   0.565   6.102 -1.1605  0.3043 -0.5279
  189SLPC  H11B21787   0.487   0.612   5.968 -3.5165  1.8826  0.5251
  189SLPC     P21788   0.524   0.349   6.190 -0.1836 -0.1494 -0.0459
  189SLPC   O1321789   0.406   0.258   6.179 -0.3426 -0.7179 -0.2525
  189SLPC   O1421790   0.644   0.268   6.216  0.5764 -0.5359  0.6735
  189SLPC   O1221791   0.552   0.440   6.066 -0.0952 -0.0491 -0.0131
  189SLPC   O1121792   0.499   0.453   6.311 -0.2271  0.0706  0.3667
  189SLPC    C121793   0.578   0.569   6.340 -0.0179 -0.2774  0.9028
  189SLPC    HA21794   0.685   0.548   6.322 -0.1658  0.6450 -1.5844
  189SLPC    HB21795   0.549   0.652   6.272 -0.7705  0.2661  1.8707
  189SLPC    C221796   0.562   0.610   6.486 -0.2314  0.6956 -0.6351
  189SLPC    HS21797   0.635   0.693   6.496  1.0937 -0.5214  0.1121
  189SLPC   O2121798   0.603   0.495   6.570 -0.1818 -0.5180  0.3728
  189SLPC   C2121799   0.658   0.536   6.688 -0.6038  0.5612 -0.6177
  189SLPC   O2221800   0.677   0.651   6.718  0.1991  0.0470 -0.4744
  189SLPC   C2221801   0.666   0.418   6.786  0.1648 -0.0449  0.4290
  189SLPC   H2R21802   0.567   0.368   6.776 -1.1018  2.3273  0.3635
  189SLPC   H2S21803   0.740   0.347   6.743 -1.0245 -0.4538 -1.0457
  189SLPC    C321804   0.416   0.663   6.519 -0.0781  0.0646  0.8265
  189SLPC    HX21805   0.348   0.576   6.507 -0.6554  0.8097 -1.8050
  189SLPC    HY21806   0.391   0.725   6.431 -3.1017 -1.8407  0.2210
  189SLPC   O3121807   0.387   0.718   6.652 -0.2873 -0.4802 -0.1404
  189SLPC   C3121808   0.437   0.845   6.656  0.2273 -1.0285  0.1640
  189SLPC   O3221809   0.469   0.914   6.561 -0.4762  0.4546  0.9412
  189SLPC   C3221810   0.449   0.888   6.804  0.4874 -0.0017  1.0341
  189SLPC   H2X21811   0.534   0.827   6.842 -0.0692 -0.9542  0.7763
  189SLPC   H2Y21812   0.355   0.862   6.856 -1.7236  1.3655 -1.9653
  189SLPC   C2321813   0.684   0.456   6.935 -0.1542 -0.3436 -0.8137
  189SLPC   H3R21814   0.771   0.526   6.941 -0.7110  0.4000 -1.2944
  189SLPC   H3S21815   0.712   0.364   6.991  1.9180  0.6859 -0.0421
  189SLPC   C2421816   0.568   0.525   7.002  0.1665 -0.7682  0.3065
  189SLPC   H4R21817   0.477   0.461   7.000  0.3887 -1.2801  2.8537
  189SLPC   H4S21818   0.548   0.620   6.948 -1.6001 -1.0102  0.4768
  189SLPC   C2521819   0.589   0.564   7.151 -0.8066 -0.3641  0.4837
  189SLPC   H5R21820   0.682   0.623   7.167 -0.5173 -0.2588 -1.3997
  189SLPC   H5S21821   0.601   0.471   7.210  1.4574 -2.0094 -2.3359
  189SLPC   C2621822   0.469   0.642   7.211  0.1664 -0.4870 -0.1728
  189SLPC   H6R21823   0.374   0.584   7.212 -0.0472 -0.1946  2.3313
  189SLPC   H6S21824   0.460   0.739   7.159 -1.5428  0.1799  1.2827
  189SLPC   C2721825   0.478   0.679   7.367  0.1692  0.0202  0.4813
  189SLPC   H7R21826   0.576   0.724   7.393  0.1543  1.9210 -2.2991
  189SLPC   H7S21827   0.475   0.586   7.427  0.6554 -0.5480 -0.3511
  189SLPC   C2821828   0.364   0.766   7.413  0.0008 -0.1716 -0.0426
  189SLPC   H8R21829   0.268   0.722   7.381  1.9821 -5.5217  0.3127
  189SLPC   H8S21830   0.379   0.862   7.358 -1.9856  1.3803  1.9218
  189SLPC   C2921831   0.356   0.801   7.562 -0.4481  0.0905 -0.1517
  189SLPC   H9R21832   0.376   0.717   7.630 -0.4400 -0.8371 -1.2772
  189SLPC  C21021833   0.341   0.925   7.616  0.0538 -0.3866  0.1141
  189SLPC  H10R21834   0.348   0.945   7.724  1.4753  4.3696 -0.6413
  189SLPC  C21121835   0.321   1.048   7.529 -0.0912  0.1483 -0.6334
  189SLPC  H11R21836   0.239   1.036   7.454  1.0974 -1.4651 -1.7639
  189SLPC  H11S21837   0.409   1.077   7.468  0.8637 -0.7949  0.2409
  189SLPC  C21221838   0.269   1.163   7.616  0.2796  0.2765 -1.2654
  189SLPC  H12R21839   0.161   1.186   7.611  0.2605  0.8981  0.8876
  189SLPC  C21321840   0.340   1.242   7.697 -0.0555  0.3447  0.1981
  189SLPC  H13R21841   0.293   1.325   7.753 -0.0780  0.2356  0.3392
  189SLPC  C21421842   0.486   1.230   7.710 -0.0236 -0.6370 -0.3160
  189SLPC  H14R21843   0.534   1.324   7.674 -0.5970 -0.1749  0.1005
  189SLPC  H14S21844   0.531   1.146   7.655 -0.8647 -2.1474  1.2006
  189SLPC  C21521845   0.530   1.220   7.864  0.1270 -0.0675  0.9488
  189SLPC  H15R21846   0.637   1.195   7.874 -0.0808 -2.1183 -1.0717
  189SLPC  H15S21847   0.476   1.133   7.908  0.7019 -0.9420 -0.0384
  189SLPC  C21621848   0.507   1.350   7.942 -0.4009 -0.6510 -0.9338
  189SLPC  H16R21849   0.399   1.342   7.968 -0.8674  0.9285 -2.2635
  189SLPC  H16S21850   0.525   1.430   7.867 -0.4324  0.5214  0.2790
  189SLPC  C21721851   0.607   1.382   8.060 -0.0856  0.8252  0.5345
  189SLPC  H17R21852   0.711   1.368   8.025 -0.2473  0.7222  0.0911
  189SLPC  H17S21853   0.577   1.308   8.137  0.9293  1.0921  1.1944
  189SLPC  C21821854   0.596   1.527   8.108 -0.2668 -0.2623  0.0082
  189SLPC  H18R21855   0.635   1.539   8.211  1.9641 -0.4934 -0.7691
  189SLPC  H18S21856   0.492   1.565   8.101 -0.7642 -0.6096  3.5303
  189SLPC  H18T21857   0.658   1.593   8.044 -3.2190  1.5970 -1.1696
  189SLPC   C3321858   0.484   1.035   6.837 -0.4159  0.8357  0.5594
  189SLPC   H3X21859   0.385   1.086   6.833 -0.1596  1.3276  0.5081
  189SLPC   H3Y21860   0.549   1.084   6.762 -1.5874  2.2400  0.4132
  189SLPC   C3421861   0.566   1.053   6.970  0.1895  0.0736  0.3123
  189SLPC   H4X21862   0.601   1.158   6.969  0.4767  0.0790  3.2061
  189SLPC   H4Y21863   0.653   0.986   6.983 -1.6956 -2.7583 -0.6317
  189SLPC   C3521864   0.469   1.053   7.087 -0.3604 -0.3820  0.6083
  189SLPC   H5X21865   0.446   0.948   7.114  0.4572 -0.6122  0.4349
  189SLPC   H5Y21866   0.371   1.085   7.044  0.8983 -0.3488 -2.4625
  189SLPC   C3621867   0.515   1.134   7.206 -0.0562 -0.2150  0.0035
  189SLPC   H6X21868   0.432   1.161   7.276  0.5799  0.5452  0.4863
  189SLPC   H6Y21869   0.550   1.231   7.164 -2.4908  1.7044  2.0444
  189SLPC   C3721870   0.628   1.062   7.279  0.1561 -0.1396  0.7683
  189SLPC   H7X21871   0.709   1.017   7.218  0.4728 -3.0000  3.0907
  189SLPC   H7Y21872   0.590   0.980   7.343  1.5796 -0.9149  0.6681
  189SLPC   C3821873   0.700   1.162   7.367 -0.1301 -0.4263  0.5924
  189SLPC   H8X21874   0.619   1.214   7.423 -0.7274  0.7147 -1.2431
  189SLPC   H8Y21875   0.741   1.237   7.296 -0.3380 -1.4176 -0.6054
  189SLPC   C3921876   0.811   1.097   7.451 -0.0545  0.1204 -0.2516
  189SLPC   H9X21877   0.876   1.043   7.379 -2.8740 -0.5667 -2.4670
  189SLPC   H9Y21878   0.760   1.021   7.513 -0.4291  1.1217  0.6960
  189SLPC  C31021879   0.873   1.191   7.550 -0.3431  0.2006 -0.0127
  189SLPC  H10X21880   0.809   1.264   7.605 -0.0575  0.2371  0.2778
  189SLPC  H10Y21881   0.921   1.262   7.480  1.8175 -2.5562 -1.5314
  189SLPC  C31121882   0.949   1.129   7.655 -0.2694  0.1689 -0.4203
  189SLPC  H11X21883   1.043   1.076   7.627 -0.2216 -1.3698  2.3554
  189SLPC  H11Y21884   0.886   1.050   7.700  2.0478 -0.9671  1.0236
  189SLPC  C31221885   0.995   1.221   7.768  0.0428  0.1052  0.2374
  189SLPC  H12X21886   0.908   1.288   7.787 -1.0261 -0.9006 -0.9034
  189SLPC  H12Y21887   1.068   1.279   7.707 -2.6794  2.7211 -0.8024
  189SLPC  C31321888   1.049   1.140   7.891  0.0996  0.0227 -0.2892
  189SLPC  H13X21889   1.126   1.065   7.863  0.3323 -0.1924  0.8780
  189SLPC  H13Y21890   0.954   1.089   7.918  0.0290  0.1893 -0.2205
  189SLPC  C31421891   1.114   1.227   7.999  0.2666 -0.2336 -0.5623
  189SLPC  H14X21892   1.039   1.304   8.028 -1.4605 -1.5994 -1.1667
  189SLPC  H14Y21893   1.209   1.277   7.972  0.8480 -2.1576 -2.3168
  189SLPC  C31521894   1.148   1.145   8.126  0.3281  0.6954 -0.0273
  189SLPC  H15X21895   1.221   1.065   8.104 -1.1837 -0.9513  0.7061
  189SLPC  H15Y21896   1.056   1.092   8.160  2.6000 -1.0177  4.1921
  189SLPC  C31621897   1.193   1.225   8.245  0.7365  0.2229 -0.1316
  189SLPC  H16X21898   1.143   1.323   8.256  1.8412  0.6688  1.0646
  189SLPC  H16Y21899   1.294   1.268   8.228 -0.1423  1.5769 -2.3421
  189SLPC  C31721900   1.203   1.145   8.373 -0.3779  0.1914 -0.6384
  189SLPC  H17X21901   1.275   1.061   8.367  0.7905  1.1554 -0.4403
  189SLPC  H17Y21902   1.105   1.100   8.399  0.7354 -2.3161 -0.4752
  189SLPC  C31821903   1.237   1.229   8.499 -0.3377  0.3008 -0.2670
  189SLPC  H18X21904   1.158   1.299   8.534  0.5545  0.2181  2.1153
  189SLPC  H18Y21905   1.308   1.303   8.457  1.2664 -1.2795 -0.4686
  189SLPC  H18Z21906   1.277   1.172   8.586 -1.8517 -0.9196 -0.3140
  190SLPC     N21907   0.906   6.491   6.185  0.2639 -0.3022  0.0174
  190SLPC   C1321908   1.000   6.381   6.216 -0.6696 -0.1866 -0.4885
  190SLPC  H13A21909   0.978   6.328   6.308  1.0933  0.5374  0.4116
  190SLPC  H13B21910   1.011   6.309   6.136  2.2689 -0.3146 -0.1033
  190SLPC  H13C21911   1.101   6.419   6.227 -0.7573 -0.1671  0.3105
  190SLPC   C1421912   0.963   6.566   6.057  0.1517 -0.1205 -0.1097
  190SLPC  H14A21913   0.911   6.655   6.025 -0.0949  0.5153  1.9499
  190SLPC  H14B21914   1.062   6.597   6.086 -0.3403  1.1009  0.3593
  190SLPC  H14C21915   0.973   6.496   5.975 -0.1213  0.9245 -1.0543
  190SLPC   C1521916   0.925   6.586   6.300 -0.0622 -0.3071  0.4599
  190SLPC  H15A21917   0.902   6.540   6.394  0.3725 -0.0262  0.7058
  190SLPC  H15B21918   1.021   6.635   6.299  0.0521 -0.5294  0.6371
  190SLPC  H15C21919   0.860   6.669   6.277  1.2821 -0.0962 -3.3397
  190SLPC   C1221920   0.760   6.455   6.167  0.2587  0.6172  0.4273
  190SLPC  H12A21921   0.721   6.408   6.257 -2.0561 -1.4343 -1.4820
  190SLPC  H12B21922   0.747   6.373   6.098 -0.3395  1.1839 -0.1470
  190SLPC   C1121923   0.663   6.569   6.130  0.4650 -0.0047  0.6441
  190SLPC  H11A21924   0.568   6.521   6.100  0.4182  0.5777 -0.1879
  190SLPC  H11B21925   0.709   6.623   6.043  1.6333 -0.4117  0.9869
  190SLPC     P21926   0.549   6.619   6.351 -0.0890  0.0332 -0.7732
  190SLPC   O1321927   0.411   6.661   6.318  0.8383  0.4465 -0.3550
  190SLPC   O1421928   0.561   6.476   6.384  0.4382  0.2729 -0.5561
  190SLPC   O1221929   0.634   6.671   6.237 -0.0336 -0.2894  0.6850
  190SLPC   O1121930   0.581   6.699   6.483 -0.5073 -0.1752  0.3163
  190SLPC    C121931   0.685   6.797   6.493  0.3978 -0.0126  0.4045
  190SLPC    HA21932   0.783   6.745   6.495 -0.3797 -1.6951 -1.6412
  190SLPC    HB21933   0.691   6.868   6.408  2.7070 -0.4069  0.1800
  190SLPC    C221934   0.654   6.880   6.622 -0.0148 -0.6049 -0.8807
  190SLPC    HS21935   0.717   6.971   6.613 -1.7131  0.4887 -2.2622
  190SLPC   O2121936   0.695   6.804   6.738  0.2885  0.0850 -0.6152
  190SLPC   C2121937   0.821   6.779   6.754  0.4824 -0.0761  0.3654
  190SLPC   O2221938   0.916   6.821   6.697  0.4480  0.2975  0.1403
  190SLPC   C2221939   0.845   6.678   6.866 -0.5197 -0.0949 -0.1342
  190SLPC   H2R21940   0.754   6.615   6.869 -1.0777  0.6093 -1.5277
  190SLPC   H2S21941   0.931   6.614   6.837  0.0858  1.1151 -1.1022
  190SLPC    C321942   0.506   6.926   6.637  0.4592 -0.0301 -0.1923
  190SLPC    HX21943   0.445   6.835   6.621  1.1704 -0.5539  0.0020
  190SLPC    HY21944   0.506   7.000   6.554  3.4050  1.2849  0.8321
  190SLPC   O3121945   0.479   7.010   6.754  0.2089  0.1029  0.1558
  190SLPC   C3121946   0.450   6.935   6.856  0.5214 -0.4335 -0.5782
  190SLPC   O3221947   0.421   6.817   6.851  0.3717  0.2113 -0.1171
  190SLPC   C3221948   0.450   7.010   6.988  0.0518  0.2614 -0.0078
  190SLPC   H2X21949   0.403   7.110   6.974 -0.3823 -0.1097 -1.3923
  190SLPC   H2Y21950   0.554   7.022   7.024  0.8851 -1.6081 -1.6069
  190SLPC   C2321951   0.875   6.756   7.000 -0.7194 -0.4249 -0.1801
  190SLPC   H3R21952   0.971   6.811   6.989 -1.4458  0.7031 -1.2157
  190SLPC   H3S21953   0.879   6.677   7.078 -2.2460  0.7537  1.1696
  190SLPC   C2421954   0.769   6.859   7.036  0.2139  0.1374  0.1861
  190SLPC   H4R21955   0.673   6.805   7.018  1.7359 -1.8717 -2.8272
  190SLPC   H4S21956   0.761   6.951   6.975  2.1635 -0.1567 -0.5792
  190SLPC   C2521957   0.771   6.890   7.187  0.0962 -0.5718  0.3669
  190SLPC   H5R21958   0.774   6.787   7.227  2.3157  0.3451  2.8606
  190SLPC   H5S21959   0.681   6.942   7.228 -0.6164 -1.3813 -0.1318
  190SLPC   C2621960   0.896   6.979   7.218  0.2675 -0.4433 -0.2687
  190SLPC   H6R21961   0.867   7.081   7.184  0.6770  0.4948  2.0154
  190SLPC   H6S21962   0.981   6.943   7.157  0.0409  0.6351 -1.2341
  190SLPC   C2721963   0.927   6.990   7.369 -0.3413 -0.3615 -0.0893
  190SLPC   H7R21964   0.833   7.002   7.427 -0.2385  0.3013 -0.0601
  190SLPC   H7S21965   0.982   7.083   7.393 -0.0877 -0.7182  0.7613
  190SLPC   C2821966   1.009   6.876   7.420 -0.1772  0.2790  0.1163
  190SLPC   H8R21967   0.963   6.777   7.398 -1.5575  0.9767 -0.2280
  190SLPC   H8S21968   0.996   6.888   7.530 -0.2279  0.3208  0.1055
  190SLPC   C2921969   1.147   6.883   7.367 -0.6653  0.3807 -0.1517
  190SLPC   H9R21970   1.164   6.855   7.262 -0.2213 -1.4868  0.3725
  190SLPC  C21021971   1.255   6.925   7.438  0.9158 -0.5894  0.7245
  190SLPC  H10R21972   1.351   6.936   7.385  0.2674  0.1980 -0.3266
  190SLPC  C21121973   1.245   6.969   7.584 -0.5010 -0.2519 -0.1961
  190SLPC  H11R21974   1.158   7.037   7.595 -0.1009  0.3329 -0.6211
  190SLPC  H11S21975   1.338   7.021   7.616  1.2861 -1.8927 -2.4232
  190SLPC  C21221976   1.229   6.851   7.680  0.1318  0.7087  0.1180
  190SLPC  H12R21977   1.213   6.750   7.640  1.2864 -0.4052  2.3095
  190SLPC  C21321978   1.221   6.856   7.814 -0.5564 -0.3656  0.2495
  190SLPC  H13R21979   1.213   6.761   7.869  0.1854 -1.1357 -0.9056
  190SLPC  C21421980   1.254   6.979   7.895 -0.6998  0.1285 -0.7325
  190SLPC  H14R21981   1.159   7.023   7.933 -1.0552 -2.7120  1.9859
  190SLPC  H14S21982   1.315   7.056   7.843  1.3506  1.2651  2.9929
  190SLPC  C21521983   1.328   6.952   8.025  0.2367  0.0830  0.5593
  190SLPC  H15R21984   1.436   6.952   7.997  0.1577  4.4020 -0.4898
  190SLPC  H15S21985   1.303   6.855   8.072  1.0450  0.8231  2.6302
  190SLPC  C21621986   1.319   7.066   8.124  0.5743  0.4772 -0.3595
  190SLPC  H16R21987   1.212   7.078   8.150  0.3677 -1.1216 -0.3855
  190SLPC  H16S21988   1.342   7.149   8.054  1.7666  0.7603  0.3317
  190SLPC  C21721989   1.416   7.063   8.240  0.2439  0.2286  0.4513
  190SLPC  H17R21990   1.391   7.156   8.294  1.5513  1.6590 -1.2552
  190SLPC  H17S21991   1.524   7.067   8.212 -0.1137  1.6978 -0.8558
  190SLPC  C21821992   1.394   6.941   8.337 -0.3456 -0.8797 -0.1552
  190SLPC  H18R21993   1.391   6.845   8.282  0.2247 -0.2392 -1.3389
  190SLPC  H18S21994   1.304   6.950   8.402  1.4072 -0.3451  2.3500
  190SLPC  H18T21995   1.477   6.936   8.411  0.3976  0.9824 -0.8074
  190SLPC   C3321996   0.370   6.944   7.100  0.7284 -0.7186 -0.1943
  190SLPC   H3X21997   0.420   6.851   7.135  2.0364 -0.3506 -1.0150
  190SLPC   H3Y21998   0.273   6.917   7.054  0.5763  1.6545 -1.4530
  190SLPC   C3421999   0.338   7.031   7.225  0.5231 -0.3464  0.0266
  190SLPC   H4X22000   0.276   6.966   7.292 -2.0690  0.7977 -1.1258
  190SLPC   H4Y22001   0.277   7.118   7.195 -0.0764 -0.9687 -0.6085
  190SLPC   C3522002   0.454   7.067   7.322 -0.1556 -0.1016  0.3905
  190SLPC   H5X22003   0.516   7.140   7.265 -1.5747  1.0193  0.2040
  190SLPC   H5Y22004   0.507   6.972   7.343 -1.1601 -0.6775  0.3723
  190SLPC   C3622005   0.415   7.143   7.442 -0.1000 -0.3689 -0.3294
  190SLPC   H6X22006   0.335   7.084   7.490  0.0182 -2.3601 -2.4150
  190SLPC   H6Y22007   0.388   7.248   7.416  0.8521 -0.1609 -0.5305
  190SLPC   C3722008   0.533   7.151   7.548  0.1202  0.4848 -0.5890
  190SLPC   H7X22009   0.496   7.209   7.636  1.2025  0.8478 -0.3605
  190SLPC   H7Y22010   0.620   7.205   7.505 -0.2812  1.0543 -0.6973
  190SLPC   C3822011   0.565   7.017   7.607  0.0884  0.2118  0.0662
  190SLPC   H8X22012   0.605   6.951   7.528  0.9800  1.1924 -0.3317
  190SLPC   H8Y22013   0.472   6.968   7.644  0.2156  1.1601  1.7670
  190SLPC   C3922014   0.668   7.021   7.721 -0.3926  0.3711 -0.5358
  190SLPC   H9X22015   0.608   7.058   7.806  0.6803 -0.0085  0.4088
  190SLPC   H9Y22016   0.746   7.097   7.701  0.0217 -0.3073 -1.6419
  190SLPC  C31022017   0.739   6.888   7.756  0.0822  0.4326  0.4559
  190SLPC  H10X22018   0.802   6.867   7.667 -0.2545 -0.5460  0.4379
  190SLPC  H10Y22019   0.666   6.805   7.762 -0.7693  0.9597 -1.8755
  190SLPC  C31122020   0.821   6.891   7.881  0.6143  0.5614 -0.4213
  190SLPC  H11X22021   0.898   6.970   7.872  1.7510 -0.5231 -0.4471
  190SLPC  H11Y22022   0.881   6.798   7.881 -1.2678 -0.7355 -2.0513
  190SLPC  C31222023   0.736   6.909   8.008  1.1429 -0.1554  0.0177
  190SLPC  H12X22024   0.669   6.821   8.012  1.6642 -0.5647 -0.1661
  190SLPC  H12Y22025   0.686   7.008   7.997  0.6086 -0.1511  2.0108
  190SLPC  C31322026   0.803   6.901   8.151  0.2327 -0.2892  0.0303
  190SLPC  H13X22027   0.855   6.803   8.164  2.2554  0.5638 -1.1778
  190SLPC  H13Y22028   0.727   6.917   8.230  1.2045  1.0933  0.7227
  190SLPC  C31422029   0.907   7.011   8.177 -0.2065  0.6146 -0.2584
  190SLPC  H14X22030   1.008   6.986   8.139 -0.4735  0.0261 -0.6082
  190SLPC  H14Y22031   0.927   7.014   8.286  0.9480 -1.1695 -0.3890
  190SLPC  C31522032   0.861   7.155   8.148  0.6033 -0.5390  0.0447
  190SLPC  H15X22033   0.853   7.158   8.037  0.6668  1.0376  0.0611
  190SLPC  H15Y22034   0.947   7.217   8.180  1.4805 -1.7075  0.0462
  190SLPC  C31622035   0.724   7.200   8.207 -0.5561 -0.3769  0.2441
  190SLPC  H16X22036   0.739   7.203   8.317  1.3127 -0.3747  0.0092
  190SLPC  H16Y22037   0.635   7.139   8.179 -0.8752  0.1429  0.1104
  190SLPC  C31722038   0.694   7.342   8.168  0.4844 -0.3483 -0.2491
  190SLPC  H17X22039   0.695   7.367   8.060  3.0592  2.0565  0.1906
  190SLPC  H17Y22040   0.774   7.412   8.203 -0.6692  1.3531 -0.8820
  190SLPC  C31822041   0.559   7.395   8.224 -0.3407 -0.0136 -0.3649
  190SLPC  H18X22042   0.536   7.498   8.187  2.2894  1.2819  1.3776
  190SLPC  H18Y22043   0.562   7.416   8.333 -0.8669  0.4413 -0.4299
  190SLPC  H18Z22044   0.472   7.327   8.209  0.4488 -1.4755  1.3745
  191SLPC     N22045   2.034   1.919   5.608 -0.1629 -0.0518  0.2911
  191SLPC   C1322046   1.933   1.904   5.731 -0.1126 -0.4781  0.4725
  191SLPC  H13A22047   1.982   1.970   5.801 -1.6576 -0.1492  1.2743
  191SLPC  H13B22048   1.840   1.956   5.712  0.3261  0.1870  0.1101
  191SLPC  H13C22049   1.928   1.803   5.770  4.0277 -0.2218  2.1778
  191SLPC   C1422050   1.952   1.904   5.481 -0.2305 -0.5634  0.1486
  191SLPC  H14A22051   1.862   1.964   5.477  0.8487  1.1298  0.3179
  191SLPC  H14B22052   1.999   1.915   5.385 -2.1540 -3.1631 -1.2237
  191SLPC  H14C22053   1.909   1.805   5.473  2.3122 -1.6641 -0.8776
  191SLPC   C1522054   2.136   1.816   5.612 -0.7189 -0.0436 -0.1456
  191SLPC  H15A22055   2.092   1.717   5.619 -1.6754  0.3783 -0.0525
  191SLPC  H15B22056   2.186   1.821   5.517 -0.8046  3.0536 -0.1169
  191SLPC  H15C22057   2.201   1.837   5.696 -1.8322  1.1374  0.4477
  191SLPC   C1222058   2.088   2.061   5.606  0.1202  0.2456  1.1792
  191SLPC  H12A22059   2.002   2.126   5.604 -1.2644 -1.5095 -0.5634
  191SLPC  H12B22060   2.139   2.073   5.512 -3.1608  2.4335 -0.5554
  191SLPC   C1122061   2.186   2.108   5.716 -0.3104 -0.5389  0.8170
  191SLPC  H11A22062   2.242   2.196   5.678 -1.6497 -0.2864 -0.6926
  191SLPC  H11B22063   2.272   2.043   5.743  1.6596  1.8235  0.4720
  191SLPC     P22064   2.029   2.262   5.847 -0.1343  0.2988  0.1853
  191SLPC   O1322065   1.963   2.308   5.717 -0.0016  0.1583 -0.1814
  191SLPC   O1422066   1.926   2.245   5.954 -0.2390  0.7288 -0.4360
  191SLPC   O1222067   2.113   2.130   5.838 -0.2953 -0.3875  0.6688
  191SLPC   O1122068   2.131   2.373   5.896  0.2658  0.4948 -0.1218
  191SLPC    C122069   2.228   2.343   5.990 -0.3096  0.4334 -0.4901
  191SLPC    HA22070   2.297   2.262   5.958 -2.5974 -2.1914  0.7868
  191SLPC    HB22071   2.297   2.430   5.992  0.6038 -0.2699 -0.5921
  191SLPC    C222072   2.172   2.325   6.132 -0.7609 -1.0084 -0.5292
  191SLPC    HS22073   2.133   2.221   6.139 -1.5223 -0.7094 -0.1976
  191SLPC   O2122074   2.072   2.427   6.163 -0.5101 -0.1084 -0.0715
  191SLPC   C2122075   1.978   2.386   6.252 -0.2837 -0.0979  0.4205
  191SLPC   O2222076   1.968   2.271   6.293  0.1421  0.4289 -0.9043
  191SLPC   C2222077   1.879   2.503   6.293  0.1849 -0.6941  0.3829
  191SLPC   H2R22078   1.883   2.578   6.211 -0.6831 -1.2677 -0.2046
  191SLPC   H2S22079   1.775   2.465   6.298  0.2579 -1.7316 -3.1613
  191SLPC    C322080   2.297   2.334   6.232  0.5194 -0.1208  0.8652
  191SLPC    HX22081   2.338   2.437   6.243  1.2105 -0.2856 -0.0454
  191SLPC    HY22082   2.383   2.280   6.189 -0.9670 -0.6181 -1.6740
  191SLPC   O3122083   2.253   2.292   6.357  0.3382 -0.0080 -0.1371
  191SLPC   C3122084   2.346   2.252   6.444  0.2354  0.3089  0.3845
  191SLPC   O3222085   2.469   2.253   6.437  0.6230  0.1842 -0.1178
  191SLPC   C3222086   2.272   2.231   6.573 -0.3060 -0.0203 -0.6328
  191SLPC   H2X22087   2.208   2.321   6.576 -0.5058 -0.0387 -2.9118
  191SLPC   H2Y22088   2.349   2.240   6.653  0.6108  0.3947 -1.5473
  191SLPC   C2322089   1.910   2.570   6.428  0.3660 -0.8850  0.8013
  191SLPC   H3R22090   1.846   2.659   6.452  0.4317 -0.8508  0.8497
  191SLPC   H3S22091   2.014   2.609   6.423  0.5130 -1.4555 -0.8899
  191SLPC   C2422092   1.887   2.474   6.549  0.0812 -0.5125 -0.0920
  191SLPC   H4R22093   1.962   2.394   6.530  2.0419  1.1104  0.4232
  191SLPC   H4S22094   1.780   2.445   6.545 -0.3907  0.9053  1.2528
  191SLPC   C2522095   1.923   2.552   6.683  0.8099  0.2871 -0.0248
  191SLPC   H5R22096   1.856   2.641   6.685  1.4126  0.7581 -0.2808
  191SLPC   H5S22097   2.028   2.590   6.683  1.0811 -0.4202 -1.1543
  191SLPC   C2622098   1.901   2.468   6.812 -0.6693  0.2007 -0.3770
  191SLPC   H6R22099   1.921   2.535   6.899  3.2721  1.1891 -1.8498
  191SLPC   H6S22100   1.979   2.390   6.818  0.2163  0.9826 -1.3516
  191SLPC   C2722101   1.766   2.397   6.809 -0.5990  0.5157 -0.1497
  191SLPC   H7R22102   1.758   2.320   6.730 -2.1904 -0.3486  0.7995
  191SLPC   H7S22103   1.681   2.468   6.796  0.3159  1.9782  1.4052
  191SLPC   C2822104   1.738   2.316   6.941  1.0506  1.0467  0.2352
  191SLPC   H8R22105   1.801   2.226   6.956  0.3268  0.6267  0.9041
  191SLPC   H8S22106   1.639   2.268   6.924  1.3806  0.7345 -0.8174
  191SLPC   C2922107   1.722   2.392   7.066 -0.6615  0.4820  0.5116
  191SLPC   H9R22108   1.724   2.500   7.042 -1.2249 -0.0517 -2.3763
  191SLPC  C21022109   1.731   2.356   7.199 -0.7093  1.0765  0.3660
  191SLPC  H10R22110   1.697   2.422   7.280  1.8087  1.7256  0.9947
  191SLPC  C21122111   1.752   2.214   7.252 -0.1514  0.4126  0.0560
  191SLPC  H11R22112   1.733   2.142   7.170 -1.5478  0.7728  0.0309
  191SLPC  H11S22113   1.667   2.187   7.318  1.7132 -3.6916  1.0351
  191SLPC  C21222114   1.886   2.197   7.313  0.5662  0.5378  0.5826
  191SLPC  H12R22115   1.963   2.167   7.240 -0.4476  0.3696 -0.4399
  191SLPC  C21322116   1.917   2.198   7.440 -0.6532  0.1989 -1.1650
  191SLPC  H13R22117   2.019   2.177   7.476 -1.3736 -1.3870  0.0908
  191SLPC  C21422118   1.814   2.215   7.551 -0.2988  0.3895 -0.1707
  191SLPC  H14R22119   1.723   2.153   7.538 -0.3449  0.2069  0.9176
  191SLPC  H14S22120   1.776   2.319   7.548 -1.2141  0.0543 -0.5202
  191SLPC  C21522121   1.864   2.182   7.693 -0.2935 -0.7221 -0.8007
  191SLPC  H15R22122   1.903   2.078   7.701  0.1011 -0.5713 -0.7096
  191SLPC  H15S22123   1.768   2.186   7.748 -0.7749 -1.9053 -1.5338
  191SLPC  C21622124   1.960   2.287   7.753 -0.2874  0.2492 -0.2173
  191SLPC  H16R22125   1.916   2.389   7.760 -0.1615  0.4220 -1.6089
  191SLPC  H16S22126   2.040   2.294   7.676  0.2089 -0.1011  0.2561
  191SLPC  C21722127   2.021   2.242   7.890  0.1853  0.2589  0.0570
  191SLPC  H17R22128   2.117   2.293   7.912 -0.5560  1.1936  1.2293
  191SLPC  H17S22129   2.055   2.136   7.883 -0.9873 -0.2356  1.4615
  191SLPC  C21822130   1.923   2.261   8.003  0.4230  0.4566  0.8838
  191SLPC  H18R22131   1.927   2.365   8.039  0.2446  0.1523  1.8020
  191SLPC  H18S22132   1.946   2.184   8.080  2.3149 -0.5203 -0.5592
  191SLPC  H18T22133   1.821   2.235   7.966  1.5539 -0.6281 -1.7759
  191SLPC   C3322134   2.185   2.107   6.562  0.1177 -0.6522 -0.9207
  191SLPC   H3X22135   2.260   2.026   6.547  0.1837 -0.9087  0.6410
  191SLPC   H3Y22136   2.115   2.107   6.476 -1.7033 -0.3809  0.4843
  191SLPC   C3422137   2.109   2.060   6.688 -0.2135  0.5346  0.3713
  191SLPC   H4X22138   2.060   1.964   6.660  0.5873 -0.7652  3.0843
  191SLPC   H4Y22139   2.043   2.145   6.715  1.3294  1.8926  0.0256
  191SLPC   C3522140   2.203   2.017   6.800  0.1117 -0.2712 -0.1294
  191SLPC   H5X22141   2.244   2.104   6.857  2.0267 -1.5431  0.5310
  191SLPC   H5Y22142   2.294   1.971   6.755  0.9880  1.6234 -0.4017
  191SLPC   C3622143   2.122   1.927   6.905  1.1448 -0.0242  0.3641
  191SLPC   H6X22144   2.117   1.825   6.860  3.3894 -0.6760  1.4430
  191SLPC   H6Y22145   2.022   1.973   6.919  1.9064  1.2020  2.2211
  191SLPC   C3722146   2.194   1.922   7.040 -0.1071 -0.0257  0.1565
  191SLPC   H7X22147   2.258   2.011   7.058  0.8172 -0.4029 -1.0664
  191SLPC   H7Y22148   2.273   1.844   7.046  0.8254  0.9456  0.9627
  191SLPC   C3822149   2.105   1.880   7.160 -0.3294 -0.0905 -0.5810
  191SLPC   H8X22150   2.038   1.794   7.140  0.7582 -1.3425  0.9354
  191SLPC   H8Y22151   2.031   1.958   7.190 -1.2515 -0.9726 -0.5227
  191SLPC   C3922152   2.192   1.833   7.279 -0.0986 -0.5201  0.7059
  191SLPC   H9X22153   2.260   1.916   7.309  0.6324  0.0224 -2.1325
  191SLPC   H9Y22154   2.253   1.746   7.246 -0.6887  0.0781 -2.2832
  191SLPC  C31022155   2.106   1.799   7.405  0.2418  0.3042  0.5280
  191SLPC  H10X22156   2.057   1.701   7.384  0.9773 -0.6358  2.9008
  191SLPC  H10Y22157   2.035   1.882   7.425 -1.8066 -1.5535  1.3639
  191SLPC  C31122158   2.193   1.793   7.532  0.4419 -0.8552  0.3959
  191SLPC  H11X22159   2.241   1.893   7.535  1.5063 -1.3619  0.8588
  191SLPC  H11Y22160   2.276   1.721   7.520  3.6715  2.7190 -0.4913
  191SLPC  C31222161   2.115   1.774   7.659  0.3883 -0.5309  0.3975
  191SLPC  H12X22162   2.099   1.665   7.672  1.0821 -0.5146  1.4821
  191SLPC  H12Y22163   2.013   1.816   7.656  1.1928  1.5883  0.8297
  191SLPC  C31322164   2.179   1.832   7.787 -0.0668  0.5300 -0.1487
  191SLPC  H13X22165   2.202   1.940   7.773 -1.7159  1.2421  2.1880
  191SLPC  H13Y22166   2.277   1.784   7.809 -0.4335  0.2502  0.9178
  191SLPC  C31422167   2.089   1.820   7.909  0.3526 -0.1058  0.6010
  191SLPC  H14X22168   2.059   1.713   7.915  0.8509 -0.3056 -0.2589
  191SLPC  H14Y22169   1.994   1.878   7.900  1.3134  1.4380  0.1853
  191SLPC  C31522170   2.149   1.870   8.038 -0.1308 -0.4120  0.4309
  191SLPC  H15X22171   2.074   1.846   8.117 -0.9406  1.7344  0.3852
  191SLPC  H15Y22172   2.174   1.979   8.041  1.5311 -0.6341 -2.3347
  191SLPC  C31622173   2.278   1.796   8.080  0.5092  0.7331  0.1299
  191SLPC  H16X22174   2.363   1.858   8.115  0.4675 -0.5744  2.8336
  191SLPC  H16Y22175   2.313   1.730   7.998  0.1523  2.2045 -1.2701
  191SLPC  C31722176   2.239   1.701   8.203 -0.7372 -0.0775 -0.0224
  191SLPC  H17X22177   2.143   1.649   8.187 -0.2988 -0.5792 -1.0715
  191SLPC  H17Y22178   2.215   1.762   8.293 -1.2927 -1.9082  1.1191
  191SLPC  C31822179   2.354   1.608   8.231 -0.1408 -0.3653  0.2602
  191SLPC  H18X22180   2.329   1.511   8.279  0.4212 -2.1891 -2.8343
  191SLPC  H18Y22181   2.431   1.658   8.293  0.4200 -0.4759 -0.3336
  191SLPC  H18Z22182   2.401   1.588   8.132  1.5255 -0.8080  1.0905
  192SLPC     N22183   1.957   3.505   6.455 -0.1831 -0.2904 -0.0046
  192SLPC   C1322184   2.085   3.507   6.534 -0.2857  0.3045  0.3157
  192SLPC  H13A22185   2.056   3.502   6.638 -1.3588 -1.5674 -0.0355
  192SLPC  H13B22186   2.137   3.420   6.497 -2.9191 -1.2510  0.0293
  192SLPC  H13C22187   2.134   3.601   6.515 -2.1725  1.4313  0.7984
  192SLPC   C1422188   1.886   3.377   6.480 -0.2647 -0.0983 -0.9587
  192SLPC  H14A22189   1.782   3.389   6.451 -0.9734  0.8860  1.6234
  192SLPC  H14B22190   1.934   3.288   6.443 -0.5759 -1.3849  1.4977
  192SLPC  H14C22191   1.881   3.358   6.587 -1.3952 -0.6129 -1.0909
  192SLPC   C1522192   2.014   3.511   6.314 -0.1539  0.2755 -1.1050
  192SLPC  H15A22193   1.935   3.512   6.241 -0.2223  0.8350 -1.0252
  192SLPC  H15B22194   2.075   3.599   6.305  0.1607  0.0172 -1.5325
  192SLPC  H15C22195   2.083   3.431   6.291  1.1036  1.6896 -2.3722
  192SLPC   C1222196   1.880   3.630   6.487  0.1718 -0.7384 -0.4681
  192SLPC  H12A22197   1.943   3.717   6.489  1.6655 -1.7310 -1.7223
  192SLPC  H12B22198   1.842   3.624   6.588  3.6225  0.9648  1.0610
  192SLPC   C1122199   1.760   3.660   6.385  0.1691 -0.2551  0.1007
  192SLPC  H11A22200   1.796   3.651   6.280  1.0361 -0.7643  0.4253
  192SLPC  H11B22201   1.730   3.766   6.390 -0.7378 -0.5467  1.1428
  192SLPC     P22202   1.518   3.622   6.484  0.3994 -0.2608  0.1468
  192SLPC   O1322203   1.418   3.674   6.388 -0.0686 -0.4567  0.0597
  192SLPC   O1422204   1.475   3.508   6.566 -0.2820 -0.2999 -0.1255
  192SLPC   O1222205   1.649   3.571   6.408  0.0554 -0.1732 -0.6613
  192SLPC   O1122206   1.568   3.738   6.582  0.2644 -0.1767  0.2645
  192SLPC    C122207   1.529   3.872   6.555  0.2466 -0.2784  0.2545
  192SLPC    HA22208   1.615   3.933   6.590  1.0761 -0.1067 -1.9111
  192SLPC    HB22209   1.529   3.901   6.447  1.6843 -0.0088  0.2969
  192SLPC    C222210   1.411   3.928   6.643  0.4106 -0.0202  0.7991
  192SLPC    HS22211   1.404   4.038   6.638 -1.7199 -0.1660 -1.0495
  192SLPC   O2122212   1.423   3.887   6.786 -0.9521  0.1135  0.4395
  192SLPC   C2122213   1.528   3.948   6.851  0.3427  1.1995  0.3476
  192SLPC   O2222214   1.597   4.037   6.805 -0.4489  0.4745 -0.0215
  192SLPC   C2222215   1.545   3.893   6.994  0.2626 -0.5665 -0.7618
  192SLPC   H2R22216   1.445   3.887   7.041  0.1677  0.4458 -0.8131
  192SLPC   H2S22217   1.598   3.795   6.997 -0.2977 -0.9185  3.2106
  192SLPC    C322218   1.280   3.880   6.594 -0.1002  0.0160 -0.8391
  192SLPC    HX22219   1.275   3.770   6.601 -0.1816 -0.0925 -2.2695
  192SLPC    HY22220   1.270   3.894   6.484  1.1540  0.2194 -0.9417
  192SLPC   O3122221   1.172   3.943   6.667  0.2071  0.0603  0.2082
  192SLPC   C3122222   1.142   4.065   6.619  0.3683 -0.0222  0.0428
  192SLPC   O3222223   1.194   4.116   6.521  0.2703  0.0546 -0.7063
  192SLPC   C3222224   1.030   4.134   6.692 -0.0908  0.0248  0.3575
  192SLPC   H2X22225   0.973   4.073   6.764  0.2508  0.2658  0.8410
  192SLPC   H2Y22226   0.967   4.160   6.604 -0.4636  1.6144  1.0497
  192SLPC   C2322227   1.623   3.988   7.089  0.4603  0.1837 -0.8176
  192SLPC   H3R22228   1.566   4.081   7.111 -1.4714 -1.1609  0.1989
  192SLPC   H3S22229   1.719   4.018   7.041  0.8914 -0.3746 -0.3215
  192SLPC   C2422230   1.651   3.899   7.220  0.0599  0.4825 -0.1918
  192SLPC   H4R22231   1.736   3.827   7.214  0.9418  1.4519  0.4534
  192SLPC   H4S22232   1.568   3.833   7.254 -0.7249  1.9594  0.8631
  192SLPC   C2522233   1.698   3.997   7.327 -0.5354  0.1099 -0.2622
  192SLPC   H5R22234   1.610   4.055   7.363 -0.5533  0.3125 -0.6363
  192SLPC   H5S22235   1.772   4.070   7.289  1.2653 -1.2117  0.5960
  192SLPC   C2622236   1.757   3.930   7.447 -0.0498 -0.7923 -0.0418
  192SLPC   H6R22237   1.867   3.943   7.459 -0.1861 -0.2282  0.6793
  192SLPC   H6S22238   1.749   3.820   7.434 -0.8468 -0.7410 -0.0209
  192SLPC   C2722239   1.704   3.986   7.578  0.1266  0.1430  0.5244
  192SLPC   H7R22240   1.594   3.979   7.571 -0.1180  2.1514  1.6923
  192SLPC   H7S22241   1.728   4.094   7.591 -2.8036  1.0056 -0.4757
  192SLPC   C2822242   1.747   3.892   7.699  1.1419 -0.1072 -0.1244
  192SLPC   H8R22243   1.711   3.793   7.664  0.0873  1.1478 -2.9798
  192SLPC   H8S22244   1.685   3.906   7.790 -0.2043 -0.4735 -0.9561
  192SLPC   C2922245   1.895   3.892   7.728  0.9043  0.0999 -0.1558
  192SLPC   H9R22246   1.965   3.866   7.647  1.8280  0.9312  0.3545
  192SLPC  C21022247   1.951   3.918   7.846  0.4913 -0.1901  1.4456
  192SLPC  H10R22248   2.059   3.904   7.865  1.0870  1.7909 -0.0899
  192SLPC  C21122249   1.859   3.967   7.956 -0.2563 -0.0779 -1.0078
  192SLPC  H11R22250   1.819   3.884   8.018  0.0686 -0.0601 -0.7758
  192SLPC  H11S22251   1.770   4.028   7.930 -2.0967 -1.4844  1.5582
  192SLPC  C21222252   1.947   4.055   8.044 -0.6331 -0.3891  0.2572
  192SLPC  H12R22253   2.001   4.130   7.984  0.3670 -0.0363  1.5631
  192SLPC  C21322254   1.977   4.044   8.178 -0.4533  0.5980  0.0988
  192SLPC  H13R22255   2.029   4.128   8.225  0.7114  0.1467 -0.3603
  192SLPC  C21422256   1.923   3.930   8.262 -0.4012 -0.7964 -0.7760
  192SLPC  H14R22257   2.001   3.891   8.330 -1.0594 -0.1334  0.3927
  192SLPC  H14S22258   1.915   3.835   8.205  0.4566 -1.0798 -0.4314
  192SLPC  C21522259   1.800   3.973   8.344 -0.0470 -0.3676  0.3415
  192SLPC  H15R22260   1.711   3.965   8.278 -1.9374 -3.2974  2.9918
  192SLPC  H15S22261   1.822   4.077   8.377  1.1783 -0.4928 -0.0300
  192SLPC  C21622262   1.770   3.896   8.474  0.3723  0.4616 -0.0537
  192SLPC  H16R22263   1.678   3.940   8.517  1.9244  3.6100  0.4210
  192SLPC  H16S22264   1.852   3.919   8.546 -0.8025  0.4490  1.3190
  192SLPC  C21722265   1.763   3.745   8.462 -0.1715 -0.7825  0.1809
  192SLPC  H17R22266   1.713   3.724   8.365 -0.5933 -0.0974  0.2490
  192SLPC  H17S22267   1.867   3.706   8.463 -0.4328 -1.4802  0.7212
  192SLPC  C21822268   1.689   3.678   8.577  0.0382  0.7370  0.3158
  192SLPC  H18R22269   1.583   3.712   8.574 -0.0468  0.3870 -0.9745
  192SLPC  H18S22270   1.738   3.694   8.676  4.0117 -0.5631 -1.2380
  192SLPC  H18T22271   1.681   3.570   8.552  0.4081  0.4122  1.5167
  192SLPC   C3322272   1.078   4.267   6.749 -0.3056  0.2236  0.7975
  192SLPC   H3X22273   0.995   4.337   6.727  0.3644  0.6318 -0.4760
  192SLPC   H3Y22274   1.175   4.298   6.705  0.7471 -2.5444  0.9359
  192SLPC   C3422275   1.094   4.247   6.905 -0.5592  0.0590 -0.2524
  192SLPC   H4X22276   0.999   4.206   6.947 -2.0804  2.8022 -0.7909
  192SLPC   H4Y22277   1.108   4.344   6.957  0.3518 -0.3684  0.3153
  192SLPC   C3522278   1.213   4.154   6.949  0.8939  0.0994 -0.1271
  192SLPC   H5X22279   1.308   4.170   6.893  0.8096  0.5291 -0.1494
  192SLPC   H5Y22280   1.188   4.047   6.930 -0.9808  0.7014 -1.3805
  192SLPC   C3622281   1.233   4.170   7.105  0.9479  0.2760  0.4519
  192SLPC   H6X22282   1.254   4.276   7.133  1.0879  0.3157  0.1971
  192SLPC   H6Y22283   1.336   4.133   7.123  0.4211 -0.1612  3.0247
  192SLPC   C3722284   1.129   4.092   7.188  0.6702  0.6067 -1.0513
  192SLPC   H7X22285   1.097   3.997   7.140  0.1261  1.2774 -2.0456
  192SLPC   H7Y22286   1.032   4.146   7.189 -1.2144 -2.4091  2.0940
  192SLPC   C3822287   1.186   4.064   7.329  0.0927  0.2504  0.0350
  192SLPC   H8X22288   1.297   4.052   7.332  0.2677  1.5866 -0.4596
  192SLPC   H8Y22289   1.139   3.969   7.364  0.5541  0.8594  2.5231
  192SLPC   C3922290   1.154   4.185   7.422  0.3616 -0.2471 -0.6173
  192SLPC   H9X22291   1.049   4.165   7.452  0.2798  0.0871 -0.6721
  192SLPC   H9Y22292   1.158   4.283   7.370  0.9655  0.4902  0.7652
  192SLPC  C31022293   1.246   4.192   7.552 -0.6303  0.8528  0.4602
  192SLPC  H10X22294   1.348   4.199   7.508 -1.8616 -0.0824 -2.8344
  192SLPC  H10Y22295   1.237   4.098   7.609  0.7752  0.1936 -0.3419
  192SLPC  C31122296   1.221   4.317   7.645 -0.2225 -0.0406 -0.5663
  192SLPC  H11X22297   1.118   4.308   7.686  0.2730 -1.3540  0.4743
  192SLPC  H11Y22298   1.219   4.403   7.575 -2.7754  0.4862  0.0210
  192SLPC  C31222299   1.325   4.344   7.764  0.0275 -0.5653 -0.1249
  192SLPC  H12X22300   1.329   4.451   7.794  0.9368 -0.5351 -0.3271
  192SLPC  H12Y22301   1.429   4.323   7.731  0.1629 -1.1378  0.6299
  192SLPC  C31322302   1.309   4.255   7.892  0.0486  0.5163 -0.0047
  192SLPC  H13X22303   1.279   4.153   7.860 -2.4820  1.0856  0.3531
  192SLPC  H13Y22304   1.223   4.289   7.953 -1.4707 -0.7941 -1.3248
  192SLPC  C31422305   1.435   4.250   7.979  0.0376 -0.1805  0.1317
  192SLPC  H14X22306   1.456   4.349   8.025  2.1000  0.1297 -1.2977
  192SLPC  H14Y22307   1.528   4.235   7.919 -0.0462  1.3688 -0.4436
  192SLPC  C31522308   1.425   4.144   8.082  0.4165  0.3600  0.0421
  192SLPC  H15X22309   1.324   4.142   8.129  0.7203 -0.7091  0.6950
  192SLPC  H15Y22310   1.497   4.154   8.166 -0.5682 -2.4147  1.3532
  192SLPC  C31622311   1.450   4.000   8.037  0.0904  0.6769 -0.4337
  192SLPC  H16X22312   1.552   4.001   7.994  0.6064 -1.3184  0.6192
  192SLPC  H16Y22313   1.375   3.975   7.959  0.9655  0.0318 -1.0794
  192SLPC  C31722314   1.429   3.893   8.154 -0.2292 -0.7985 -0.4721
  192SLPC  H17X22315   1.321   3.899   8.181  0.4950  0.3977  2.5163
  192SLPC  H17Y22316   1.484   3.927   8.244 -2.3152  1.2034  0.1623
  192SLPC  C31822317   1.466   3.752   8.125  0.2079  0.3152  0.0250
  192SLPC  H18X22318   1.475   3.679   8.207 -1.0296  0.9290  0.7297
  192SLPC  H18Y22319   1.561   3.757   8.067  0.5984 -3.1491  0.1983
  192SLPC  H18Z22320   1.386   3.707   8.063  0.4692 -0.8997  0.5571
  193SOD    SOD22321   4.414   1.590  12.179 -0.1149 -0.0769 -0.2833
  194SOD    SOD22322   0.203   2.444  13.737  0.4421  0.2907 -0.0581
  195SOD    SOD22323   4.858   1.452   5.952  0.1934  0.0639  0.4441
  196SOD    SOD22324   6.293   1.334   1.280  0.1591  0.2299 -0.4037
  197SOD    SOD22325   4.987   0.535   6.501  0.1713 -0.1563  0.5573
  198SOD    SOD22326   6.276   0.351  12.607 -0.2902 -0.6398 -0.1341
  199SOD    SOD22327   4.618   0.839   2.263 -0.1868 -0.0871 -0.0764
  200SOD    SOD22328   6.322   0.087  10.749 -0.3829  0.6031  0.2703
  201SOD    SOD22329   6.288   3.555  16.035 -0.2283  0.0269  0.4451
  202SOD    SOD22330   3.090   0.233  14.952  0.3287 -0.3657  0.5891
  203SOD    SOD22331   6.275   6.181  14.091 -0.2619 -0.3425 -0.1333
  204SOD    SOD22332   1.776   2.831  12.444 -0.1407 -0.3744 -0.1439
  205SOD    SOD22333   1.177   4.442  11.619  0.0391  0.0674  0.2561
  206SOD    SOD22334   3.253   5.826   2.320 -0.2707  0.1561 -0.0361
  207SOD    SOD22335   2.327   0.331   4.661 -0.0827  0.7579  0.0925
  208SOD    SOD22336   1.618   1.556   2.590  0.5049 -0.0943  0.4626
  209SOD    SOD22337   3.033   6.131   6.368 -0.2104 -0.0453  0.0624
  210SOD    SOD22338   6.148   4.149   5.875  0.5514 -0.1099 -0.0358
  211SOD    SOD22339   2.169   6.852   2.708 -0.0463 -0.0121  0.5071
  212SOD    SOD22340   1.221   1.720  14.162  0.6329 -0.0995  0.0714
  213SOD    SOD22341   2.449   5.849  16.758 -0.5640  0.5509  0.2059
  214SOD    SOD22342   5.349   3.829  13.807  0.1751 -0.0417 -0.2589
  215SOD    SOD22343   6.828   2.216   5.569  0.0204  0.2951 -0.1354
  216SOD    SOD22344   1.129   3.745   3.133  0.4719 -0.4819 -0.1958
  217SOD    SOD22345   2.912   0.762  14.740 -0.0778 -0.1707  0.2413
  218SOD    SOD22346   4.868   1.479   1.785 -0.2777 -0.3007 -0.2360
  219SOD    SOD22347   5.136   0.797  15.001  0.2189  0.0846  0.1073
  220SOD    SOD22348   5.315   1.982   3.610 -0.1605  0.0007  0.1414
  221SOD    SOD22349   3.169   1.860   4.785  0.0007 -0.2333  0.2259
  222SOD    SOD22350   3.870   2.411   1.953 -0.0804  0.5540  0.0300
  223SOD    SOD22351   6.241   4.150   5.174 -0.8060 -0.4833 -0.4324
  224SOD    SOD22352   1.797   1.840   5.151 -0.3735 -0.1985  0.1785
  225SOD    SOD22353   0.599   4.774   3.400  0.1298 -0.1650  0.0035
  226SOD    SOD22354   1.236   2.036   4.167 -0.1270 -0.0020 -0.1179
  227SOD    SOD22355   6.173   1.608   5.219 -0.3139  0.2356  0.3144
  228SOD    SOD22356   4.637   4.810   2.554 -0.0641  0.3091  0.0035
  229SOD    SOD22357   4.873   3.404  16.873 -0.2696 -0.9202  0.4519
  230SOD    SOD22358   2.565   0.144   0.012  0.2060 -0.5248 -0.2963
  231SOD    SOD22359   2.570   5.051   1.868 -0.4628 -0.0892  0.3953
  232SOD    SOD22360   0.127   4.628   1.920  0.2519  0.2786  0.1914
  233SOD    SOD22361   3.961   0.252  15.285 -0.3055 -0.1564 -0.5986
  234SOD    SOD22362   3.619   3.845  16.263 -0.5769 -0.5428  0.2487
  235SOD    SOD22363   4.955   4.714   2.756 -0.4697 -0.0269  0.5117
  236SOD    SOD22364   4.916   4.739  16.532 -0.1307  0.3429 -0.1393
  237SOD    SOD22365   0.587   0.318  14.513  0.0425  0.3791  0.2245
  238SOD    SOD22366   6.067   0.872  15.660 -0.3389  0.5915  0.2508
  239SOD    SOD22367   1.507   1.386  10.568  0.3039  0.4504 -0.7186
  240SOD    SOD22368   3.668   2.705  10.638 -0.3951 -0.0232  0.4236
  241SOD    SOD22369   5.416   0.998   2.462  0.1670  0.0371 -0.4760
  242SOD    SOD22370   1.902   0.689   3.774 -0.2719  0.1320 -0.3261
  243SOD    SOD22371   6.006   2.475  12.298 -0.4578  0.2510 -0.7051
  244SOD    SOD22372   2.876   0.915  11.376  0.1425 -0.4899 -0.3154
  245SOD    SOD22373   0.171   4.862  11.026  0.1685 -0.6268 -0.0285
  246SOD    SOD22374   1.836   4.232   5.058 -0.0393  0.1768 -0.1680
  247SOD    SOD22375   3.299   4.064   4.400  0.0721  0.6261 -0.6887
  248SOD    SOD22376   4.908   1.215  11.171  0.8008 -0.2842 -0.3221
  249SOD    SOD22377   2.716   3.444   2.343  0.0482 -0.0458  0.0338
  250SOD    SOD22378   2.066   0.722   6.341 -0.0382 -0.0264 -0.5008
  251SOD    SOD22379   1.590   2.527  10.318 -0.2766  0.1129  0.0449
  252SOD    SOD22380   0.209   2.158   4.843 -0.1572 -0.0349 -0.0425
  253SOD    SOD22381   5.933   0.692   5.086 -0.1627  0.5148  0.3940
  254SOD    SOD22382   3.368   6.661   2.334  0.6897  0.0439  0.4307
  255SOD    SOD22383   6.490   5.036  12.220  0.4537  0.1060  0.2506
  256SOD    SOD22384   6.566   3.299   6.172 -0.4817  0.2379  0.1493
  257SOD    SOD22385   4.614   5.459   1.481 -0.1514  0.7279 -0.3385
  258SOD    SOD22386   5.594   6.775  11.508 -0.3447 -0.2546 -0.5337
  259SOD    SOD22387   1.468   5.151  14.549 -0.1679 -0.5775  0.0046
  260SOD    SOD22388   5.594   2.011  15.129  0.3135 -0.6332 -0.3634
  261SOD    SOD22389   0.436   6.134   5.617  0.0530  0.7811  0.1528
  262SOD    SOD22390   1.810   3.048   5.941  0.2960  0.3363 -0.5683
  263SOD    SOD22391   2.776   4.716   6.338 -0.1601  0.2420  0.1007
  264SOD    SOD22392   2.039   2.622   5.437 -0.1468 -0.1711  0.1640
  265SOD    SOD22393   3.748   3.359  11.471  0.2060 -0.1675 -0.3502
  266CLA    CLA22394   3.434   6.020  14.268 -0.3978  0.1545  0.1150
  267CLA    CLA22395   3.859   5.452   2.357 -0.1056  0.4552  0.0190
  268CLA    CLA22396   4.618   1.200   3.088  0.1948 -0.1225 -0.2138
  269CLA    CLA22397   0.242   6.619  13.728 -0.2967 -0.8637 -0.1973
  270CLA    CLA22398   4.620   1.291   5.892  0.0504 -0.2904 -0.1367
  271CLA    CLA22399   4.750   1.564  14.842  0.1347 -0.0062 -0.6693
  272CLA    CLA22400   4.311   3.988   2.844  0.9000  0.4559  0.3054
  273CLA    CLA22401   2.453   1.345  14.819 -0.0022 -0.5399 -0.3012
  274CLA    CLA22402   2.894   0.078  14.798  0.1206 -0.0325  0.1910
  275CLA    CLA22403   6.011   2.581  14.274  0.1511  0.6785  0.0933
  276CLA    CLA22404   1.975   3.013  16.993  0.3180  0.0236 -0.3494
  277CLA    CLA22405   3.604   5.145  14.311 -0.4798  0.0950 -0.1418
  278CLA    CLA22406   2.649   2.469   2.855  0.1235  0.0427  0.4082
  279CLA    CLA22407   3.328   0.256   0.182  0.3693  0.3549  0.2047
  280CLA    CLA22408   1.920   4.014   4.901  0.0133 -0.6325  0.1982
  281CLA    CLA22409   4.635   5.839   1.979  0.5091  0.2798 -0.0089
  282CLA    CLA22410   1.121   4.786  16.668 -0.3477 -0.1646  0.0957
  283CLA    CLA22411   1.394   6.144  12.992 -0.1048  0.1170  0.1709
  284CLA    CLA22412   1.409   4.741  16.313  0.0462  0.3855  0.5649
  285CLA    CLA22413   2.394   1.888   4.091 -0.2681  0.0063  0.1206
  286CLA    CLA22414   6.229   2.621   4.690 -0.1207  0.2813  0.0130
  287CLA    CLA22415   5.242   5.410  17.140 -0.2225  0.1663 -0.2358
  288CLA    CLA22416   2.417   1.100   3.636  0.0130 -0.4450 -0.2045
  289CLA    CLA22417   6.350   2.875  17.092 -0.0336 -0.0495  0.1148
  290CLA    CLA22418   2.754   0.442   2.141 -0.3121 -0.2314  0.0023
  291CLA    CLA22419   2.263   0.433   2.792  0.2815  0.0260 -0.0248
  292CLA    CLA22420   4.018   5.598   5.370 -0.3340 -0.0139  0.1267
  293CLA    CLA22421   3.021   3.589   1.867 -0.1261  0.2233  0.0926
  294CLA    CLA22422   0.750   1.941   4.328  0.1796  0.5256  0.0361
  295CLA    CLA22423   0.053   1.828   2.267  0.1379  0.3291 -0.1455
  296CLA    CLA22424   4.173   6.417   4.788  0.5071  0.3728  0.3085
  297CLA    CLA22425   2.639   0.483  15.100  0.3764  0.3398  0.4777
  298CLA    CLA22426   0.616   5.520   0.637 -0.0415 -0.3366 -0.2915
  299CLA    CLA22427   5.385   0.565  11.732 -0.0820  0.3815 -0.0291
  300CLA    CLA22428   2.195   4.585   3.478 -0.1004 -0.1646 -0.4358
  301CLA    CLA22429   2.537   4.108  12.291  0.1856  0.2325  0.0306
  302CLA    CLA22430   0.448   2.660  16.485 -0.1207  0.0629  0.0184
  303CLA    CLA22431   1.102   1.658  13.736  0.0454  0.1461  0.2824
  304CLA    CLA22432   2.575   6.126  16.257  0.0618 -0.0130  0.1119
  305CLA    CLA22433   2.358   0.256  11.317 -0.4162 -0.0091  0.2566
  306CLA    CLA22434   4.315   3.093  16.288 -0.1509  0.3632  0.1151
  307CLA    CLA22435   5.254   5.026   2.634 -0.1553  0.2130 -0.0271
  308CLA    CLA22436   0.958   5.830   4.788  0.1065  0.1495  0.2349
  309CLA    CLA22437   5.985   2.017   5.268  0.0435 -0.0153 -0.2300
  310CLA    CLA22438   4.030   6.376   0.582  0.2118 -0.1032  0.5872
  311CLA    CLA22439   5.123   0.300  17.068  0.2094  0.0125 -0.4642
  312CLA    CLA22440   6.353   5.571   3.907  0.2978 -0.2005 -0.4357
  313CLA    CLA22441   6.496   2.004   5.390 -0.4929 -0.3195 -0.3081
  314CLA    CLA22442   0.903   0.035  11.375  0.2660  0.3079  0.4390
  315CLA    CLA22443   2.808   0.551  11.993  0.1953 -0.0977 -0.3732
  316CLA    CLA22444   1.555   2.744  11.789 -0.4930 -0.4466 -0.0310
  317CLA    CLA22445   2.219   4.997   2.256 -0.0350 -0.3056 -0.2993
  318CLA    CLA22446   2.010   0.328   1.007  0.2810 -0.0342 -0.0573
  319TIP3   OH222447   3.877   3.198  14.973  0.9010  0.0982  0.3602
  319TIP3    H122448   3.905   3.107  14.966 -0.1214 -0.1087 -1.6799
  319TIP3    H222449   3.782   3.196  14.956  0.8616  1.5466  0.2491
  320TIP3   OH222450   0.509   0.910  14.650 -0.4891 -0.5313 -0.0887
  320TIP3    H122451   0.510   0.846  14.578  0.7114 -0.9119  0.2431
  320TIP3    H222452   0.453   0.981  14.618  1.3902  0.1446 -2.1406
  321TIP3   OH222453   5.218   3.392  14.929 -0.1202 -0.2191 -0.1158
  321TIP3    H122454   5.213   3.424  15.018 -1.5057  0.8743 -0.5417
  321TIP3    H222455   5.185   3.464  14.875  0.2485 -1.0099 -1.4621
  322TIP3   OH222456   3.535   0.763   2.910 -0.6898 -0.4577  0.8457
  322TIP3    H122457   3.526   0.828   2.979 -0.7846  0.4651  0.0003
  322TIP3    H222458   3.606   0.798   2.854 -2.4779  0.3169 -1.0751
  323TIP3   OH222459   1.105   6.421   4.641  0.0485 -0.4215 -0.2035
  323TIP3    H122460   1.071   6.510   4.636  1.2252  0.1019  0.4755
  323TIP3    H222461   1.036   6.370   4.684 -0.5043  0.2394 -0.3054
  324TIP3   OH222462   1.434   5.542   2.860  0.0015  0.2573  0.7855
  324TIP3    H122463   1.527   5.558   2.871 -0.0320  0.2132  1.1285
  324TIP3    H222464   1.391   5.601   2.922 -0.2432  0.9919 -0.0673
  325TIP3   OH222465   4.989   0.926  10.761 -0.0811 -0.1563 -0.0254
  325TIP3    H122466   5.058   0.869  10.726 -0.7050 -1.1791  0.3828
  325TIP3    H222467   4.907   0.883  10.737 -0.6049  1.0977 -0.5927
  326TIP3   OH222468   0.591   4.963   2.956 -0.1926 -0.5067 -0.2333
  326TIP3    H122469   0.673   4.978   2.908  0.0700 -0.0545  0.3345
  326TIP3    H222470   0.549   4.891   2.910 -0.5312  0.6787 -1.8692
  327TIP3   OH222471   0.597   5.605  15.718 -0.2542  0.6201  0.3119
  327TIP3    H122472   0.548   5.624  15.638 -3.4430  1.1881  2.2252
  327TIP3    H222473   0.581   5.681  15.774 -0.0809 -0.7449  2.3128
  328TIP3   OH222474   4.255   6.832   4.654 -0.3095 -0.5413  0.0847
  328TIP3    H122475   4.204   6.869   4.581  0.0063 -0.2723 -0.0013
  328TIP3    H222476   4.227   6.882   4.730  1.3148  1.0320 -0.2997
  329TIP3   OH222477   5.454   5.360  11.507  0.7681  0.4798  0.5667
  329TIP3    H122478   5.365   5.330  11.529  0.7450  0.0099 -0.1427
  329TIP3    H222479   5.493   5.381  11.592  0.2057  0.0567  0.9437
  330TIP3   OH222480   3.705   5.913   0.756  0.5676 -0.3713 -0.2885
  330TIP3    H122481   3.613   5.908   0.731  0.0739 -1.7523  1.5537
  330TIP3    H222482   3.718   6.005   0.781 -0.3368 -0.1897 -0.4559
  331TIP3   OH222483   6.688   5.063  16.484 -0.0424  0.3904  0.0680
  331TIP3    H122484   6.771   5.042  16.527 -1.5971  1.2470  3.9428
  331TIP3    H222485   6.694   5.156  16.463 -0.4526  0.8106  1.6754
  332TIP3   OH222486   1.946   6.393   0.146 -0.2198  0.0649 -0.0819
  332TIP3    H122487   1.933   6.303   0.175 -0.2840 -0.1539 -0.7778
  332TIP3    H222488   2.039   6.410   0.161  0.1125 -0.5994 -1.2608
  333TIP3   OH222489   2.864   0.899   5.485 -0.3416  0.4056  0.4920
  333TIP3    H122490   2.840   0.985   5.521  0.5068  1.3458 -1.0885
  333TIP3    H222491   2.959   0.899   5.486 -0.3363 -0.7142  0.8719
  334TIP3   OH222492   2.599   1.175   1.984  0.1198  0.7529 -0.4884
  334TIP3    H122493   2.634   1.086   1.979  0.0127  0.7604 -1.6112
  334TIP3    H222494   2.616   1.212   1.898 -1.2402  1.2889 -0.5393
  335TIP3   OH222495   2.883   5.625   1.245 -0.6196 -0.4270  0.4720
  335TIP3    H122496   2.905   5.532   1.236  0.2588 -0.2146  0.3989
  335TIP3    H222497   2.817   5.640   1.177 -1.8341 -1.3159  1.3890
  336TIP3   OH222498   1.020   1.853  15.063 -0.2000  0.2124 -0.2632
  336TIP3    H122499   0.941   1.879  15.111 -0.8678  0.9267 -1.6861
  336TIP3    H222500   1.090   1.905  15.103 -0.0076 -1.8040  2.3056
  337TIP3   OH222501   2.339   3.790   1.553  0.4711 -0.1121  0.0182
  337TIP3    H122502   2.303   3.704   1.577 -3.6062  1.9541  2.4550
  337TIP3    H222503   2.275   3.826   1.492  0.7121  2.0919  0.9763
  338TIP3   OH222504   2.712   0.974  12.737 -0.0713 -0.2652 -0.3287
  338TIP3    H122505   2.758   0.988  12.820  0.6022  0.0658 -0.7504
  338TIP3    H222506   2.675   0.886  12.746  0.5254 -0.4882  0.0795
  339TIP3   OH222507   2.115   5.332  16.106 -1.0634 -0.0775  0.0448
  339TIP3    H122508   2.121   5.325  16.202  0.9047 -2.0647 -0.1225
  339TIP3    H222509   2.086   5.246  16.077  0.3419 -0.1768 -1.2166
  340TIP3   OH222510   1.192   6.433   6.730  0.0817  0.2766  0.3440
  340TIP3    H122511   1.240   6.395   6.657 -0.5825 -1.1805  0.6370
  340TIP3    H222512   1.143   6.506   6.691 -0.0213 -0.2839 -0.6017
  341TIP3   OH222513   6.128   3.152  11.355 -0.1040 -0.1753  0.0744
  341TIP3    H122514   6.148   3.080  11.295  1.3828 -0.0601  0.3850
  341TIP3    H222515   6.212   3.197  11.367 -0.6567  0.6099  1.1775
  342TIP3   OH222516   2.798   6.184   1.625  0.3805 -0.5243 -0.3176
  342TIP3    H122517   2.788   6.275   1.654  0.9954 -0.2167 -1.0194
  342TIP3    H222518   2.807   6.191   1.530  2.6669 -1.1171 -0.2021
  343TIP3   OH222519   1.448   4.003   5.195 -0.9865  0.2604 -0.7466
  343TIP3    H122520   1.474   3.911   5.184  0.0911  0.5542 -0.7436
  343TIP3    H222521   1.397   4.004   5.276 -1.7023 -0.4625 -1.1681
  344TIP3   OH222522   5.993   2.916  13.549 -0.2838 -0.1489 -0.4262
  344TIP3    H122523   5.902   2.907  13.521 -0.5074  0.6414  0.0080
  344TIP3    H222524   5.988   2.932  13.643  0.3664 -1.1121 -0.2134
  345TIP3   OH222525   3.169   5.880  13.389 -0.3554  0.1443 -0.1696
  345TIP3    H122526   3.128   5.960  13.356 -1.0772 -0.0159  0.3130
  345TIP3    H222527   3.254   5.909  13.423  0.1120  0.4155 -1.5011
  346TIP3   OH222528   1.451   6.218   3.870  0.3143 -0.1250  0.2873
  346TIP3    H122529   1.458   6.196   3.777 -0.6663  0.8954 -0.0460
  346TIP3    H222530   1.361   6.194   3.893 -0.7285  3.0737 -0.0212
  347TIP3   OH222531   4.189   2.145   0.676 -0.3307 -0.0857 -0.5057
  347TIP3    H122532   4.266   2.157   0.733 -0.7666  1.5443 -0.1987
  347TIP3    H222533   4.131   2.088   0.726  0.1568 -0.3196 -0.2005
  348TIP3   OH222534   2.776   1.283  16.045 -0.8401  0.4874  0.1177
  348TIP3    H122535   2.798   1.287  15.952 -0.2723 -1.5990  0.1244
  348TIP3    H222536   2.820   1.360  16.082 -0.3655  0.8825 -1.1954
  349TIP3   OH222537   0.253   6.629  15.918  0.1284 -0.3260 -0.0306
  349TIP3    H122538   0.292   6.700  15.969 -0.2555  0.8986 -1.3675
  349TIP3    H222539   0.161   6.627  15.945  0.1577 -0.3507  0.0647
  350TIP3   OH222540   2.624   1.702  10.182  0.7942  0.2111 -0.1084
  350TIP3    H122541   2.662   1.790  10.192  0.5126  0.1913  1.5050
  350TIP3    H222542   2.530   1.715  10.200  0.9997 -0.6476  1.8498
  351TIP3   OH222543   6.307   6.343   4.112 -0.1864 -0.5243  0.2820
  351TIP3    H122544   6.334   6.289   4.038  1.5829  0.2439  0.3070
  351TIP3    H222545   6.329   6.432   4.085  2.5261 -0.3960  2.4683
  352TIP3   OH222546   1.128   5.942   5.631 -0.0310 -0.2752 -0.4947
  352TIP3    H122547   1.060   5.876   5.620  0.3281 -0.8023  0.2799
  352TIP3    H222548   1.209   5.896   5.610  0.0807  0.3999 -1.6028
  353TIP3   OH222549   1.919   4.552   1.938 -0.2555 -0.2594  0.0553
  353TIP3    H122550   1.917   4.531   1.845 -1.1230 -1.3680  0.3108
  353TIP3    H222551   1.872   4.636   1.945  0.1300  0.0086 -0.5394
  354TIP3   OH222552   4.855   4.411   4.009 -0.2903 -0.7152  0.6276
  354TIP3    H122553   4.849   4.494   4.056  0.6614 -1.0519  1.3694
  354TIP3    H222554   4.894   4.351   4.072 -0.3706 -1.5630 -0.1209
  355TIP3   OH222555   5.270   4.915   1.768 -0.0237 -1.0564 -0.4881
  355TIP3    H122556   5.208   4.852   1.730 -1.5043  0.1513 -0.2069
  355TIP3    H222557   5.239   4.928   1.858  0.6769 -0.4764 -0.3241
  356TIP3   OH222558   3.089   1.224  10.480 -0.8476  1.0228  0.1047
  356TIP3    H122559   3.005   1.179  10.492 -1.3933  1.0835 -2.7323
  356TIP3    H222560   3.066   1.317  10.478 -0.5046  1.1216  0.6064
  357TIP3   OH222561   5.622   2.916  11.633  0.3068  0.1413  0.1854
  357TIP3    H122562   5.617   2.832  11.587 -0.2179  0.2592  0.0281
  357TIP3    H222563   5.545   2.965  11.604  0.9406  0.9302 -0.2093
  358TIP3   OH222564   6.850   2.535  12.615 -0.2817 -0.3559 -0.0718
  358TIP3    H122565   6.836   2.573  12.528  0.2571  0.1782  0.0672
  358TIP3    H222566   6.859   2.610  12.673 -1.4255 -0.7104  0.5915
  359TIP3   OH222567   0.567   6.296   4.106  0.2288  0.4022  0.1157
  359TIP3    H122568   0.483   6.331   4.077 -0.1981 -0.8645 -0.2862
  359TIP3    H222569   0.630   6.366   4.089 -0.2063  0.2251 -2.7384
  360TIP3   OH222570   4.206   5.405   0.452 -0.7173  0.1296  0.5620
  360TIP3    H122571   4.201   5.315   0.418 -1.0352  0.2371  0.3210
  360TIP3    H222572   4.127   5.447   0.420 -0.0544  0.8081 -0.2184
  361TIP3   OH222573   3.275   3.697  14.860  0.0048 -0.7213 -0.2466
  361TIP3    H122574   3.218   3.626  14.888  0.7651 -0.5267  1.9937
  361TIP3    H222575   3.273   3.760  14.932  1.2409  0.3800 -1.1195
  362TIP3   OH222576   4.282   4.512  16.847  0.0458  0.3965  0.4162
  362TIP3    H122577   4.260   4.432  16.799  1.1684  1.2062 -1.5800
  362TIP3    H222578   4.377   4.516  16.844  0.1463  0.6019  2.6356
  363TIP3   OH222579   5.508   0.795   2.827 -0.3392 -0.1847 -0.2619
  363TIP3    H122580   5.469   0.801   2.740  0.2695 -1.5988 -0.6692
  363TIP3    H222581   5.438   0.761   2.882  0.0487 -2.0177 -0.8350
  364TIP3   OH222582   0.669   4.996  16.039 -0.6393  0.6895 -0.1903
  364TIP3    H122583   0.755   4.992  16.081 -0.1126  3.5942 -0.7273
  364TIP3    H222584   0.664   5.086  16.005 -3.6445  0.4183 -0.7199
  365TIP3   OH222585   3.664   6.136  15.886  0.3747 -0.4569  0.1873
  365TIP3    H122586   3.634   6.179  15.806  0.7884 -0.9854 -0.2640
  365TIP3    H222587   3.735   6.078  15.857 -0.4517 -1.7892  0.6978
  366TIP3   OH222588   1.108   4.648   3.612  0.0523  0.7606  0.5623
  366TIP3    H122589   1.089   4.670   3.521  0.4257 -0.0765  0.2693
  366TIP3    H222590   1.029   4.672   3.660 -1.1423 -1.1152 -0.3715
  367TIP3   OH222591   0.892   0.833   3.375 -0.4583  0.2363  0.3481
  367TIP3    H122592   0.928   0.749   3.349  0.2541 -0.1221  2.3235
  367TIP3    H222593   0.815   0.845   3.320 -1.5132 -2.4740  1.0886
  368TIP3   OH222594   3.195   6.381  12.897  0.2032 -0.0521  0.5867
  368TIP3    H122595   3.153   6.441  12.836 -1.0451 -1.0858  0.3863
  368TIP3    H222596   3.159   6.295  12.875  2.4327 -1.0109  0.4105
  369TIP3   OH222597   3.431   2.360  16.162  0.3015  0.5164 -0.2593
  369TIP3    H122598   3.418   2.453  16.142  0.4746  0.4761 -0.5743
  369TIP3    H222599   3.526   2.350  16.171  0.1414  0.9097  2.5441
  370TIP3   OH222600   6.032   0.582   2.471 -0.4201  0.3272 -0.2299
  370TIP3    H122601   6.042   0.593   2.377 -0.6156  2.5703 -0.0529
  370TIP3    H222602   6.086   0.506   2.493 -2.9692 -2.3770 -2.5531
  371TIP3   OH222603   6.291   6.724   5.154 -0.1850 -0.2455 -0.1539
  371TIP3    H122604   6.302   6.653   5.090 -0.6696 -0.8236  0.3848
  371TIP3    H222605   6.364   6.712   5.215  0.4550  0.4962 -0.7712
  372TIP3   OH222606   0.911   0.032  12.630  0.6460 -0.3049  0.1883
  372TIP3    H122607   0.974  -0.025  12.586  0.0418 -1.2561  0.5187
  372TIP3    H222608   0.964   0.092  12.681  1.3381  0.3393 -1.2510
  373TIP3   OH222609   4.666   1.455   3.887  0.0329 -0.1173  0.0366
  373TIP3    H122610   4.625   1.539   3.908  2.9057  1.7156 -1.0126
  373TIP3    H222611   4.738   1.448   3.950  1.0173 -0.7863 -1.1218
  374TIP3   OH222612   5.716   2.693   2.936  0.0158  0.1881  0.2399
  374TIP3    H122613   5.698   2.620   2.878 -1.4791  0.3711  0.4158
  374TIP3    H222614   5.728   2.653   3.022 -4.7470  0.1872  1.2195
  375TIP3   OH222615   1.381   1.054  11.617  0.7010  0.2618  0.4479
  375TIP3    H122616   1.389   1.005  11.699 -0.7667 -1.7090 -0.5218
  375TIP3    H222617   1.289   1.079  11.613  0.5494 -0.4786 -1.0451
  376TIP3   OH222618   6.387   3.755  16.135  0.2431  0.0428 -0.5349
  376TIP3    H122619   6.334   3.822  16.092 -2.3074 -0.4303  1.6270
  376TIP3    H222620   6.454   3.803  16.183 -0.4282  0.9265 -0.4704
  377TIP3   OH222621   2.702   3.516   4.178 -0.5701 -0.1154  0.3764
  377TIP3    H122622   2.658   3.474   4.105 -1.1232 -0.1478  0.7217
  377TIP3    H222623   2.691   3.610   4.163  0.9672 -0.0519 -0.5803
  378TIP3   OH222624   3.831   3.089  10.678 -0.1768  0.3344 -0.5746
  378TIP3    H122625   3.794   3.014  10.631 -2.5114 -0.4115  2.1766
  378TIP3    H222626   3.896   3.049  10.737 -0.6304  0.6227  0.1202
  379TIP3   OH222627   0.566   2.645  14.338  0.4599 -0.5447  0.2478
  379TIP3    H122628   0.561   2.670  14.245 -0.7777 -0.8631  0.2207
  379TIP3    H222629   0.571   2.728  14.385  0.2538 -0.3594 -0.0567
  380TIP3   OH222630   2.228   3.731  14.004  0.0580  0.0407 -0.4648
  380TIP3    H122631   2.168   3.805  14.007 -1.7051 -1.3415  2.1501
  380TIP3    H222632   2.206   3.686  13.922 -1.3905  0.4702 -0.3405
  381TIP3   OH222633   3.208   1.099   2.129 -0.0299 -0.3715  0.4363
  381TIP3    H122634   3.243   1.010   2.127 -1.7005 -1.0807 -1.8470
  381TIP3    H222635   3.263   1.146   2.192  1.6891 -2.6718  0.7533
  382TIP3   OH222636   1.660   4.356   0.588  0.8414  0.2670 -1.3818
  382TIP3    H122637   1.747   4.385   0.563  1.5526  1.0795  1.6508
  382TIP3    H222638   1.610   4.436   0.599  0.8874  0.0602  0.6345
  383TIP3   OH222639   6.777   6.048   1.345 -0.1412 -0.2090 -0.5174
  383TIP3    H122640   6.787   6.143   1.343 -1.7997  0.0842  2.0232
  383TIP3    H222641   6.724   6.028   1.267 -0.5197  1.0343 -0.5976
  384TIP3   OH222642   3.187   1.253   2.582  0.8021 -0.0733  0.3733
  384TIP3    H122643   3.175   1.166   2.544 -1.5339  0.5293 -0.4630
  384TIP3    H222644   3.178   1.240   2.676  0.2666 -0.7309  0.2396
  385TIP3   OH222645   4.601   2.255   1.805  0.1226 -0.4482  0.3079
  385TIP3    H122646   4.671   2.244   1.741 -0.2085 -1.9237  0.1605
  385TIP3    H222647   4.577   2.165   1.830 -1.6689  0.0114  0.3979
  386TIP3   OH222648   2.918   4.071  12.459  0.1736 -0.1913  0.4670
  386TIP3    H122649   2.877   4.157  12.470  0.4673 -0.1406  1.2340
  386TIP3    H222650   3.009   4.085  12.487  0.6613 -0.3661 -0.9542
  387TIP3   OH222651   2.768   5.325  11.458  0.6475 -0.0456  0.3037
  387TIP3    H122652   2.702   5.285  11.401 -0.0224  0.3007  0.8222
  387TIP3    H222653   2.815   5.250  11.495  0.2278 -0.3240  0.2933
  388TIP3   OH222654   0.886   6.802   3.117 -0.0080 -0.2208  0.4354
  388TIP3    H122655   0.800   6.765   3.097 -0.4423  0.8534  0.2781
  388TIP3    H222656   0.948   6.736   3.084 -0.7233  0.2787 -2.1768
  389TIP3   OH222657   3.221   0.888  15.210  0.3770  0.2927  0.5853
  389TIP3    H122658   3.186   0.971  15.241  1.0853  0.3898  1.1545
  389TIP3    H222659   3.298   0.912  15.158 -0.4435  0.0909 -0.7670
  390TIP3   OH222660   6.767   1.064   2.842 -0.3391  0.9276 -0.3570
  390TIP3    H122661   6.784   1.047   2.749 -0.3966  1.4588 -0.4633
  390TIP3    H222662   6.689   1.118   2.843 -0.6164  0.5244  0.0266
  391TIP3   OH222663   6.705   0.903  11.876 -1.1333 -0.2363 -0.7536
  391TIP3    H122664   6.779   0.904  11.814 -1.6099 -1.9008 -1.4036
  391TIP3    H222665   6.733   0.844  11.946 -1.3929  0.0548 -0.3994
  392TIP3   OH222666   4.639   4.976   5.212 -0.5141 -0.0388  0.4740
  392TIP3    H122667   4.656   5.070   5.209 -0.9849  0.0348 -1.6552
  392TIP3    H222668   4.583   4.959   5.136 -0.5640 -2.0246  0.8910
  393TIP3   OH222669   2.036   6.287  15.574  0.1931 -0.9028  0.2414
  393TIP3    H122670   2.007   6.276  15.665 -0.0144  0.6853  0.3912
  393TIP3    H222671   1.971   6.346  15.535  0.5940 -1.1103 -0.7858
  394TIP3   OH222672   4.571   3.210   4.409  0.2659  0.2185  0.1731
  394TIP3    H122673   4.569   3.203   4.313 -0.4556  1.5244  0.0808
  394TIP3    H222674   4.481   3.195   4.436  0.6382 -1.1928  0.7644
  395TIP3   OH222675   4.254   6.766  15.368  0.1448 -0.1767  0.3730
  395TIP3    H122676   4.169   6.808  15.380 -0.9347 -1.9941 -0.3737
  395TIP3    H222677   4.295   6.767  15.455 -0.2102  1.5180  0.5557
  396TIP3   OH222678   1.382   5.026   2.770  0.2375  0.1154 -0.4147
  396TIP3    H122679   1.442   4.989   2.705  0.1995 -0.2925 -0.2243
  396TIP3    H222680   1.411   5.117   2.780  0.7606 -0.0482 -0.4012
  397TIP3   OH222681   6.842   2.342  13.873  0.4124  0.3329  0.0326
  397TIP3    H122682   6.882   2.281  13.936  1.3034  0.6551 -0.2052
  397TIP3    H222683   6.808   2.285  13.803 -1.6793 -0.1309  1.3426
  398TIP3   OH222684   6.596   0.867  11.192 -0.1863  0.2091 -0.5581
  398TIP3    H122685   6.624   0.845  11.103 -0.9961 -0.6396 -0.6179
  398TIP3    H222686   6.551   0.951  11.182 -1.0613 -0.3078 -1.1220
  399TIP3   OH222687   5.433   1.713   4.529 -0.6244 -0.6521 -0.0602
  399TIP3    H122688   5.360   1.770   4.552 -1.1585 -1.0147 -0.8568
  399TIP3    H222689   5.394   1.641   4.481 -0.1219 -2.2890  1.8482
  400TIP3   OH222690   6.324   4.774  16.478 -0.0641 -0.0636 -0.6745
  400TIP3    H122691   6.407   4.793  16.522 -0.8175  0.4472  0.5835
  400TIP3    H222692   6.340   4.693  16.430  0.7517 -0.7644  0.7276
  401TIP3   OH222693   0.857   5.062   4.517  0.2173  0.2633 -0.0488
  401TIP3    H122694   0.912   5.129   4.478 -0.4916  2.4895  2.4999
  401TIP3    H222695   0.855   4.992   4.452  2.7905  1.7370 -1.8979
  402TIP3   OH222696   4.467   3.854  14.254 -0.5873  0.0874 -0.0421
  402TIP3    H122697   4.476   3.948  14.273  0.2456  0.0020  0.0324
  402TIP3    H222698   4.396   3.825  14.312 -1.2713  0.7867 -0.5071
  403TIP3   OH222699   1.437   2.028   0.260  0.7101  0.2254  0.1647
  403TIP3    H122700   1.475   2.116   0.260 -0.6440  0.8603  1.4154
  403TIP3    H222701   1.343   2.043   0.274  0.2052 -1.3564 -1.2443
  404TIP3   OH222702   3.383   2.630   3.178 -0.2493 -0.1749 -0.0510
  404TIP3    H122703   3.295   2.662   3.157  0.0058  0.0560 -0.8106
  404TIP3    H222704   3.388   2.546   3.133  0.7736  0.9197 -2.1314
  405TIP3   OH222705   6.427   6.108  12.453  0.2805 -0.1059  0.1720
  405TIP3    H122706   6.430   6.200  12.428  3.3562 -0.0909  0.2133
  405TIP3    H222707   6.497   6.066  12.402  0.7145 -1.8707  2.0509
  406TIP3   OH222708   6.192   0.272   4.203 -0.2909 -0.5358 -0.6048
  406TIP3    H122709   6.240   0.281   4.285 -0.7448  2.8970 -0.5348
  406TIP3    H222710   6.260   0.271   4.136  0.1133  2.3020 -0.3883
  407TIP3   OH222711   1.818   4.146  14.808  0.3018  0.2169 -0.7236
  407TIP3    H122712   1.854   4.059  14.826  0.0256 -0.0819 -1.5501
  407TIP3    H222713   1.868   4.177  14.733  0.2890  0.7050 -0.5309
  408TIP3   OH222714   3.957   3.886   4.200  0.7456  0.0454  0.6625
  408TIP3    H122715   3.987   3.917   4.115  1.4633 -1.8189  0.1988
  408TIP3    H222716   4.005   3.940   4.263  1.8579 -0.0083 -0.1013
  409TIP3   OH222717   5.664   0.850  15.078 -0.1766  0.1109 -0.7169
  409TIP3    H122718   5.614   0.932  15.078 -0.8670 -0.3112 -0.8307
  409TIP3    H222719   5.754   0.878  15.058  0.2018  1.1971  1.9984
  410TIP3   OH222720   5.500   1.524  10.402  0.5900 -0.1940 -0.0460
  410TIP3    H122721   5.580   1.548  10.356  1.4629 -2.4437  0.1184
  410TIP3    H222722   5.476   1.439  10.365 -0.9387 -0.2048  0.8860
  411TIP3   OH222723   5.178   1.555   3.944  0.1862 -0.2462 -0.0476
  411TIP3    H122724   5.214   1.573   3.857  2.0236  0.7875  0.8713
  411TIP3    H222725   5.228   1.612   4.003 -0.5482 -1.4171  1.7794
  412TIP3   OH222726   2.312   1.156  16.102 -0.3767  0.1161  0.0698
  412TIP3    H122727   2.400   1.119  16.107 -0.5827 -0.5197 -0.8336
  412TIP3    H222728   2.271   1.111  16.028 -1.5257  0.2669  0.5973
  413TIP3   OH222729   0.488   4.068  17.074 -0.5773  0.4419  0.3563
  413TIP3    H122730   0.511   4.001  17.139 -2.9448 -0.8345 -0.0095
  413TIP3    H222731   0.572   4.101  17.043  0.7054 -2.0656  0.8841
  414TIP3   OH222732   1.159   0.829   4.331 -0.0120  0.0739  0.0695
  414TIP3    H122733   1.123   0.875   4.407  1.2199  0.3412  0.5215
  414TIP3    H222734   1.190   0.745   4.366 -0.9971 -0.5566 -0.4905
  415TIP3   OH222735   0.447   1.320  14.510  0.1754  0.4384  0.5172
  415TIP3    H122736   0.434   1.236  14.555  1.1797 -0.1025 -0.1468
  415TIP3    H222737   0.363   1.364  14.517 -0.8421 -1.2423 -0.3431
  416TIP3   OH222738   1.981   4.200  12.276 -0.3743 -0.3852 -0.1240
  416TIP3    H122739   2.073   4.213  12.299 -0.0129  2.3258 -2.4929
  416TIP3    H222740   1.982   4.129  12.212 -0.1891 -1.4827  1.0670
  417TIP3   OH222741   2.874   5.155   2.328  0.0842 -0.5666  0.6368
  417TIP3    H122742   2.908   5.068   2.348 -0.2513 -0.3764  2.1845
  417TIP3    H222743   2.941   5.194   2.271  0.8635 -1.3727  0.9678
  418TIP3   OH222744   2.139   3.875  13.001 -0.1524 -0.0798  0.0910
  418TIP3    H122745   2.142   3.942  12.932 -0.3073  0.1489  0.3043
  418TIP3    H222746   2.231   3.855  13.018  0.0598  2.0744  1.9354
  419TIP3   OH222747   3.350   4.992  13.596  0.4994  0.4209  0.6554
  419TIP3    H122748   3.440   4.982  13.627 -0.2854  0.3161  3.1055
  419TIP3    H222749   3.297   4.947  13.661 -1.2233 -1.9385 -2.1222
  420TIP3   OH222750   6.157   6.088  11.219  0.2180  0.1959 -0.0572
  420TIP3    H122751   6.109   6.065  11.140  0.8969 -0.7253 -0.2183
  420TIP3    H222752   6.233   6.029  11.219  2.2196  2.5966 -0.6378
  421TIP3   OH222753   2.266   2.270   1.698 -0.2689  0.2326  0.4457
  421TIP3    H122754   2.255   2.335   1.767  0.1944 -0.2188  0.9485
  421TIP3    H222755   2.191   2.284   1.640 -0.6681  0.6101  1.0423
  422TIP3   OH222756   0.596   3.680   0.599 -0.1726  0.3020  0.3391
  422TIP3    H122757   0.680   3.649   0.634  0.3139  1.7199  0.4972
  422TIP3    H222758   0.576   3.758   0.652 -1.6683 -0.1051  0.3970
  423TIP3   OH222759   1.467   1.197   6.393  0.0746 -0.4218  0.2421
  423TIP3    H122760   1.388   1.146   6.413  0.3480 -0.6449  0.7801
  423TIP3    H222761   1.434   1.284   6.372 -0.4149 -0.8605 -0.8869
  424TIP3   OH222762   2.786   5.683   3.439 -0.1214  0.3342 -0.1890
  424TIP3    H122763   2.699   5.715   3.416 -0.5873 -0.7463 -0.0044
  424TIP3    H222764   2.803   5.717   3.526 -0.3531  0.5469 -0.2264
  425TIP3   OH222765   2.157   2.535   5.255 -0.5116 -0.7223  0.1131
  425TIP3    H122766   2.101   2.542   5.178 -1.0018  1.3294  0.6087
  425TIP3    H222767   2.224   2.470   5.230 -1.5094 -1.1933 -1.4642
  426TIP3   OH222768   1.373   0.863  15.102 -0.0891  0.2458 -0.6634
  426TIP3    H122769   1.390   0.951  15.069 -0.8463  0.8151  0.4264
  426TIP3    H222770   1.296   0.872  15.158 -0.0962 -1.0848 -0.4237
  427TIP3   OH222771   1.621   2.633   6.117 -0.1054  0.4980 -1.0513
  427TIP3    H122772   1.647   2.547   6.085 -1.6708 -0.1468 -0.6768
  427TIP3    H222773   1.572   2.672   6.044 -2.5777 -0.4571  0.0312
  428TIP3   OH222774   2.936   5.928  16.810 -0.2794 -0.4072 -0.1860
  428TIP3    H122775   2.862   5.986  16.826  0.8030  1.2230 -0.7851
  428TIP3    H222776   2.908   5.874  16.736 -0.3419  1.2705 -1.4527
  429TIP3   OH222777   1.861   2.223  14.404  0.1090  0.3622 -0.7416
  429TIP3    H122778   1.952   2.200  14.385  0.8367  1.3274  1.2676
  429TIP3    H222779   1.864   2.315  14.428 -1.2407  0.1495  0.3805
  430TIP3   OH222780   5.046   2.616  12.232 -0.4823 -0.0767 -0.2774
  430TIP3    H122781   4.995   2.695  12.250 -0.2234 -0.2734  1.4759
  430TIP3    H222782   5.032   2.560  12.309  1.6754 -0.4960 -0.1259
  431TIP3   OH222783   4.187   4.217  11.231 -0.6605 -0.0023 -0.4488
  431TIP3    H122784   4.267   4.166  11.215 -0.8734 -0.4305 -0.1617
  431TIP3    H222785   4.116   4.154  11.224 -0.9664  0.3595 -0.5997
  432TIP3   OH222786   3.815   0.669   4.351 -0.0675 -0.0198  0.0356
  432TIP3    H122787   3.771   0.616   4.418  0.6310 -0.8826 -0.1689
  432TIP3    H222788   3.798   0.760   4.377  2.0733 -0.2398  2.7179
  433TIP3   OH222789   6.194   4.310  11.215 -0.2357 -0.8888 -0.3403
  433TIP3    H122790   6.233   4.261  11.288 -0.5264 -0.0901  0.3633
  433TIP3    H222791   6.264   4.369  11.186 -0.2577 -0.9111 -0.4381
  434TIP3   OH222792   6.358   1.795   4.299  0.0164  0.4219  0.2846
  434TIP3    H122793   6.264   1.806   4.285  0.1708 -0.7004 -2.2174
  434TIP3    H222794   6.373   1.826   4.388 -2.7278  0.5449  0.7911
  435TIP3   OH222795   5.388   2.605  12.883 -0.5313 -0.6017 -0.6177
  435TIP3    H122796   5.305   2.626  12.927 -0.4497 -0.9899 -0.2646
  435TIP3    H222797   5.452   2.599  12.955 -0.1585 -0.1278 -0.9061
  436TIP3   OH222798   3.009   5.791   3.890 -0.7378 -0.1562 -0.0101
  436TIP3    H122799   3.012   5.706   3.846  2.0746 -0.5277  0.6633
  436TIP3    H222800   3.005   5.769   3.983 -0.5782  0.4327  0.1369
  437TIP3   OH222801   1.366   4.229  15.971 -0.2148  0.4869  0.0895
  437TIP3    H122802   1.314   4.301  16.007 -1.0180 -0.3303  0.5968
  437TIP3    H222803   1.333   4.151  16.015  0.0183 -0.3141 -1.0963
  438TIP3   OH222804   5.763   5.994  11.638  0.3653  0.2110 -0.0007
  438TIP3    H122805   5.759   5.899  11.655  0.9732  0.0491 -0.6923
  438TIP3    H222806   5.709   6.007  11.560 -0.8320  0.6550  0.8759
  439TIP3   OH222807   6.227   2.434   1.611 -0.2833  0.5753 -0.0089
  439TIP3    H122808   6.272   2.517   1.593  0.5002  0.3350  0.7612
  439TIP3    H222809   6.286   2.367   1.575  0.1590  0.2364  1.2936
  440TIP3   OH222810   6.552   3.402   2.537 -1.1985 -0.6446 -0.2754
  440TIP3    H122811   6.473   3.393   2.484 -0.5653 -0.4995 -1.2593
  440TIP3    H222812   6.601   3.321   2.521  0.0137  0.3215 -1.6438
  441TIP3   OH222813   1.293   4.163   2.557  0.0808  0.1607 -0.1221
  441TIP3    H122814   1.348   4.104   2.609  1.4146 -0.3839 -2.0360
  441TIP3    H222815   1.206   4.155   2.597  0.9816 -0.3638  1.8598
  442TIP3   OH222816   0.596   0.787  13.887 -0.4104  0.0938 -0.1386
  442TIP3    H122817   0.578   0.693  13.892 -0.0172 -0.1978 -2.6595
  442TIP3    H222818   0.549   0.825  13.961 -2.1171 -1.9034 -0.1147
  443TIP3   OH222819   1.317   1.158  17.028 -0.0745  0.1587 -0.2125
  443TIP3    H122820   1.341   1.069  17.001 -0.4193 -0.6902  2.0661
  443TIP3    H222821   1.382   1.214  16.985  0.4709 -1.2209 -1.2852
  444TIP3   OH222822   0.428   2.521  12.471 -0.6174  0.4310  0.7054
  444TIP3    H122823   0.465   2.507  12.384 -0.3015  1.6674  0.6212
  444TIP3    H222824   0.415   2.433  12.506  2.0387 -0.0640  0.6020
  445TIP3   OH222825   5.638   4.563   2.727  0.5523 -0.2395  0.1211
  445TIP3    H122826   5.550   4.527   2.716  0.1035  0.8135  0.1201
  445TIP3    H222827   5.634   4.612   2.809  1.8383 -2.1248  1.3928
  446TIP3   OH222828   3.591   5.280  15.661  0.3182  0.3127  0.7340
  446TIP3    H122829   3.652   5.222  15.707 -0.3700 -1.8187 -0.8275
  446TIP3    H222830   3.515   5.224  15.643  0.0381  1.3689 -1.7779
  447TIP3   OH222831   0.502   1.267  13.601 -0.2583  0.2264 -0.0737
  447TIP3    H122832   0.560   1.233  13.533 -0.0007  1.3461 -0.4319
  447TIP3    H222833   0.522   1.215  13.678  1.3812  0.7179 -0.1332
  448TIP3   OH222834   4.840   2.078   2.326 -0.4472 -0.4661 -0.3931
  448TIP3    H122835   4.765   2.019   2.317 -1.8293  0.9773  0.9693
  448TIP3    H222836   4.801   2.164   2.342  1.5110  0.4345 -0.1453
  449TIP3   OH222837   6.422   4.074   1.987 -0.5934 -0.2108  0.5607
  449TIP3    H122838   6.409   3.986   1.953 -0.9601  0.9289 -2.6436
  449TIP3    H222839   6.517   4.088   1.981 -0.4893 -0.4987  1.4434
  450TIP3   OH222840   5.845   3.950  14.734 -0.2184 -0.5720 -0.9113
  450TIP3    H122841   5.827   4.041  14.758  0.3553 -0.9327  1.1618
  450TIP3    H222842   5.771   3.923  14.680 -2.5744 -0.0459  1.7991
  451TIP3   OH222843   3.510   1.229   0.527  0.1232 -0.2309 -0.1046
  451TIP3    H122844   3.483   1.303   0.581  0.6693  0.7132 -1.0926
  451TIP3    H222845   3.434   1.171   0.525  0.0500 -0.2317  1.5507
  452TIP3   OH222846   3.260   2.166   5.745 -0.7934  0.1903  0.0124
  452TIP3    H122847   3.273   2.085   5.696 -0.1109  0.6498 -0.5883
  452TIP3    H222848   3.179   2.203   5.711 -1.0024 -0.1445  0.1491
  453TIP3   OH222849   2.084   6.254  11.274  0.7893  0.2054  0.1369
  453TIP3    H122850   2.092   6.177  11.219 -0.0799 -0.1370  0.4635
  453TIP3    H222851   2.033   6.224  11.349 -0.5986  1.3652 -0.2972
  454TIP3   OH222852   4.381   6.050  13.900 -0.1855 -0.0341 -0.3599
  454TIP3    H122853   4.428   6.112  13.955 -2.4545  1.5839 -0.0946
  454TIP3    H222854   4.369   5.972  13.955  0.0778  0.4556  0.4041
  455TIP3   OH222855   4.625   2.432   1.020 -0.2547  0.2733  0.0833
  455TIP3    H122856   4.709   2.474   1.000 -0.4399  0.7271  0.2448
  455TIP3    H222857   4.578   2.433   0.937 -0.3380  0.5777  0.1307
  456TIP3   OH222858   5.368   3.074   4.369 -0.2531 -0.2292 -0.9815
  456TIP3    H122859   5.416   3.133   4.311  0.4622  0.9492  0.7394
  456TIP3    H222860   5.287   3.055   4.322  0.1535  0.9402 -2.2200
  457TIP3   OH222861   2.117   1.529  11.434 -0.3384 -0.0400  0.1110
  457TIP3    H122862   2.122   1.499  11.343 -3.5975 -2.5443  0.5782
  457TIP3    H222863   2.180   1.475  11.481  1.0826  0.9997 -0.5247
  458TIP3   OH222864   4.801   1.762  12.498 -0.0892 -0.2115  0.0309
  458TIP3    H122865   4.848   1.768  12.414 -1.6574 -1.4325 -0.9823
  458TIP3    H222866   4.818   1.673  12.529  2.1022  0.8021  2.0936
  459TIP3   OH222867   2.990   5.877   0.227  0.0455  0.3400 -0.1550
  459TIP3    H122868   2.985   5.929   0.146 -2.9015 -1.7957 -1.5404
  459TIP3    H222869   2.970   5.939   0.297  1.0151  1.9226 -1.2179
  460TIP3   OH222870   1.861   4.319  13.684  0.1052 -0.1988 -0.1409
  460TIP3    H122871   1.855   4.414  13.685  1.2418 -0.1196  0.5486
  460TIP3    H222872   1.822   4.293  13.600 -0.6484  0.8260 -0.1269
  461TIP3   OH222873   5.265   3.569  15.523 -0.1064 -0.4446  0.0401
  461TIP3    H122874   5.227   3.508  15.460 -2.1942  0.7096  0.1019
  461TIP3    H222875   5.225   3.653  15.502  0.7230  0.3869  1.6153
  462TIP3   OH222876   4.591   0.244   1.045  0.1727 -0.3915  0.0189
  462TIP3    H122877   4.619   0.167   0.996 -0.3481 -0.5804  0.0103
  462TIP3    H222878   4.604   0.220   1.137  1.2645  0.0081 -0.0190
  463TIP3   OH222879   2.987   2.473  16.654  0.0846  0.1950  0.3117
  463TIP3    H122880   3.042   2.544  16.688  1.5930 -0.6264 -0.3635
  463TIP3    H222881   2.898   2.509  16.658  0.8528  2.4098 -0.6895
  464TIP3   OH222882   3.871   6.852   0.827  0.0764  0.4165 -0.3700
  464TIP3    H122883   3.901   6.766   0.797 -0.8243 -0.0185 -0.0608
  464TIP3    H222884   3.950   6.896   0.856  0.3049 -1.2114  1.7296
  465TIP3   OH222885   5.711   0.045   3.852 -0.1388 -0.0434  0.8091
  465TIP3    H122886   5.794   0.088   3.871 -0.0220 -0.3197  0.9393
  465TIP3    H222887   5.656   0.114   3.816  0.7284 -0.2095 -0.9797
  466TIP3   OH222888   4.384   1.571  11.288  0.3650  0.2911 -0.3609
  466TIP3    H122889   4.404   1.482  11.260 -1.9539 -0.2669 -0.4311
  466TIP3    H222890   4.358   1.616  11.208 -0.6888  0.3373 -0.0161
  467TIP3   OH222891   1.570   0.064  14.965 -0.5572  0.0937  0.5309
  467TIP3    H122892   1.621   0.068  15.046 -0.3884  0.0403  0.4265
  467TIP3    H222893   1.632   0.036  14.898 -0.6441  0.3539  0.3380
  468TIP3   OH222894   2.618   1.877   2.255 -0.3913 -0.1586  0.6190
  468TIP3    H122895   2.695   1.921   2.218  0.7140 -0.8948  1.9529
  468TIP3    H222896   2.610   1.796   2.205  0.5064 -0.6911  1.3098
  469TIP3   OH222897   2.892   3.274  14.090 -0.0485  0.1783  0.0328
  469TIP3    H122898   2.833   3.304  14.021  0.5226 -0.6465 -0.8337
  469TIP3    H222899   2.963   3.229  14.043 -0.4378 -1.7873  1.2356
  470TIP3   OH222900   1.739   1.515  14.520 -0.2679  0.6400  0.2929
  470TIP3    H122901   1.778   1.446  14.467  1.0490  1.2985  0.3691
  470TIP3    H222902   1.798   1.524  14.596  0.4487  2.8254 -0.4406
  471TIP3   OH222903   5.761   5.765  12.999  0.2309  0.0113 -0.3294
  471TIP3    H122904   5.778   5.805  13.084  0.1860  0.5841 -0.5901
  471TIP3    H222905   5.822   5.691  12.994 -1.3521 -1.4961  1.2006
  472TIP3   OH222906   6.548   3.549   0.135 -0.0554  0.1936  0.3340
  472TIP3    H122907   6.599   3.508   0.205  0.6565  1.2098  0.4465
  472TIP3    H222908   6.565   3.643   0.145 -0.6627  0.4319 -0.6523
  473TIP3   OH222909   0.607   4.259  13.086 -0.1227 -0.0813  0.3459
  473TIP3    H122910   0.605   4.180  13.031  1.2624  1.0545 -1.4685
  473TIP3    H222911   0.537   4.314  13.050 -1.3464 -0.5771  1.8583
  474TIP3   OH222912   1.588   4.888   8.502  0.1115  0.6603  0.1088
  474TIP3    H122913   1.534   4.913   8.427 -0.1798 -2.9792 -1.0968
  474TIP3    H222914   1.525   4.866   8.571  0.1326 -0.5267 -0.2286
  475TIP3   OH222915   0.348   5.469  14.461  0.1561  0.4109  0.6329
  475TIP3    H122916   0.413   5.472  14.531 -1.7276  0.2348  2.4987
  475TIP3    H222917   0.264   5.460  14.507 -1.5948  4.1059 -1.4359
  476TIP3   OH222918   1.690   4.786   2.678 -0.0813  0.1841 -0.2035
  476TIP3    H122919   1.694   4.710   2.620  2.5134 -0.1157  0.2800
  476TIP3    H222920   1.717   4.859   2.624  0.3130  0.2514  0.0806
  477TIP3   OH222921   5.071   2.343   5.415  0.5656 -0.0897 -0.2767
  477TIP3    H122922   5.151   2.358   5.364 -0.2104 -0.0782 -1.5298
  477TIP3    H222923   5.001   2.345   5.350 -0.4325 -0.3618  0.7705
  478TIP3   OH222924   0.518   0.805  15.220  0.6643 -0.7838  0.0751
  478TIP3    H122925   0.604   0.837  15.192  0.9267  0.5799  2.1916
  478TIP3    H222926   0.505   0.843  15.307 -2.6736  0.1364 -0.6686
  479TIP3   OH222927   5.876   1.413  14.560 -0.2573 -0.8350  0.1612
  479TIP3    H122928   5.939   1.342  14.544 -0.4539 -1.6022  2.3410
  479TIP3    H222929   5.925   1.476  14.614  0.1081  1.0805 -2.2438
  480TIP3   OH222930   3.350   6.652   0.181 -0.3760 -0.1902  0.9668
  480TIP3    H122931   3.360   6.575   0.236 -0.3820  0.9459  2.6169
  480TIP3    H222932   3.440   6.680   0.163 -0.3437 -1.1012 -0.4566
  481TIP3   OH222933   1.616   4.231  11.958  0.4785  0.0235  0.0445
  481TIP3    H122934   1.663   4.158  11.998  0.6862 -0.4777 -1.0739
  481TIP3    H222935   1.524   4.203  11.957  0.7904 -1.1125 -2.1535
  482TIP3   OH222936   0.591   4.130  12.832  0.1048 -0.1704  0.2059
  482TIP3    H122937   0.640   4.206  12.800  0.7629 -0.1795  1.1317
  482TIP3    H222938   0.659   4.068  12.857 -0.2727  0.3934  2.9493
  483TIP3   OH222939   3.691   0.393   1.827 -0.0323 -0.2707 -0.4045
  483TIP3    H122940   3.648   0.428   1.905  1.0404 -1.3216  0.7122
  483TIP3    H222941   3.730   0.469   1.784  0.8169  0.1508  1.0390
  484TIP3   OH222942   5.686   4.590  10.927  0.1804 -0.6191  0.1451
  484TIP3    H122943   5.623   4.541  10.874  1.5975 -1.2058 -1.0735
  484TIP3    H222944   5.678   4.552  11.014 -0.6250 -1.1972 -0.1646
  485TIP3   OH222945   1.295   0.162  13.118 -0.2289  0.6560 -0.1121
  485TIP3    H122946   1.340   0.246  13.109  0.0631  0.5712  0.4920
  485TIP3    H222947   1.357   0.097  13.084 -0.3510  0.6542 -0.3350
  486TIP3   OH222948   1.016   5.727  13.716 -0.1013  0.4318 -0.1653
  486TIP3    H122949   1.102   5.768  13.710 -0.0583  0.7292  1.7353
  486TIP3    H222950   0.956   5.791  13.677  0.5784 -0.1377 -2.2871
  487TIP3   OH222951   2.927   2.040  16.847 -0.1135 -0.1994 -0.1794
  487TIP3    H122952   2.832   2.044  16.840 -0.0751 -0.4913 -0.9668
  487TIP3    H222953   2.945   2.059  16.939 -0.9535 -0.6028  0.0789
  488TIP3   OH222954   5.056   0.663   0.538 -0.2669  0.3543 -0.5664
  488TIP3    H122955   4.968   0.671   0.503 -0.3142 -1.9341 -1.1002
  488TIP3    H222956   5.091   0.752   0.535 -2.2268  1.1553 -1.1571
  489TIP3   OH222957   3.610   3.611   3.819 -0.4961 -0.0876 -0.4251
  489TIP3    H122958   3.521   3.595   3.787 -0.7634 -2.1411  1.1236
  489TIP3    H222959   3.654   3.527   3.809  0.5690  0.2782  0.9169
  490TIP3   OH222960   1.845   5.702  12.440  0.3020  0.3807  0.0964
  490TIP3    H122961   1.908   5.635  12.413 -2.2613 -1.1058 -2.8810
  490TIP3    H222962   1.876   5.783  12.399  0.2448 -0.3688 -1.5103
  491TIP3   OH222963   6.101   1.084  14.838 -0.3771 -0.4823 -0.0768
  491TIP3    H122964   6.012   1.091  14.871  0.1122 -1.0942  1.4883
  491TIP3    H222965   6.124   0.991  14.850  0.6846 -0.2012  0.1988
  492TIP3   OH222966   4.743   1.103  15.133  0.2291 -0.1974 -0.3814
  492TIP3    H122967   4.722   1.196  15.129  3.2429  0.6580  0.5380
  492TIP3    H222968   4.694   1.070  15.209  0.9322  1.2427  0.7395
  493TIP3   OH222969   5.336   0.128   3.885  0.0450  0.2277  0.5209
  493TIP3    H122970   5.266   0.118   3.950 -0.7871 -2.8332 -0.6918
  493TIP3    H222971   5.293   0.116   3.801  1.8824 -0.8628 -0.3253
  494TIP3   OH222972   2.600   4.481   1.269 -0.3512 -0.2791 -0.0779
  494TIP3    H122973   2.588   4.404   1.212 -1.1528  0.3178 -0.7400
  494TIP3    H222974   2.604   4.555   1.209 -0.2411  0.2696  0.5989
  495TIP3   OH222975   2.158   0.284   6.629  0.3465 -0.2934 -0.0241
  495TIP3    H122976   2.238   0.244   6.665  0.9449 -0.1576 -1.1634
  495TIP3    H222977   2.090   0.261   6.691  0.9747 -1.7577  0.1515
  496TIP3   OH222978   2.403   6.821   5.798  0.0916  0.3349 -0.0599
  496TIP3    H122979   2.440   6.793   5.714 -1.6924 -2.6823  0.0058
  496TIP3    H222980   2.400   6.916   5.793 -0.4733  0.2506 -3.6735
  497TIP3   OH222981   5.477   2.528   3.052  0.8048  0.0477 -0.0757
  497TIP3    H122982   5.464   2.576   3.134  1.9562 -0.1285  0.2392
  497TIP3    H222983   5.436   2.583   2.985  0.1034  0.3351  0.5750
  498TIP3   OH222984   1.090   1.618  14.934  0.7336 -0.1894  0.4637
  498TIP3    H122985   1.053   1.555  14.995  0.9001  0.0154  0.7832
  498TIP3    H222986   1.059   1.703  14.966 -0.5932 -0.1896 -0.7330
  499TIP3   OH222987   1.729   1.039   3.619  0.0795  0.6287  0.3693
  499TIP3    H122988   1.764   1.069   3.535 -1.4475  0.6018 -0.3152
  499TIP3    H222989   1.661   0.976   3.595  0.4025 -0.2596  1.6774
  500TIP3   OH222990   2.818   2.014   2.053  0.8852  0.3560  0.4957
  500TIP3    H122991   2.883   2.080   2.074 -0.7892  1.8574  1.2798
  500TIP3    H222992   2.859   1.931   2.074  3.1427  1.0919 -0.7230
  501TIP3   OH222993   2.074   1.701   4.735 -0.0724 -0.1979  0.0895
  501TIP3    H122994   2.153   1.652   4.711 -0.6224 -0.7808 -0.6018
  501TIP3    H222995   2.002   1.642   4.712 -0.7011  0.1865  1.0352
  502TIP3   OH222996   6.205   1.785   1.959  0.6189 -0.0074  0.1839
  502TIP3    H122997   6.180   1.877   1.951 -1.3156 -0.6229 -2.0246
  502TIP3    H222998   6.300   1.785   1.950  0.6661  1.7765  0.3008
  503TIP3   OH222999   5.792   1.716  17.020  0.6236 -0.4411  0.0315
  503TIP3    H123000   5.824   1.662  16.947  1.5787 -0.6842  0.6048
  503TIP3    H223001   5.800   1.659  17.097  1.1379  0.3243  0.5643
  504TIP3   OH223002   4.749   2.432   3.998 -0.1597  0.5319 -0.1666
  504TIP3    H123003   4.765   2.397   3.911 -0.1463  3.3646 -1.4019
  504TIP3    H223004   4.835   2.431   4.040  0.1177  0.4503 -0.7237
  505TIP3   OH223005   6.008   2.660  16.499  0.1189 -0.6013 -1.3657
  505TIP3    H123006   5.977   2.739  16.545 -2.8448 -0.6691 -2.9782
  505TIP3    H223007   6.086   2.688  16.452  3.0032 -0.3926  3.0224
  506TIP3   OH223008   3.758   1.180   0.451 -0.3065 -0.3004 -0.1826
  506TIP3    H123009   3.776   1.158   0.542  0.9253 -3.7020 -1.0844
  506TIP3    H223010   3.666   1.206   0.449 -0.2702  0.1340  2.0345
  507TIP3   OH223011   4.121   4.206   1.041 -0.5883 -0.5666  0.2878
  507TIP3    H123012   4.089   4.239   0.957 -1.5797  0.6380  1.0916
  507TIP3    H223013   4.073   4.257   1.106  1.6085 -0.0484  1.6041
  508TIP3   OH223014   1.833   1.515   0.209 -0.2591 -0.1326 -0.5256
  508TIP3    H123015   1.781   1.464   0.270  0.5339  0.8202  0.9985
  508TIP3    H223016   1.809   1.481   0.123 -2.2801 -0.7195  0.2150
  509TIP3   OH223017   2.147   3.464   3.582 -0.5822  0.2451  0.1196
  509TIP3    H123018   2.221   3.403   3.578  0.4667  1.4993 -0.6982
  509TIP3    H223019   2.125   3.481   3.490 -1.8223 -0.0164  0.3573
  510TIP3   OH223020   6.601   5.198   3.408  0.4934  0.1170  0.1013
  510TIP3    H123021   6.612   5.107   3.382  1.0283  0.2619 -0.1923
  510TIP3    H223022   6.679   5.219   3.459 -0.3731 -0.0548  1.5527
  511TIP3   OH223023   5.797   6.760  16.277 -0.1418 -0.1891 -0.5771
  511TIP3    H123024   5.770   6.850  16.260 -0.2806 -0.3825 -1.4449
  511TIP3    H223025   5.859   6.740  16.207  2.2794  0.2116  1.2875
  512TIP3   OH223026   2.761   2.729  14.172 -0.4828 -0.3751  0.2293
  512TIP3    H123027   2.757   2.633  14.166  0.5548 -0.3717 -0.6888
  512TIP3    H223028   2.844   2.747  14.216 -0.0384  0.1266 -0.7920
  513TIP3   OH223029   4.043   0.439  11.534  0.2970 -0.3678  0.4296
  513TIP3    H123030   4.043   0.350  11.567  0.7932 -0.7059 -0.4283
  513TIP3    H223031   4.125   0.446  11.484  0.7717  0.8924  1.3132
  514TIP3   OH223032   1.476   6.338   0.174  0.0639  0.2049 -0.3314
  514TIP3    H123033   1.514   6.250   0.173 -0.2918 -0.0176  1.4856
  514TIP3    H223034   1.551   6.396   0.170  0.2433 -0.0853 -3.3308
  515TIP3   OH223035   3.252   5.700  14.748  0.3379 -0.0638 -0.4046
  515TIP3    H123036   3.288   5.662  14.668  1.3684  0.0151  0.0092
  515TIP3    H223037   3.206   5.779  14.719  0.4039 -0.2242 -0.9583
  516TIP3   OH223038   0.857   1.330   4.666  0.6945  0.1813 -0.7357
  516TIP3    H123039   0.940   1.368   4.695  0.7260 -1.1185  1.0170
  516TIP3    H223040   0.809   1.311   4.747 -0.6871 -0.4893 -1.6672
  517TIP3   OH223041   6.129   6.702   3.190  0.6037 -0.3299 -0.1604
  517TIP3    H123042   6.078   6.755   3.129  1.2556  3.6314  2.3791
  517TIP3    H223043   6.141   6.758   3.266  2.6841 -3.7285  2.3019
  518TIP3   OH223044   0.828   4.421   1.887  0.3354  0.0014 -0.2934
  518TIP3    H123045   0.882   4.374   1.823 -0.5857 -0.4701 -0.7328
  518TIP3    H223046   0.858   4.389   1.972  0.6613 -0.3427 -0.5380
  519TIP3   OH223047   6.544   3.667   1.986  0.3753  0.9487  0.3373
  519TIP3    H123048   6.534   3.573   1.978  1.4287  0.9562 -1.5420
  519TIP3    H223049   6.541   3.684   2.080 -1.8117 -0.6862  0.6354
  520TIP3   OH223050   1.464   1.075   6.130 -0.1522  0.0511  0.7460
  520TIP3    H123051   1.471   1.126   6.211  1.0169 -0.5563  1.0366
  520TIP3    H223052   1.472   0.984   6.158 -0.0836 -0.1844 -0.0223
  521TIP3   OH223053   6.379   2.079  12.114  0.0995 -0.1549 -0.2783
  521TIP3    H123054   6.345   2.150  12.058  1.8810  1.5982  0.7403
  521TIP3    H223055   6.433   2.124  12.179  0.6432 -2.4181  0.9218
  522TIP3   OH223056   1.226   4.081   4.077 -0.1168  0.7145 -0.0208
  522TIP3    H123057   1.136   4.071   4.106  0.6004 -0.3564  2.0767
  522TIP3    H223058   1.248   4.172   4.095  0.0624  0.2805  2.3468
  523TIP3   OH223059   3.979   3.352  15.930 -0.0311 -0.5463  0.2628
  523TIP3    H123060   4.010   3.330  15.843 -0.2950 -1.5027  0.4090
  523TIP3    H223061   3.884   3.358  15.921  0.0074  0.2978  0.2863
  524TIP3   OH223062   3.562   0.058   3.954 -0.0892 -0.1457 -0.7171
  524TIP3    H123063   3.501  -0.004   3.913  0.1739 -0.1184 -1.1529
  524TIP3    H223064   3.644   0.009   3.962 -0.1711 -0.1866 -0.1193
  525TIP3   OH223065   3.295   3.379  16.060  0.1756  0.0899  0.3147
  525TIP3    H123066   3.345   3.338  16.130 -0.6958 -1.9514 -0.1958
  525TIP3    H223067   3.211   3.402  16.101  0.2409  0.3432  0.3118
  526TIP3   OH223068   5.371   3.300   3.001  0.7846 -0.2409  0.3533
  526TIP3    H123069   5.395   3.284   3.093  0.2968 -1.4114  0.2999
  526TIP3    H223070   5.417   3.232   2.952 -0.9535 -1.2647  0.0333
  527TIP3   OH223071   4.791   5.211   2.830 -0.3539  0.1928  0.2877
  527TIP3    H123072   4.771   5.121   2.855  1.1803  0.0389  1.0922
  527TIP3    H223073   4.814   5.207   2.738 -1.3503 -0.0454  0.0411
  528TIP3   OH223074   0.072   6.014  15.610  0.1784  0.0937 -0.1701
  528TIP3    H123075   0.083   6.012  15.515  0.7276  0.3408 -0.1132
  528TIP3    H223076   0.107   6.099  15.636 -0.0799  0.0736  0.2428
  529TIP3   OH223077   5.017   1.292   6.011 -0.4159  0.1176  0.2040
  529TIP3    H123078   5.039   1.265   5.921  1.1595  1.6152  0.0775
  529TIP3    H223079   5.063   1.229   6.066  0.0225  0.2044 -0.0554
  530TIP3   OH223080   3.790   1.716   5.619  0.1508 -0.2113  0.4811
  530TIP3    H123081   3.826   1.632   5.591  0.8382 -0.4261  1.9032
  530TIP3    H223082   3.826   1.780   5.558 -1.1671 -1.0260 -1.2321
  531TIP3   OH223083   6.301   5.622  16.452  0.7128 -0.6033 -0.1805
  531TIP3    H123084   6.212   5.637  16.418  0.4708 -0.2133  0.6163
  531TIP3    H223085   6.353   5.603  16.374  0.1598  0.2670 -0.7822
  532TIP3   OH223086   1.009   0.492  16.225  0.3153 -0.3833  0.1641
  532TIP3    H123087   0.977   0.481  16.314  1.7720 -2.6521  0.4909
  532TIP3    H223088   1.098   0.525  16.235  0.9533 -1.8368 -0.3230
  533TIP3   OH223089   1.965   2.322   3.474 -0.1740  0.1074 -0.2910
  533TIP3    H123090   1.947   2.247   3.531  1.4968 -0.5205 -0.5273
  533TIP3    H223091   2.036   2.368   3.518 -0.7995  1.2490 -0.4487
  534TIP3   OH223092   6.423   2.339   4.101 -0.5262 -0.2703 -0.0549
  534TIP3    H123093   6.396   2.365   4.013  0.3787  0.5249 -0.1112
  534TIP3    H223094   6.506   2.384   4.115 -0.1897 -1.1277  0.8476
  535TIP3   OH223095   0.402   4.389   0.645  0.2942 -0.0529  0.5905
  535TIP3    H123096   0.435   4.330   0.577 -0.9493  0.2842 -0.3507
  535TIP3    H223097   0.463   4.463   0.645  1.5530 -1.0389  1.4044
  536TIP3   OH223098   2.010   1.024   1.009  0.6385 -0.3320 -1.0198
  536TIP3    H123099   2.011   0.993   0.918  1.5964  1.4213 -1.6605
  536TIP3    H223100   1.950   1.099   1.008 -0.7909 -1.4187  0.2288
  537TIP3   OH223101   3.078   0.357   4.818 -0.0135  0.0493  0.0779
  537TIP3    H123102   3.141   0.371   4.889 -0.5337  0.0177  0.5516
  537TIP3    H223103   3.091   0.265   4.793 -0.2865 -0.1352  0.5905
  538TIP3   OH223104   2.397   4.071   4.152  0.1213  0.5036  0.1436
  538TIP3    H123105   2.424   4.161   4.131 -0.8413  0.8606  0.3933
  538TIP3    H223106   2.318   4.057   4.101  1.4688 -1.0213 -1.6503
  539TIP3   OH223107   4.661   5.456  11.791 -0.1014  0.3397 -0.1944
  539TIP3    H123108   4.599   5.386  11.771  0.2223 -0.3915  1.2425
  539TIP3    H223109   4.706   5.426  11.870  2.5037  0.5675 -1.4923
  540TIP3   OH223110   1.685   5.276  12.894 -0.4349 -0.1865  0.6592
  540TIP3    H123111   1.601   5.292  12.936 -0.3015  0.0162  0.8530
  540TIP3    H223112   1.682   5.326  12.813 -0.9600 -1.1193  0.0810
  541TIP3   OH223113   3.551   4.920  11.501  0.3979  0.1085 -0.1523
  541TIP3    H123114   3.469   4.876  11.481  0.8656 -0.9750  0.2524
  541TIP3    H223115   3.575   4.967  11.421 -0.5696  0.3732 -0.2900
  542TIP3   OH223116   2.101   5.546  11.652  0.1237  0.1046  0.4715
  542TIP3    H123117   2.168   5.518  11.589 -0.2485 -0.1742  0.1917
  542TIP3    H223118   2.027   5.572  11.597 -0.7255 -1.4605  0.7993
  543TIP3   OH223119   2.278   5.313  13.448 -0.1463  0.0306  0.0819
  543TIP3    H123120   2.257   5.248  13.515 -2.5465 -0.8681 -1.4088
  543TIP3    H223121   2.238   5.394  13.481 -0.6500 -0.2203  0.0989
  544TIP3   OH223122   4.410   3.848  12.960 -0.0298  0.3182 -0.6569
  544TIP3    H123123   4.491   3.809  12.928 -0.8821  0.2036 -2.8480
  544TIP3    H223124   4.363   3.875  12.881 -1.2813  2.1392  0.6285
  545TIP3   OH223125   0.820   4.239  16.707  0.4415  0.2027  0.3390
  545TIP3    H123126   0.738   4.190  16.711  0.7988 -0.7143 -1.9069
  545TIP3    H223127   0.794   4.328  16.685  0.0279 -0.2425 -1.1135
  546TIP3   OH223128   0.999   2.703   0.427 -0.0062 -0.0162  0.1847
  546TIP3    H123129   1.036   2.617   0.407  1.0733  0.0422  1.6635
  546TIP3    H223130   0.937   2.686   0.498 -0.1698  0.3500  0.1288
  547TIP3   OH223131   6.417   3.529  13.103 -0.3544  0.2544 -0.0200
  547TIP3    H123132   6.486   3.535  13.169 -2.8746  0.9680  2.7697
  547TIP3    H223133   6.386   3.619  13.092 -0.7568 -0.0220 -1.3024
  548TIP3   OH223134   3.486   1.218  12.150  0.6484  0.0316  0.1466
  548TIP3    H123135   3.481   1.296  12.205  1.6710 -0.2424  0.6624
  548TIP3    H223136   3.407   1.168  12.173  0.0552  0.8451 -0.0978
  549TIP3   OH223137   5.196   5.775  15.331  0.0887  0.4104  0.4917
  549TIP3    H123138   5.137   5.745  15.401  1.0575  0.3833  1.3218
  549TIP3    H223139   5.260   5.704  15.322 -0.2006  0.2836 -0.6490
  550TIP3   OH223140   3.358   4.175  13.914  0.3284  0.1378  0.2194
  550TIP3    H123141   3.307   4.101  13.945 -1.6538  0.5902 -1.6393
  550TIP3    H223142   3.445   4.163  13.951 -0.6842 -1.5673  2.2344
  551TIP3   OH223143   5.999   6.440  15.305  0.8367 -0.1935  0.1098
  551TIP3    H123144   5.972   6.460  15.215 -1.7928  1.1807  1.0833
  551TIP3    H223145   6.066   6.504  15.326  0.7457  0.1170 -0.5527
  552TIP3   OH223146   0.264   4.833   5.451  0.1997 -0.0200 -0.1519
  552TIP3    H123147   0.250   4.771   5.522  1.2916  0.5748  0.6112
  552TIP3    H223148   0.314   4.784   5.385 -1.9723 -0.9882 -1.1759
  553TIP3   OH223149   1.077   0.334   2.005 -0.3673  0.3513  0.1114
  553TIP3    H123150   1.060   0.358   2.096  0.1882 -2.9875  1.2396
  553TIP3    H223151   1.020   0.260   1.988  0.7398 -0.1648 -1.6964
  554TIP3   OH223152   0.385   3.338   4.513  0.3707 -0.3411  0.1492
  554TIP3    H123153   0.444   3.404   4.549  0.1354 -0.8203  1.4743
  554TIP3    H223154   0.317   3.327   4.580 -0.7705 -0.4055 -0.9806
  555TIP3   OH223155   2.052   1.051  11.764 -0.3708  0.2425 -0.4567
  555TIP3    H123156   2.125   1.068  11.704  0.0387  2.1123  0.4915
  555TIP3    H223157   2.090   0.998  11.833 -0.4510 -0.5465 -1.0005
  556TIP3   OH223158   1.526   4.526  15.216 -0.2142  0.1527  0.5244
  556TIP3    H123159   1.570   4.484  15.142 -0.7141 -0.3974  0.5407
  556TIP3    H223160   1.444   4.479  15.226 -0.7128  1.0283  0.6483
  557TIP3   OH223161   3.019   6.617   5.515 -0.2570  0.1549  0.0310
  557TIP3    H123162   3.033   6.688   5.453  1.4311 -1.4298 -1.5221
  557TIP3    H223163   3.082   6.634   5.585  0.4273  0.0133 -0.5328
  558TIP3   OH223164   4.654   2.170   4.941 -0.2505 -0.5616 -0.6347
  558TIP3    H123165   4.726   2.125   4.896 -0.7615 -0.7196 -1.3128
  558TIP3    H223166   4.692   2.253   4.970 -0.2449  0.1621 -2.5584
  559TIP3   OH223167   4.226   1.331   5.024 -0.0855 -0.1260 -0.0231
  559TIP3    H123168   4.257   1.351   4.935 -2.3877  0.3140 -0.7878
  559TIP3    H223169   4.197   1.240   5.019  2.4253 -1.0959  1.1458
  560TIP3   OH223170   1.338   1.414  11.566 -0.4219  0.3256  0.0491
  560TIP3    H123171   1.425   1.434  11.603 -0.0595 -1.1594  0.0590
  560TIP3    H223172   1.354   1.342  11.505 -1.7877 -0.6781  0.8140
  561TIP3   OH223173   4.149   5.783  15.816 -0.4919  0.2546  0.0253
  561TIP3    H123174   4.202   5.707  15.839  3.6376  1.9399 -2.6686
  561TIP3    H223175   4.172   5.849  15.882 -1.0350  0.3328  0.1412
  562TIP3   OH223176   3.455   5.606  14.073 -0.3618 -0.3227  0.1949
  562TIP3    H123177   3.530   5.614  14.132  0.8393  0.5742 -1.3930
  562TIP3    H223178   3.473   5.530  14.019 -1.1159 -0.7231  0.4908
  563TIP3   OH223179   0.814   2.951   3.273  0.1815  0.0643  0.0885
  563TIP3    H123180   0.758   2.998   3.211 -0.2575  0.7966  1.0068
  563TIP3    H223181   0.898   2.941   3.227 -0.4994 -0.4824 -1.0589
  564TIP3   OH223182   0.260   3.317  14.867  0.0823 -0.5617  0.2201
  564TIP3    H123183   0.256   3.260  14.790 -0.0912  0.0299 -0.2105
  564TIP3    H223184   0.340   3.369  14.854  0.4318 -0.9410  0.7853
  565TIP3   OH223185   6.596   2.686   5.417 -0.4992 -0.0542 -0.3149
  565TIP3    H123186   6.514   2.682   5.369 -0.6223  1.0806 -0.2147
  565TIP3    H223187   6.585   2.625   5.489 -1.3506  0.2728 -0.1619
  566TIP3   OH223188   6.823   5.853  13.416  0.7114 -0.2685  0.2186
  566TIP3    H123189   6.784   5.917  13.357  0.4416  0.6169  1.3110
  566TIP3    H223190   6.914   5.845  13.387  0.6533  0.3443 -0.1474
  567TIP3   OH223191   5.122   0.502  15.292  0.1169 -0.3803 -0.2128
  567TIP3    H123192   5.169   0.420  15.307  1.1766  0.1062 -0.7966
  567TIP3    H223193   5.120   0.512  15.197  0.4958  0.5460 -0.1335
  568TIP3   OH223194   1.202   5.395   1.287 -0.4091 -0.6375 -0.1360
  568TIP3    H123195   1.296   5.389   1.277 -0.4213 -0.1469 -0.5943
  568TIP3    H223196   1.182   5.343   1.365  0.2967 -0.3255  0.2525
  569TIP3   OH223197   1.012   0.472  11.196 -0.0855 -0.2586  0.1795
  569TIP3    H123198   1.007   0.504  11.106  0.2276 -1.4968 -0.3111
  569TIP3    H223199   1.076   0.528  11.239 -1.8152  1.7482  0.2796
  570TIP3   OH223200   6.494   5.678  12.470  0.0081  0.1622  0.4536
  570TIP3    H123201   6.451   5.715  12.393  0.6392  0.8239  0.4096
  570TIP3    H223202   6.459   5.589  12.477  0.1361  0.0117 -0.7438
  571TIP3   OH223203   1.751   2.189  10.511  0.0515 -0.0058 -0.7463
  571TIP3    H123204   1.681   2.133  10.478 -0.8934 -0.1892  1.3968
  571TIP3    H223205   1.708   2.273  10.530 -0.1864 -0.7188  2.4885
  572TIP3   OH223206   1.659   2.121  16.825 -0.4350  0.2015 -0.0847
  572TIP3    H123207   1.741   2.073  16.839 -0.9833 -1.3934 -1.8297
  572TIP3    H223208   1.687   2.208  16.796  0.5929  1.1802  3.4015
  573TIP3   OH223209   3.385   3.370   5.434 -0.1029  0.2663 -0.2994
  573TIP3    H123210   3.355   3.317   5.360  2.1485 -2.0633  0.2994
  573TIP3    H223211   3.336   3.452   5.427 -1.4333 -0.6585 -3.1664
  574TIP3   OH223212   0.662   3.385   4.685 -0.3343  0.0214  0.3614
  574TIP3    H123213   0.740   3.341   4.718 -1.0139 -2.7957 -1.4510
  574TIP3    H223214   0.611   3.404   4.764 -0.7690 -4.1500  1.3315
  575TIP3   OH223215   1.059   3.037  14.371  0.1875  0.3752  0.1899
  575TIP3    H123216   1.142   3.086  14.371 -1.5826  3.6443  1.3193
  575TIP3    H223217   1.028   3.043  14.461 -2.4492  1.5412 -0.6981
  576TIP3   OH223218   2.280   0.954   2.899 -0.0988  0.0146 -0.0663
  576TIP3    H123219   2.191   0.977   2.871  0.4243  0.3606 -1.5387
  576TIP3    H223220   2.281   0.858   2.897 -0.3818  0.0137 -0.2318
  577TIP3   OH223221   1.050   6.034   2.592  0.4564 -0.4646 -0.0627
  577TIP3    H123222   1.040   5.988   2.675  0.8954 -1.2465 -0.4363
  577TIP3    H223223   1.137   6.009   2.561 -0.3478 -1.5079 -1.5665
  578TIP3   OH223224   0.968   3.824   3.309  0.4392 -0.4020  0.6363
  578TIP3    H123225   0.904   3.785   3.368 -0.8020  0.3911 -0.1276
  578TIP3    H223226   0.976   3.915   3.339 -0.3198  0.0527 -0.4733
  579TIP3   OH223227   5.219   4.421   3.552  1.0121  0.2201 -0.2352
  579TIP3    H123228   5.183   4.440   3.638  0.4484  1.0077 -0.6359
  579TIP3    H223229   5.265   4.337   3.563 -1.5877 -1.2646  0.1315
  580TIP3   OH223230   2.967   0.325   2.619  0.6190 -0.4205  0.4897
  580TIP3    H123231   2.924   0.323   2.704 -0.1900  2.0279  0.2179
  580TIP3    H223232   3.038   0.388   2.629 -0.1060  0.6877 -0.8478
  581TIP3   OH223233   3.363   0.891  11.606 -0.2257  0.4822 -0.4835
  581TIP3    H123234   3.377   0.868  11.515  0.3384 -0.1833 -0.2355
  581TIP3    H223235   3.276   0.855  11.626  1.1262 -2.7915  0.2614
  582TIP3   OH223236   1.935   6.689  15.667 -0.8015 -0.2064 -0.2034
  582TIP3    H123237   1.870   6.619  15.676 -1.6991  0.6943  0.4407
  582TIP3    H223238   1.955   6.690  15.573 -3.1922  0.7677 -0.7787
  583TIP3   OH223239   1.683   4.232  12.320 -0.2894  0.6290  0.1407
  583TIP3    H123240   1.653   4.173  12.390  0.1659  0.7991  0.4854
  583TIP3    H223241   1.743   4.179  12.268 -0.5817  0.5202 -0.0850
  584TIP3   OH223242   0.790   3.682  11.647 -0.8625 -0.2802 -0.0785
  584TIP3    H123243   0.801   3.651  11.736 -1.4958  1.9090  0.8333
  584TIP3    H223244   0.796   3.603  11.593  0.8806 -1.4926  1.7434
  585TIP3   OH223245   6.486   3.958  11.156  0.5626  0.4032  0.2216
  585TIP3    H123246   6.439   3.890  11.204 -1.3301  1.1730 -0.4723
  585TIP3    H223247   6.549   3.992  11.220  0.1725 -0.6219  1.1953
  586TIP3   OH223248   3.808   1.389  15.890 -0.5204  0.4441  0.1375
  586TIP3    H123249   3.890   1.361  15.930 -1.7691 -0.7457  1.9967
  586TIP3    H223250   3.767   1.447  15.955 -1.3071  0.7693 -0.6218
  587TIP3   OH223251   5.517   4.953   0.854  0.3885  0.1962  0.0333
  587TIP3    H123252   5.442   4.986   0.804  1.2242  1.0361 -0.7088
  587TIP3    H223253   5.542   4.872   0.810 -0.5090 -0.4669  0.7156
  588TIP3   OH223254   1.383   6.128   2.801  0.3636 -0.5170 -0.4483
  588TIP3    H123255   1.418   6.182   2.873 -0.2155 -1.1100  0.3008
  588TIP3    H223256   1.334   6.059   2.846  0.1657 -1.0170 -1.4252
  589TIP3   OH223257   6.591   6.295   6.349  0.0038 -0.0051  0.2554
  589TIP3    H123258   6.548   6.221   6.306  0.3200 -0.8742  1.3886
  589TIP3    H223259   6.520   6.357   6.367 -0.2193  0.1342 -0.9599
  590TIP3   OH223260   5.055   2.060  13.191 -0.2097 -0.0643 -0.1210
  590TIP3    H123261   5.092   1.996  13.252 -0.2354  0.0816  0.0493
  590TIP3    H223262   5.109   2.138  13.204 -0.4232  0.0732 -0.0451
  591TIP3   OH223263   2.686   6.596  16.437 -0.2497  0.1961 -0.3310
  591TIP3    H123264   2.720   6.685  16.437 -1.3684  0.6846  1.9601
  591TIP3    H223265   2.612   6.598  16.376 -1.0513  1.2014  0.6350
  592TIP3   OH223266   2.685   3.573   4.982 -0.2367 -0.2804  0.7222
  592TIP3    H123267   2.633   3.536   5.054 -1.3048  1.6369  1.0165
  592TIP3    H223268   2.741   3.638   5.025  0.8777 -0.8112  0.1081
  593TIP3   OH223269   3.090   2.039  10.255  0.0556  0.1120 -0.0919
  593TIP3    H123270   3.024   2.102  10.283  0.1521  0.1362  0.0852
  593TIP3    H223271   3.040   1.968  10.214 -0.0468  0.3427 -0.3712
  594TIP3   OH223272   5.738   2.924   0.986 -0.0225  0.1048 -0.3819
  594TIP3    H123273   5.694   2.997   0.942 -0.6222  0.5630  0.9397
  594TIP3    H223274   5.774   2.963   1.066 -2.1731 -1.4082  1.4483
  595TIP3   OH223275   1.095   2.191  14.529 -0.3523 -0.1219  0.1604
  595TIP3    H123276   1.164   2.148  14.580 -1.8752 -1.3746  1.2733
  595TIP3    H223277   1.070   2.266  14.582 -0.9803 -0.6375  0.6166
  596TIP3   OH223278   5.294   1.604   5.482  0.0898  0.0419 -0.4497
  596TIP3    H123279   5.207   1.632   5.451 -0.3472  0.9740  1.4860
  596TIP3    H223280   5.300   1.638   5.571  1.9398 -1.1375 -0.0734
  597TIP3   OH223281   3.177   4.560  13.677 -0.3308 -0.3280  0.2326
  597TIP3    H123282   3.211   4.609  13.602  0.4897  0.5551  1.1641
  597TIP3    H223283   3.082   4.570  13.670 -0.2146  0.6822 -0.0801
  598TIP3   OH223284   6.219   2.522   2.970  0.2302 -0.6419  0.0303
  598TIP3    H123285   6.173   2.500   3.051  0.4989 -0.5001  0.2240
  598TIP3    H223286   6.186   2.608   2.946  2.1428  0.5955  1.5019
  599TIP3   OH223287   3.576   6.637  12.897 -0.6313 -0.2710  0.5026
  599TIP3    H123288   3.487   6.652  12.929 -0.7559 -0.7249  0.3839
  599TIP3    H223289   3.630   6.630  12.976 -1.0682 -2.2380  0.7028
  600TIP3   OH223290   2.899   4.856  12.614  0.4832  0.2795  0.2438
  600TIP3    H123291   2.969   4.812  12.662 -0.9565 -0.9798  1.3286
  600TIP3    H223292   2.889   4.940  12.658  1.9565  0.9291 -0.5875
  601TIP3   OH223293   1.071   1.563  14.295  0.3767  0.2436  0.2546
  601TIP3    H123294   1.077   1.533  14.386 -1.6353 -2.2933 -0.3695
  601TIP3    H223295   0.991   1.615  14.292  0.6272  0.6210 -0.0137
  602TIP3   OH223296   2.450   1.830  13.806  0.1573 -0.0159 -0.4184
  602TIP3    H123297   2.441   1.748  13.759  1.2647  0.3983 -1.4196
  602TIP3    H223298   2.418   1.897  13.745 -3.2869  0.1450  1.3494
  603TIP3   OH223299   2.956   4.273  13.201  0.7508 -0.0798 -0.1676
  603TIP3    H123300   2.892   4.339  13.227 -0.5310 -1.0766 -0.6674
  603TIP3    H223301   2.959   4.278  13.105 -1.0248 -2.1651 -0.4017
  604TIP3   OH223302   0.713   0.107  14.017  0.1210  0.1023 -0.2588
  604TIP3    H123303   0.686   0.134  13.929  1.1019 -0.4007 -0.7373
  604TIP3    H223304   0.632   0.107  14.068 -0.1680  2.3584 -0.6187
  605TIP3   OH223305   5.782   1.156  13.871  0.0382 -0.9815 -0.5029
  605TIP3    H123306   5.803   1.074  13.826  2.7382  0.4193 -2.0395
  605TIP3    H223307   5.866   1.188  13.904 -1.2662  0.1261  2.0013
  606TIP3   OH223308   0.846   1.114   0.751  0.1298  0.0987 -0.6060
  606TIP3    H123309   0.773   1.104   0.690 -1.5957 -0.3062  1.4073
  606TIP3    H223310   0.880   1.025   0.761 -0.3694 -0.0312 -0.0620
  607TIP3   OH223311   5.276   1.210  13.043  0.1523 -0.4384 -0.0990
  607TIP3    H123312   5.323   1.155  13.105 -0.1166  0.4936  0.9686
  607TIP3    H223313   5.190   1.169  13.034  0.3866 -0.8888 -0.2939
  608TIP3   OH223314   5.529   3.853   3.770  0.5609  0.4045  0.0810
  608TIP3    H123315   5.538   3.923   3.705  0.3043 -1.4166 -2.0224
  608TIP3    H223316   5.500   3.777   3.720 -1.8416 -0.5571  2.6659
  609TIP3   OH223317   5.903   2.617   3.464  0.0752 -0.3470  0.2847
  609TIP3    H123318   5.944   2.703   3.475  1.4701 -0.8180 -0.9050
  609TIP3    H223319   5.814   2.635   3.436  0.0454  0.7007  1.0060
  610TIP3   OH223320   6.470   3.939  17.092  0.3972  0.6542  0.5968
  610TIP3    H123321   6.550   3.937  17.040 -0.6140 -1.2501 -1.0024
  610TIP3    H223322   6.492   3.892  17.172  0.2517 -2.2760 -0.9556
  611TIP3   OH223323   1.619   1.848  12.999 -0.1104 -0.1795 -0.2372
  611TIP3    H123324   1.709   1.820  12.984 -0.0212 -0.7123  1.0748
  611TIP3    H223325   1.586   1.786  13.065 -1.4234  0.0257 -0.6718
  612TIP3   OH223326   5.371   1.008  15.394 -0.2512  0.3177 -0.0323
  612TIP3    H123327   5.333   0.945  15.456  0.7672 -2.8477 -2.3450
  612TIP3    H223328   5.390   1.086  15.447  0.2598 -2.0203  3.5839
  613TIP3   OH223329   4.201   4.514   6.106 -0.4161  0.3303  0.4725
  613TIP3    H123330   4.142   4.575   6.062  2.0946  1.7833 -1.1453
  613TIP3    H223331   4.233   4.561   6.183 -0.5143  0.0003  0.7168
  614TIP3   OH223332   3.662   0.526  10.582  0.3412 -0.2832  0.0270
  614TIP3    H123333   3.750   0.557  10.560  1.4071 -3.4491 -0.7288
  614TIP3    H223334   3.627   0.495  10.499 -1.3243  0.4116  0.4310
  615TIP3   OH223335   2.816   4.738   5.399 -0.1591 -0.1539 -0.0193
  615TIP3    H123336   2.780   4.818   5.360  0.5643  0.1181 -0.1530
  615TIP3    H223337   2.899   4.724   5.352 -1.9186 -3.0710 -2.6617
  616TIP3   OH223338   1.476   5.084   4.825  0.6226  0.2426 -0.6417
  616TIP3    H123339   1.550   5.071   4.884  0.8778  1.2191 -0.7288
  616TIP3    H223340   1.513   5.127   4.749 -0.2821  2.3621  0.0357
  617TIP3   OH223341   5.474   2.726  13.441  0.5062  0.5902  0.2623
  617TIP3    H123342   5.442   2.814  13.462 -2.5538  0.5269 -3.1198
  617TIP3    H223343   5.470   2.678  13.524 -4.3797  1.9051  1.0772
  618TIP3   OH223344   5.529   6.108   1.732 -0.4175  0.3089 -0.6835
  618TIP3    H123345   5.457   6.048   1.711 -0.1377 -0.4081  0.3298
  618TIP3    H223346   5.498   6.193   1.702 -0.9377 -0.2828 -1.9048
  619TIP3   OH223347   2.403   4.904   4.413 -0.1444  0.3286 -0.0401
  619TIP3    H123348   2.441   4.871   4.332  0.2233  0.7313 -0.0362
  619TIP3    H223349   2.441   4.850   4.482  1.9052  1.9142  0.1489
  620TIP3   OH223350   1.497   2.486   4.033  0.2603 -0.1982  0.2561
  620TIP3    H123351   1.567   2.548   4.010 -0.5286  0.5517 -0.1567
  620TIP3    H223352   1.524   2.451   4.118  1.9062 -1.0531 -0.5646
  621TIP3   OH223353   0.206   2.666   4.880 -0.2920 -0.3790 -0.5975
  621TIP3    H123354   0.200   2.584   4.832  0.0215 -0.9004  0.2322
  621TIP3    H223355   0.280   2.712   4.841  1.8082 -2.0264  1.1514
  622TIP3   OH223356   0.958   6.732   2.446 -0.1498  0.6555 -0.1720
  622TIP3    H123357   0.915   6.647   2.439  1.9521 -0.5255  0.6235
  622TIP3    H223358   0.892   6.788   2.488 -1.4554 -0.6331 -0.4115
  623TIP3   OH223359   3.508   5.550   2.075 -0.7677 -0.2677  0.5546
  623TIP3    H123360   3.480   5.630   2.118  2.5600  0.9054  0.8736
  623TIP3    H223361   3.475   5.557   1.985 -0.1316  1.7854  0.4265
  624TIP3   OH223362   5.855   3.794  13.009  0.2050 -0.1519 -0.6712
  624TIP3    H123363   5.860   3.703  12.981 -4.0426 -0.9191  0.3569
  624TIP3    H223364   5.854   3.844  12.927 -1.6863 -1.4729 -1.5346
  625TIP3   OH223365   6.328   5.015  13.513  0.0371  0.6270 -0.1328
  625TIP3    H123366   6.245   5.058  13.533 -0.5202 -0.7625  0.7195
  625TIP3    H223367   6.345   4.960  13.589  1.4405  0.4287 -0.5645
  626TIP3   OH223368   6.723   2.050  11.705 -0.5515  0.6041  0.1149
  626TIP3    H123369   6.652   2.087  11.653 -1.1870  0.9291  1.1975
  626TIP3    H223370   6.701   1.958  11.713 -0.5002  0.5717 -0.0991
  627TIP3   OH223371   0.198   1.312   5.741 -0.4737 -0.6842 -0.1602
  627TIP3    H123372   0.183   1.381   5.806  0.3649  0.0342 -0.7165
  627TIP3    H223373   0.189   1.356   5.657  1.9224 -0.8084 -0.5295
  628TIP3   OH223374   4.852   0.824   1.207 -0.2741  0.2163  0.5528
  628TIP3    H123375   4.804   0.803   1.287  0.8743 -0.5489  1.0465
  628TIP3    H223376   4.892   0.742   1.180  0.4879  0.7657 -0.0375
  629TIP3   OH223377   2.326   3.650  10.527 -0.1385  0.2439 -0.5129
  629TIP3    H123378   2.393   3.628  10.592  0.1544 -0.7079 -1.1215
  629TIP3    H223379   2.254   3.589  10.544 -0.8656  1.2526  0.1279
  630TIP3   OH223380   3.186   5.882   0.526 -0.2359  0.2429 -0.1594
  630TIP3    H123381   3.274   5.878   0.563 -0.6374 -0.1944  0.7657
  630TIP3    H223382   3.134   5.822   0.579 -1.2729  1.0434 -0.2300
  631TIP3   OH223383   2.279   4.877   2.712 -0.3568 -0.1362  0.1806
  631TIP3    H123384   2.224   4.850   2.786  1.2124 -0.0573  1.4021
  631TIP3    H223385   2.344   4.935   2.750 -1.2820  2.3455 -1.7704
  632TIP3   OH223386   2.585   4.955  14.043  0.3180  0.1409 -0.0005
  632TIP3    H123387   2.518   5.014  14.076 -0.2222 -0.7690  0.6059
  632TIP3    H223388   2.646   5.011  13.995  0.5580  1.3976  1.6581
  633TIP3   OH223389   5.969   3.315   3.822 -0.0223 -0.3645  0.4368
  633TIP3    H123390   5.879   3.340   3.843 -0.0047  0.5148 -0.4979
  633TIP3    H223391   6.019   3.338   3.900 -0.3961  0.3690  0.4611
  634TIP3   OH223392   6.263   3.270   2.840 -0.4890 -0.4451  0.3038
  634TIP3    H123393   6.289   3.207   2.773  1.4046  0.8350 -0.2324
  634TIP3    H223394   6.270   3.355   2.798  2.4048  0.5626  2.5198
  635TIP3   OH223395   0.885   5.480  11.417 -0.5918 -0.4521  0.1523
  635TIP3    H123396   0.841   5.561  11.392  0.5038  0.0388 -0.2204
  635TIP3    H223397   0.915   5.495  11.506 -0.8125 -0.6362  0.2592
  636TIP3   OH223398   2.235   3.237  16.402 -0.4284  0.2865  0.4062
  636TIP3    H123399   2.181   3.170  16.360  2.3629 -2.2257  0.4922
  636TIP3    H223400   2.182   3.269  16.475 -1.8230 -2.0353  0.4986
  637TIP3   OH223401   4.358   2.450   5.325 -0.1178 -0.2591  0.0275
  637TIP3    H123402   4.312   2.438   5.242  2.5202  0.9459 -1.7560
  637TIP3    H223403   4.317   2.528   5.363 -0.2986  0.1746 -0.9984
  638TIP3   OH223404   3.246   4.484  15.200  0.1071 -0.0174 -0.6481
  638TIP3    H123405   3.207   4.571  15.215 -0.5859 -0.4977  0.4468
  638TIP3    H223406   3.335   4.491  15.235 -1.0032 -0.6763  2.6239
  639TIP3   OH223407   1.688   4.414  16.090  0.2763 -0.3554  0.2020
  639TIP3    H123408   1.769   4.428  16.139 -0.6515  1.4805  1.3088
  639TIP3    H223409   1.686   4.486  16.027  0.4394 -1.5353 -1.2079
  640TIP3   OH223410   3.132   1.385   0.610 -0.9167  0.8628  0.0195
  640TIP3    H123411   3.150   1.292   0.596  0.9165  1.1647  0.1241
  640TIP3    H223412   3.210   1.418   0.655 -1.9500  2.2518  0.8938
  641TIP3   OH223413   2.035   2.981  13.786  0.2960  0.0085 -0.0467
  641TIP3    H123414   1.987   3.010  13.708  1.9792 -1.6982 -1.8161
  641TIP3    H223415   1.990   3.024  13.859 -2.7488 -0.0639 -1.7177
  642TIP3   OH223416   6.276   3.221  16.249 -0.1256  0.9241 -0.3243
  642TIP3    H123417   6.237   3.217  16.336  0.3650  0.9278 -0.1057
  642TIP3    H223418   6.204   3.251  16.192 -0.3064  1.4039  0.1560
  643TIP3   OH223419   5.087   5.735  11.997  0.7419  0.2362 -0.1252
  643TIP3    H123420   5.092   5.710  12.089 -0.8085  1.3944  0.3125
  643TIP3    H223421   5.091   5.830  11.998  2.6513  0.2202 -1.4422
  644TIP3   OH223422   2.725   5.780   1.059  0.7388  0.2178 -0.1361
  644TIP3    H123423   2.696   5.756   0.971  1.8074 -1.0796 -0.1654
  644TIP3    H223424   2.742   5.874   1.054 -1.0044  0.5337 -0.7789
  645TIP3   OH223425   3.347   0.861   5.137  0.6139 -0.2484 -0.4205
  645TIP3    H123426   3.302   0.868   5.222  2.6579  2.6662  0.6133
  645TIP3    H223427   3.277   0.853   5.073 -1.0557 -1.5357  1.4438
  646TIP3   OH223428   5.397   1.146  12.238  0.6978  0.2475 -0.4488
  646TIP3    H123429   5.442   1.189  12.311  0.4163 -1.4937  0.8284
  646TIP3    H223430   5.351   1.073  12.279  0.0570 -0.4438 -2.3163
  647TIP3   OH223431   3.148   3.276   3.181 -0.5996 -0.1548  0.1820
  647TIP3    H123432   3.187   3.273   3.268 -1.1646  0.0305  0.4474
  647TIP3    H223433   3.133   3.370   3.165 -0.9244 -0.2231  0.0807
  648TIP3   OH223434   0.468   4.359   6.431  0.0313  0.0403  0.1361
  648TIP3    H123435   0.432   4.443   6.457  2.5032  1.2836 -0.1202
  648TIP3    H223436   0.526   4.335   6.504 -0.9027 -1.6618  0.3722
  649TIP3   OH223437   1.287   0.813   5.030  0.8115 -0.2291  0.2119
  649TIP3    H123438   1.326   0.764   4.957  0.4694  0.5231 -0.4968
  649TIP3    H223439   1.336   0.784   5.107  1.7361 -0.4350 -0.4330
  650TIP3   OH223440   4.355   2.573   0.249  0.0923 -0.2746 -0.1161
  650TIP3    H123441   4.357   2.529   0.164  1.1033 -1.8573  0.6549
  650TIP3    H223442   4.299   2.649   0.237 -0.5839 -1.0205 -1.9281
  651TIP3   OH223443   5.110   2.861   3.950  0.2393  0.4165  0.1030
  651TIP3    H123444   5.093   2.767   3.952 -1.4514  0.7022  1.0128
  651TIP3    H223445   5.049   2.895   3.885 -2.5177  1.3938  2.9701
  652TIP3   OH223446   2.129   0.401   4.049 -0.3794  0.3142 -0.5887
  652TIP3    H123447   2.137   0.324   3.993 -1.7601 -0.7177  0.5781
  652TIP3    H223448   2.054   0.448   4.013 -0.2037  0.5618 -0.6348
  653TIP3   OH223449   4.207   5.533  13.102  0.3209  0.5298 -0.2533
  653TIP3    H123450   4.182   5.489  13.020  1.1251  0.5221 -0.5072
  653TIP3    H223451   4.299   5.558  13.088  0.0037  1.9332  0.0519
  654TIP3   OH223452   4.703   5.649   1.012 -0.6791 -0.2012  0.1145
  654TIP3    H123453   4.629   5.664   0.953  0.2994 -0.2035 -1.1483
  654TIP3    H223454   4.779   5.685   0.966 -0.0408  0.9105  1.8920
  655TIP3   OH223455   5.939   0.463   5.144  0.1796 -0.3897 -0.4423
  655TIP3    H123456   5.865   0.406   5.162  0.3204 -0.3989  0.1326
  655TIP3    H223457   6.012   0.424   5.191  1.0833 -1.5333 -2.6440
  656TIP3   OH223458   3.360   3.523  11.672 -0.0781  0.5483 -0.4803
  656TIP3    H123459   3.410   3.593  11.630 -0.1265  2.3715  2.2539
  656TIP3    H223460   3.271   3.557  11.678 -0.6200 -0.7077 -1.1028
  657TIP3   OH223461   5.829   4.455   2.549 -0.0508  0.0458 -0.3336
  657TIP3    H123462   5.792   4.373   2.582  1.5837  0.2340  2.2758
  657TIP3    H223463   5.783   4.523   2.599  1.4146  0.4444  0.5192
  658TIP3   OH223464   5.831   1.635   3.960 -0.0799 -0.6349  0.2156
  658TIP3    H123465   5.880   1.628   4.041 -1.4539 -2.6295  0.9559
  658TIP3    H223466   5.887   1.687   3.902  1.1404  0.4304  2.2446
  659TIP3   OH223467   6.300   1.339  15.597 -0.4919 -0.5365  0.2372
  659TIP3    H123468   6.208   1.365  15.590 -0.3924 -0.5173 -1.2557
  659TIP3    H223469   6.342   1.411  15.642 -1.0316 -0.1024  0.0560
  660TIP3   OH223470   1.654   3.057  17.014 -0.1959  0.0816  0.0233
  660TIP3    H123471   1.624   3.031  16.927 -0.9196  1.3678 -0.1388
  660TIP3    H223472   1.749   3.048  17.011  0.3474  4.2455 -2.4187
  661TIP3   OH223473   0.569   6.629  10.907  0.0066  0.4840  0.0006
  661TIP3    H123474   0.535   6.579  10.833  1.0702  0.5257 -0.5428
  661TIP3    H223475   0.535   6.718  10.893  1.3862  0.8573 -1.2974
  662TIP3   OH223476   0.529   6.298  11.088  0.0439 -0.6425 -0.0611
  662TIP3    H123477   0.508   6.391  11.095 -0.8298 -0.7532 -0.9481
  662TIP3    H223478   0.582   6.291  11.008 -0.3769 -0.9810 -0.3138
  663TIP3   OH223479   5.921   2.629   5.223 -0.7579 -0.1057  0.3854
  663TIP3    H123480   5.983   2.643   5.294  0.7568 -0.8674 -0.7271
  663TIP3    H223481   5.951   2.549   5.181 -1.1741  0.6848 -1.5262
  664TIP3   OH223482   0.917   0.825   0.259  0.4924  0.3621 -0.1998
  664TIP3    H123483   0.853   0.830   0.189  0.1053 -0.4585  0.0858
  664TIP3    H223484   0.868   0.794   0.336  1.3285 -0.9195 -0.1466
  665TIP3   OH223485   0.384   2.371  11.357 -0.3635 -0.1434 -0.6556
  665TIP3    H123486   0.303   2.372  11.408  0.6476  0.3517  1.0596
  665TIP3    H223487   0.438   2.305  11.400  1.0290  1.2252 -0.1938
  666TIP3   OH223488   0.951   2.452   2.445 -0.1513 -0.0339  0.0674
  666TIP3    H123489   0.933   2.463   2.539 -1.8192  1.6209 -0.3865
  666TIP3    H223490   1.000   2.370   2.440 -0.4878 -0.4534  2.3304
  667TIP3   OH223491   1.485   4.477  10.661 -0.1732  0.2124  0.4462
  667TIP3    H123492   1.523   4.565  10.671  0.4088  0.1018 -0.6126
  667TIP3    H223493   1.394   4.493  10.637  0.1536  0.5674 -0.6393
  668TIP3   OH223494   5.542   1.413   4.966 -0.4929  0.0958 -0.0328
  668TIP3    H123495   5.474   1.439   5.029 -1.3997  0.8613 -1.2797
  668TIP3    H223496   5.568   1.494   4.924  0.9686 -0.2449  0.1591
  669TIP3   OH223497   3.161   4.988   2.230  0.7373  0.4460 -0.2411
  669TIP3    H123498   3.255   4.969   2.226  0.2074 -4.0510  2.2025
  669TIP3    H223499   3.124   4.939   2.156  0.0574 -0.7458  0.8593
  670TIP3   OH223500   4.007   6.369   0.260 -0.2965 -0.1906  0.3672
  670TIP3    H123501   4.035   6.372   0.351  2.3776 -1.7223 -0.2826
  670TIP3    H223502   3.983   6.277   0.245 -0.9157  0.0848 -0.4301
  671TIP3   OH223503   1.879   3.939  16.238  0.1284 -0.6882 -0.0169
  671TIP3    H123504   1.867   3.929  16.332 -1.5801  0.5406 -0.0509
  671TIP3    H223505   1.793   3.923  16.201 -0.0852  2.1774 -1.0144
  672TIP3   OH223506   5.265   2.439   4.222 -0.3925  0.4365  0.0101
  672TIP3    H123507   5.293   2.392   4.301  1.4497 -0.4215 -1.0946
  672TIP3    H223508   5.298   2.528   4.235 -1.2009  0.6402  0.7487
  673TIP3   OH223509   3.984   3.242  16.557 -0.0799 -0.3314  0.3164
  673TIP3    H123510   4.063   3.290  16.584  0.1327 -0.8754  0.6805
  673TIP3    H223511   4.015   3.153  16.538 -0.6257 -0.5840  0.5883
  674TIP3   OH223512   6.291   5.732  16.726  0.0804 -0.1771 -0.1454
  674TIP3    H123513   6.367   5.730  16.785 -0.1651  0.6419  0.2064
  674TIP3    H223514   6.310   5.663  16.661  1.3566  0.3305 -0.3453
  675TIP3   OH223515   5.200   4.338  11.092  0.2313 -0.9713 -0.3310
  675TIP3    H123516   5.135   4.358  11.159  0.2811 -0.5325 -0.4107
  675TIP3    H223517   5.172   4.388  11.015 -0.4487 -2.3405 -1.0001
  676TIP3   OH223518   5.649   1.862   4.844 -0.0758 -0.3595 -0.2036
  676TIP3    H123519   5.735   1.885   4.809 -0.3135  0.5967 -0.1903
  676TIP3    H223520   5.640   1.916   4.923 -0.1944 -1.3417  0.4594
  677TIP3   OH223521   2.377   4.600  15.290 -0.5227 -0.2644  0.6603
  677TIP3    H123522   2.361   4.524  15.346  0.8373 -0.7895  0.3796
  677TIP3    H223523   2.467   4.589  15.260 -0.6960  0.8405 -0.3484
  678TIP3   OH223524   6.794   3.278   2.198  0.1169  0.3593 -0.2431
  678TIP3    H123525   6.710   3.259   2.155 -0.1191  0.5422  0.1343
  678TIP3    H223526   6.851   3.206   2.172 -0.6715 -0.7143  0.9140
  679TIP3   OH223527   3.760   3.350   4.376  0.2215  0.2533  0.4096
  679TIP3    H123528   3.843   3.388   4.405 -0.0750 -0.0284  1.6861
  679TIP3    H223529   3.747   3.385   4.288  1.9335 -0.0791 -0.0082
  680TIP3   OH223530   4.943   5.488  16.037  0.5126  0.6684 -0.2841
  680TIP3    H123531   5.036   5.465  16.042  0.8065  1.4034 -1.8700
  680TIP3    H223532   4.926   5.535  16.119  1.5938  0.6875 -0.0575
  681TIP3   OH223533   6.326   3.795   2.124  0.1406  0.0232  0.3486
  681TIP3    H123534   6.293   3.816   2.037  0.6152 -0.8178 -0.0399
  681TIP3    H223535   6.298   3.705   2.140  1.1945 -0.2860  0.5078
  682TIP3   OH223536   1.311   0.291   3.778  0.4197  0.3003 -0.2787
  682TIP3    H123537   1.395   0.292   3.825  0.6160  0.8425 -0.6243
  682TIP3    H223538   1.269   0.209   3.805  0.6303  0.4822  0.6530
  683TIP3   OH223539   0.948   6.641  16.023  0.8203 -0.2906 -0.4437
  683TIP3    H123540   0.905   6.648  16.108  1.0428  0.3666 -0.3797
  683TIP3    H223541   0.910   6.563  15.983 -2.0411  1.3335 -1.2559
  684TIP3   OH223542   6.222   4.757   4.909  0.0727  0.2568 -0.2570
  684TIP3    H123543   6.260   4.688   4.964  2.3155  1.3716 -0.2674
  684TIP3    H223544   6.181   4.710   4.837  0.7113 -1.0973  0.2225
  685TIP3   OH223545   1.008   6.297   2.181  0.3759 -0.1488 -0.4212
  685TIP3    H123546   1.088   6.286   2.233 -0.6441  0.1170  1.2846
  685TIP3    H223547   1.037   6.344   2.103  1.7964  0.4627  0.4285
  686TIP3   OH223548   1.582   2.004   1.509 -0.3118  0.0649  0.8338
  686TIP3    H123549   1.561   1.924   1.460  0.8630  0.0831  0.2638
  686TIP3    H223550   1.678   2.008   1.509 -0.3198  0.8245  1.9302
  687TIP3   OH223551   5.531   6.139  16.573 -0.3546 -0.7394 -0.2279
  687TIP3    H123552   5.596   6.125  16.504  0.2637 -1.5403  0.5050
  687TIP3    H223553   5.447   6.136  16.527 -0.2181 -4.7160 -0.5652
  688TIP3   OH223554   3.107   5.804   2.504 -0.5416  0.1571 -0.1506
  688TIP3    H123555   3.046   5.733   2.521  0.3282 -0.0368  2.6891
  688TIP3    H223556   3.134   5.834   2.591  1.4140  1.9559 -1.2729
  689TIP3   OH223557   6.347   0.123  11.212  0.1158 -0.2922  0.1952
  689TIP3    H123558   6.389   0.121  11.298 -1.3199  0.2124  0.9532
  689TIP3    H223559   6.262   0.081  11.226  0.6059 -1.9990 -1.4615
  690TIP3   OH223560   2.740   2.901  12.952 -0.4957 -0.1141 -0.1957
  690TIP3    H123561   2.760   2.995  12.946 -0.6397  0.0344  1.2908
  690TIP3    H223562   2.775   2.874  13.037 -0.9593 -1.2886 -0.3576
  691TIP3   OH223563   4.860   3.633  12.474  0.0956  0.5415  0.0163
  691TIP3    H123564   4.828   3.563  12.417 -0.6345  0.9271 -0.0656
  691TIP3    H223565   4.784   3.691  12.485  0.9124  1.7749 -0.6174
  692TIP3   OH223566   0.768   5.699  11.194 -0.0412 -0.4128  0.3708
  692TIP3    H123567   0.686   5.729  11.155 -0.3686 -2.3114 -0.4885
  692TIP3    H223568   0.815   5.780  11.215 -1.6177  0.7009 -0.1958
  693TIP3   OH223569   1.076   0.766   4.719  0.1604  0.3256 -0.1308
  693TIP3    H123570   1.016   0.817   4.666  0.4698 -1.0408 -1.9142
  693TIP3    H223571   1.026   0.740   4.796 -1.4432 -0.4230 -1.3742
  694TIP3   OH223572   0.839   4.651  14.328  0.2125 -0.0995  0.5446
  694TIP3    H123573   0.797   4.709  14.391  0.7120 -0.0490  0.8328
  694TIP3    H223574   0.876   4.710  14.262 -3.1706 -0.1765 -1.7381
  695TIP3   OH223575   6.557   3.395  14.988 -0.0775  0.8044 -0.4173
  695TIP3    H123576   6.615   3.471  14.997 -0.8915  1.3304  0.5183
  695TIP3    H223577   6.599   3.326  15.040 -0.3981  1.2622  0.4708
  696TIP3   OH223578   2.373   3.079  13.008  0.5957  0.3105 -0.3755
  696TIP3    H123579   2.285   3.116  13.019  0.1695 -0.8351  0.3119
  696TIP3    H223580   2.432   3.150  13.033 -0.1818  0.6486  0.6021
  697TIP3   OH223581   4.053   3.945   1.652 -0.2466  0.0971  0.0293
  697TIP3    H123582   3.979   3.935   1.712 -0.2695 -1.0521 -0.1567
  697TIP3    H223583   4.126   3.971   1.708 -0.3899 -0.4727  0.4910
  698TIP3   OH223584   5.112   1.898  15.559  0.4315 -0.2776  0.5463
  698TIP3    H123585   5.092   1.927  15.648 -1.5321 -1.1413  0.4204
  698TIP3    H223586   5.163   1.970  15.522 -1.0109  1.3007  1.4885
  699TIP3   OH223587   0.212   4.001   4.003 -0.4041 -0.5224  0.4603
  699TIP3    H123588   0.252   3.940   3.940  0.6671 -0.7091  1.2843
  699TIP3    H223589   0.119   3.981   4.000 -0.1389 -1.8556  0.3189
  700TIP3   OH223590   2.350   1.591   1.616  0.2405 -0.1676 -0.0914
  700TIP3    H123591   2.311   1.504   1.607 -3.1576  1.3526 -1.7477
  700TIP3    H223592   2.302   1.645   1.554  2.9021  2.7450  0.1409
  701TIP3   OH223593   0.890   0.371   3.412 -0.4377 -0.1392 -0.0056
  701TIP3    H123594   0.876   0.396   3.321  1.1379  1.6000  0.1832
  701TIP3    H223595   0.806   0.388   3.455 -0.8231  0.1863 -0.8690
  702TIP3   OH223596   2.376   3.363  12.754  0.1052 -0.4814 -0.1277
  702TIP3    H123597   2.383   3.449  12.795 -0.8764  0.1369 -1.1964
  702TIP3    H223598   2.348   3.381  12.664 -0.5589 -1.9359 -0.2463
  703TIP3   OH223599   0.144   6.636   1.799 -0.6239  0.0353 -0.4307
  703TIP3    H123600   0.208   6.579   1.842 -1.5649 -1.1994 -0.5868
  703TIP3    H223601   0.089   6.576   1.748 -0.6851  1.2600 -1.8964
  704TIP3   OH223602   5.603   6.591  15.717 -0.0540 -0.1601  0.3033
  704TIP3    H123603   5.647   6.571  15.634  1.8301  0.0311  1.2041
  704TIP3    H223604   5.511   6.570  15.701 -0.3282  2.4476 -2.7475
  705TIP3   OH223605   5.290   5.757   5.595  0.4242 -0.2884  0.1098
  705TIP3    H123606   5.369   5.767   5.648  0.0877 -1.4568  0.8556
  705TIP3    H223607   5.305   5.676   5.545 -0.1891 -0.3665  0.0535
  706TIP3   OH223608   2.226   0.836   1.914  0.1849 -0.2673 -0.2465
  706TIP3    H123609   2.197   0.859   2.002 -2.7563 -0.1525 -1.1570
  706TIP3    H223610   2.265   0.749   1.923 -0.9204 -0.6611  1.0462
  707TIP3   OH223611   1.677   1.848  10.765 -0.1880  0.0355  0.0985
  707TIP3    H123612   1.725   1.767  10.746  1.3486  1.1856 -1.2744
  707TIP3    H223613   1.654   1.883  10.678  0.9272  2.0346  0.5440
  708TIP3   OH223614   0.205   3.222  11.231 -0.5612 -0.2319 -0.2141
  708TIP3    H123615   0.279   3.196  11.286  0.2599  1.3015 -0.5282
  708TIP3    H223616   0.240   3.223  11.142 -1.3111 -0.6649 -0.5287
  709TIP3   OH223617   6.167   1.992   4.058  0.5814  0.1302  0.1266
  709TIP3    H123618   6.097   1.998   3.992  1.0958 -1.6966 -0.6562
  709TIP3    H223619   6.166   2.077   4.101 -0.4821  1.0244 -1.5299
  710TIP3   OH223620   3.531   4.129   3.834 -0.6460  0.9301 -0.1351
  710TIP3    H123621   3.462   4.170   3.782 -1.8482  0.3634  0.9615
  710TIP3    H223622   3.584   4.081   3.771  0.9768  4.2667 -1.5235
  711TIP3   OH223623   5.926   1.266  15.600  0.2365 -0.2988 -0.2470
  711TIP3    H123624   5.898   1.221  15.520 -0.6262 -1.2827  0.5826
  711TIP3    H223625   5.982   1.337  15.568  1.0353 -1.4853 -1.6614
  712TIP3   OH223626   2.852   0.271   3.120  0.0529  0.6329  0.4430
  712TIP3    H123627   2.762   0.256   3.147  0.3604  0.7221  1.5748
  712TIP3    H223628   2.895   0.186   3.130 -0.5097 -0.1536 -2.7847
  713TIP3   OH223629   3.075   1.128  12.926 -0.0988  0.2281  0.0254
  713TIP3    H123630   3.000   1.074  12.951  1.4109 -1.1979  1.7312
  713TIP3    H223631   3.083   1.193  12.996  0.3041  0.3283 -0.1089
  714TIP3   OH223632   2.813   2.601  11.319 -0.8299  0.0275 -0.3754
  714TIP3    H123633   2.834   2.513  11.350  0.5614 -0.5348 -2.6590
  714TIP3    H223634   2.720   2.612  11.339 -0.8166 -1.5864  0.7723
  715TIP3   OH223635   1.831   5.492  16.405  0.2501  0.0645  0.3902
  715TIP3    H123636   1.850   5.563  16.466 -1.9744  1.3128 -0.2735
  715TIP3    H223637   1.808   5.418  16.462  0.9352  0.3462  1.0619
  716TIP3   OH223638   1.840   5.391  12.296 -0.0936  0.1590  0.3443
  716TIP3    H123639   1.834   5.334  12.220  0.0011 -0.5919  0.8810
  716TIP3    H223640   1.760   5.443  12.294  0.6532  1.3388 -1.1672
  717TIP3   OH223641   4.294   5.791   2.232  0.8136  0.0975 -0.0715
  717TIP3    H123642   4.367   5.731   2.218  0.3958 -0.8657  1.5339
  717TIP3    H223643   4.234   5.774   2.159  0.9781 -1.0415  0.0425
  718TIP3   OH223644   4.657   6.627   2.808 -0.3930 -0.2853 -0.3231
  718TIP3    H123645   4.631   6.544   2.848  1.4304 -0.4640  0.5608
  718TIP3    H223646   4.729   6.605   2.749 -1.4952  0.3378 -2.0021
  719TIP3   OH223647   2.433   2.610   4.317  0.0468 -0.1748  0.2474
  719TIP3    H123648   2.338   2.608   4.312 -0.0111  1.6272 -0.1330
  719TIP3    H223649   2.463   2.595   4.228  0.1409 -1.0534  0.4204
  720TIP3   OH223650   4.011   2.215  15.097 -0.1050 -0.5413 -0.4313
  720TIP3    H123651   4.061   2.140  15.066  0.0032 -0.2962 -0.8425
  720TIP3    H223652   4.004   2.201  15.192  1.9262  0.1314 -0.1481
  721TIP3   OH223653   2.783   0.846  11.175 -0.3194  0.5292 -0.9748
  721TIP3    H123654   2.774   0.751  11.185 -1.2156  0.5891 -1.1543
  721TIP3    H223655   2.694   0.878  11.162 -0.2908  1.6404  1.0818
  722TIP3   OH223656   2.668   3.245   5.623 -0.0405 -0.1760  0.1803
  722TIP3    H123657   2.586   3.286   5.650  0.7978  1.4038  0.4770
  722TIP3    H223658   2.717   3.235   5.705  0.2707 -0.5943 -0.0595
  723TIP3   OH223659   3.917   2.785   2.887 -0.8953 -0.0832  0.0055
  723TIP3    H123660   3.924   2.698   2.928 -2.3911 -0.7392 -1.0366
  723TIP3    H223661   3.862   2.835   2.948 -2.7448 -0.9206 -0.8889
  724TIP3   OH223662   6.547   5.690   1.873  0.0442 -0.2111  0.1250
  724TIP3    H123663   6.489   5.700   1.797  0.7779  0.3428 -0.3732
  724TIP3    H223664   6.635   5.690   1.836  0.3608 -2.2391  0.7429
  725TIP3   OH223665   0.111   3.448  15.635 -0.3849 -0.1185  0.2331
  725TIP3    H123666   0.163   3.384  15.587  0.2063 -0.6017  1.4831
  725TIP3    H223667   0.154   3.532  15.616 -2.0320  0.2067 -2.6168
  726TIP3   OH223668   1.922   4.972   6.084  0.5850 -0.7168  0.1889
  726TIP3    H123669   1.938   4.936   6.171 -0.1852 -0.7815  0.3101
  726TIP3    H223670   1.898   5.063   6.099  0.1195 -0.8161  0.0800
  727TIP3   OH223671   6.286   0.850  11.778  1.1720 -0.1844  0.4625
  727TIP3    H123672   6.194   0.875  11.784  1.8021  2.6066  0.0183
  727TIP3    H223673   6.303   0.803  11.860 -0.7043 -1.1235  0.3653
  728TIP3   OH223674   5.186   0.492   2.120  0.3454  0.8384 -0.0103
  728TIP3    H123675   5.194   0.399   2.144 -0.5215  0.4493 -1.1290
  728TIP3    H223676   5.221   0.496   2.031  2.2423  1.9843  0.7374
  729TIP3   OH223677   1.886   6.514   3.563 -0.4380  0.1433 -0.1026
  729TIP3    H123678   1.864   6.501   3.471  2.3353  0.8540 -0.9557
  729TIP3    H223679   1.821   6.462   3.611 -1.8216 -0.4118 -2.4417
  730TIP3   OH223680   0.721   1.883   5.399 -0.4462  0.2494  0.4062
  730TIP3    H123681   0.744   1.853   5.487 -0.2784 -0.0542  0.2590
  730TIP3    H223682   0.798   1.933   5.370 -0.3673  0.0676  0.3016
  731TIP3   OH223683   2.602   5.868   6.453  0.1124  0.4388 -0.3872
  731TIP3    H123684   2.579   5.853   6.361  0.6325 -0.0688 -0.4436
  731TIP3    H223685   2.638   5.784   6.482 -2.8184 -0.4149  1.1793
  732TIP3   OH223686   6.494   1.512   2.083  0.1712 -0.2335  0.1715
  732TIP3    H123687   6.408   1.530   2.122  0.3496  1.5799 -0.1854
  732TIP3    H223688   6.553   1.503   2.158  0.2693  1.9149  0.4176
  733TIP3   OH223689   1.886   3.508  16.235 -0.4747 -0.2716  0.6335
  733TIP3    H123690   1.913   3.576  16.174  0.2742 -1.2753 -0.1946
  733TIP3    H223691   1.908   3.543  16.322 -0.9387  0.8939  0.3032
  734TIP3   OH223692   6.581   3.215   0.296 -0.2725 -0.2072 -0.5947
  734TIP3    H123693   6.609   3.125   0.278  0.3599 -0.0375 -0.4965
  734TIP3    H223694   6.581   3.258   0.211  0.5640  0.0066 -0.4926
  735TIP3   OH223695   4.306   6.307  11.668 -0.0146  0.0624  0.3981
  735TIP3    H123696   4.345   6.255  11.739 -0.4674  0.1801  0.7394
  735TIP3    H223697   4.360   6.386  11.664  1.1402 -0.7465 -0.6277
  736TIP3   OH223698   4.906   0.745   6.553 -0.1823 -0.4697  0.1113
  736TIP3    H123699   4.953   0.826   6.573  0.5500 -0.5921 -1.0451
  736TIP3    H223700   4.821   0.755   6.597  1.3864 -0.9153  3.6573
  737TIP3   OH223701   0.100   4.268   2.941  0.5834  0.2617 -0.1504
  737TIP3    H123702   0.039   4.336   2.913  2.2534  1.1157 -1.9626
  737TIP3    H223703   0.058   4.186   2.915 -0.5996  0.7132  0.3076
  738TIP3   OH223704   5.290   0.049  15.472  0.4132 -0.4937 -0.0140
  738TIP3    H123705   5.326  -0.039  15.471 -0.5641 -0.9068 -0.5425
  738TIP3    H223706   5.196   0.036  15.459 -0.0434  0.4947  1.9450
  739TIP3   OH223707   4.615   4.425   4.292 -0.4061 -0.0203 -0.3445
  739TIP3    H123708   4.561   4.487   4.341  0.6835  0.4071  0.3703
  739TIP3    H223709   4.689   4.407   4.351  1.0883  0.7048 -1.9028
  740TIP3   OH223710   2.944   6.027   5.891  0.4364  0.5581 -0.2203
  740TIP3    H123711   3.026   6.068   5.862  0.5720  0.2337 -0.3048
  740TIP3    H223712   2.972   5.962   5.956  0.1572  1.1141  0.4724
  741TIP3   OH223713   5.631   5.814   0.025 -0.1141  0.1045  0.3127
  741TIP3    H123714   5.613   5.864  -0.055 -0.4167 -0.4529  0.0272
  741TIP3    H223715   5.613   5.723   0.001  0.6246 -0.1701  0.7688
  742TIP3   OH223716   6.298   4.611   5.456  0.1782 -0.2755  0.5626
  742TIP3    H123717   6.359   4.548   5.493 -0.0762 -0.0096  1.4638
  742TIP3    H223718   6.331   4.696   5.485  0.9292  0.0888 -1.2299
  743TIP3   OH223719   6.142   2.251  16.351  0.0726  0.5588 -0.2205
  743TIP3    H123720   6.115   2.164  16.379  1.8631  0.5856  1.7954
  743TIP3    H223721   6.112   2.309  16.421  1.1468  1.1884 -0.2635
  744TIP3   OH223722   0.071   3.307  11.507  0.4776 -0.6719  0.8472
  744TIP3    H123723   0.105   3.376  11.565  1.2511 -1.4129  1.2980
  744TIP3    H223724   0.144   3.288  11.448 -1.1089  2.0316 -2.3636
  745TIP3   OH223725   2.870   5.853  11.229 -0.2821 -0.4673  0.0308
  745TIP3    H123726   2.811   5.900  11.170 -0.0874 -0.3725 -0.0882
  745TIP3    H223727   2.953   5.899  11.222 -0.5222  0.2084  1.1719
  746TIP3   OH223728   1.890   6.452  14.225 -0.6163 -0.0772 -0.2678
  746TIP3    H123729   1.851   6.430  14.140  0.7895 -0.5099 -0.8389
  746TIP3    H223730   1.940   6.374  14.249 -0.8469  0.1133  0.8857
  747TIP3   OH223731   6.426   3.141  13.424  0.4031  0.4458 -0.2173
  747TIP3    H123732   6.505   3.186  13.393  0.7007 -0.7039 -1.1733
  747TIP3    H223733   6.447   3.048  13.419 -0.8742  0.1273 -0.0883
  748TIP3   OH223734   5.498   6.548   5.807  0.2091 -0.7951 -0.5715
  748TIP3    H123735   5.448   6.567   5.727 -0.1195 -1.2091 -0.4668
  748TIP3    H223736   5.435   6.505   5.864  0.5204 -0.7483 -0.1933
  749TIP3   OH223737   6.477   1.832   1.982 -0.0250 -0.1784 -0.1515
  749TIP3    H123738   6.541   1.785   1.928  0.4125 -0.0622  0.2567
  749TIP3    H223739   6.530   1.875   2.050 -0.4096  0.9453 -0.5396
  750TIP3   OH223740   1.580   6.686  13.300 -0.0198 -0.3414  0.4514
  750TIP3    H123741   1.651   6.686  13.235 -0.5253  0.3878 -0.1276
  750TIP3    H223742   1.509   6.638  13.257 -1.8735  3.5462 -1.3729
  751TIP3   OH223743   1.420   1.344  14.984 -0.7250 -0.4765  0.1362
  751TIP3    H123744   1.345   1.354  14.924  0.7863 -2.1854 -2.2568
  751TIP3    H223745   1.490   1.393  14.942 -0.2914  0.6066  2.0359
  752TIP3   OH223746   3.782   6.586  15.882 -0.1037  0.0999  0.3211
  752TIP3    H123747   3.726   6.531  15.938  0.3808 -0.9374 -0.1858
  752TIP3    H223748   3.720   6.636  15.829 -0.6158 -1.5763 -0.7636
  753TIP3   OH223749   5.044   4.419  11.296  0.1755 -0.2039 -0.6499
  753TIP3    H123750   4.973   4.371  11.253 -0.1452  0.7091 -1.1971
  753TIP3    H223751   5.046   4.385  11.385 -1.5690  0.3469 -0.3480
  754TIP3   OH223752   3.438   0.076   3.119 -0.4638 -0.0372 -0.3333
  754TIP3    H123753   3.446   0.003   3.179 -3.3261  1.3461  2.0113
  754TIP3    H223754   3.368   0.050   3.059  1.4819 -0.8668 -2.3863
  755TIP3   OH223755   5.015   0.281  15.434  0.3314 -0.2938  0.9237
  755TIP3    H123756   5.059   0.269  15.350  1.5850 -1.3384  1.6995
  755TIP3    H223757   4.991   0.374  15.435  2.6991  0.3870  0.5266
  756TIP3   OH223758   5.783   3.257  13.345 -0.2390 -0.1505  0.1879
  756TIP3    H123759   5.821   3.327  13.294  0.2159  0.3961  1.2417
  756TIP3    H223760   5.813   3.177  13.302 -1.9414  0.2292 -1.8954
  757TIP3   OH223761   3.695   0.411   0.346 -0.4494 -0.1611 -0.2807
  757TIP3    H123762   3.628   0.428   0.281  0.0638 -1.4446 -1.1887
  757TIP3    H223763   3.777   0.411   0.296 -0.1314 -1.9966  0.2008
  758TIP3   OH223764   2.634   2.331   3.525  0.5040  0.3946 -0.0180
  758TIP3    H123765   2.614   2.424   3.513  1.9521  0.7859  0.4608
  758TIP3    H223766   2.691   2.308   3.452  4.0457  1.1490  2.3011
  759TIP3   OH223767   1.356   1.435  10.393  0.1094  0.8258 -0.0667
  759TIP3    H123768   1.271   1.423  10.435  0.7861 -0.3378  1.0854
  759TIP3    H223769   1.336   1.460  10.303 -1.5460 -2.1134 -0.6543
  760TIP3   OH223770   2.902   2.577   6.314  0.1453 -0.4164 -0.3269
  760TIP3    H123771   2.808   2.572   6.327  0.2063 -0.0427  0.2575
  760TIP3    H223772   2.921   2.670   6.306  0.4646 -0.4918 -0.4901
  761TIP3   OH223773   0.373   2.776   2.775 -0.5849  0.1509 -0.3008
  761TIP3    H123774   0.360   2.853   2.719  0.0895  0.9283  0.5750
  761TIP3    H223775   0.301   2.718   2.753 -0.8132  0.8071 -1.3592
  762TIP3   OH223776   6.192   6.465   4.914  0.2908 -0.2461  0.3218
  762TIP3    H123777   6.113   6.518   4.904 -0.6996 -1.7299  0.0471
  762TIP3    H223778   6.261   6.516   4.870 -0.0695  1.9010  2.0735
  763TIP3   OH223779   6.468   0.717  13.692 -0.2481  0.2382 -0.1322
  763TIP3    H123780   6.443   0.686  13.605  0.5898  1.8275 -0.9742
  763TIP3    H223781   6.515   0.644  13.731 -0.8476 -0.5792 -0.9052
  764TIP3   OH223782   2.001   5.269   0.424 -0.0065 -0.0542  0.3422
  764TIP3    H123783   2.079   5.217   0.405  0.8808  1.1273  0.6062
  764TIP3    H223784   2.035   5.350   0.462 -1.3738  0.4677  0.5164
  765TIP3   OH223785   5.324   2.707   1.627 -0.3681 -0.4380 -0.1506
  765TIP3    H123786   5.289   2.674   1.544  0.1285  1.2263 -1.0667
  765TIP3    H223787   5.307   2.636   1.690 -2.4563 -0.9846 -1.2405
  766TIP3   OH223788   2.465   4.562   4.212  0.0182  0.4950  0.3103
  766TIP3    H123789   2.516   4.637   4.245  1.3357  0.7448 -2.0565
  766TIP3    H223790   2.388   4.602   4.173 -0.0227  0.4818  0.3781
  767TIP3   OH223791   0.947   5.410   4.978  0.3874  0.4015 -0.3715
  767TIP3    H123792   0.907   5.438   4.896  0.4025  1.6414  0.0190
  767TIP3    H223793   0.930   5.316   4.983  0.1532  0.3577 -1.6552
  768TIP3   OH223794   6.540   2.158  16.036 -0.3496 -0.3836 -0.1983
  768TIP3    H123795   6.458   2.113  16.016 -1.7729  2.1558 -0.5597
  768TIP3    H223796   6.542   2.164  16.132 -1.4927  0.9725 -0.2256
  769TIP3   OH223797   3.186   6.306  14.596 -0.1421 -0.3348 -0.4121
  769TIP3    H123798   3.275   6.272  14.603  0.3833  1.0866  0.3130
  769TIP3    H223799   3.152   6.303  14.686 -0.8200 -0.8222 -0.6764
  770TIP3   OH223800   1.142   6.162   0.827  0.1329 -0.0184  0.8107
  770TIP3    H123801   1.047   6.169   0.817  0.2460  0.5908  0.0670
  770TIP3    H223802   1.178   6.220   0.760  1.0370 -0.4499  0.8988
  771TIP3   OH223803   0.632   4.447   2.272  0.2689  0.6493 -0.3852
  771TIP3    H123804   0.584   4.499   2.208 -3.3573 -2.0622 -0.2120
  771TIP3    H223805   0.668   4.374   2.221 -1.1903 -0.6084  0.2829
  772TIP3   OH223806   4.203   2.731   5.174 -0.0386 -0.0882 -0.4348
  772TIP3    H123807   4.281   2.774   5.208 -0.7851  0.3569  0.7824
  772TIP3    H223808   4.130   2.776   5.216 -0.8627 -2.6228  1.0959
  773TIP3   OH223809   2.857   2.741   5.759  0.3155  0.0328  0.2721
  773TIP3    H123810   2.845   2.731   5.665 -1.3540 -0.0024  0.4608
  773TIP3    H223811   2.951   2.756   5.770  0.5129  0.1723 -1.4000
  774TIP3   OH223812   5.090   6.179   1.179 -0.8477  0.3088 -0.1192
  774TIP3    H123813   5.038   6.259   1.182 -0.4512  0.5870 -0.5133
  774TIP3    H223814   5.163   6.195   1.239 -0.8817  0.1591 -0.0365
  775TIP3   OH223815   4.850   0.344  15.152  0.3162  0.5225 -0.0519
  775TIP3    H123816   4.802   0.427  15.147 -1.7430 -0.5083  1.0824
  775TIP3    H223817   4.781   0.277  15.155  1.9096 -1.2234 -0.6406
  776TIP3   OH223818   4.697   5.059  13.340  0.3303  0.1622 -0.0711
  776TIP3    H123819   4.706   5.155  13.339  0.4554  0.1498 -0.0554
  776TIP3    H223820   4.765   5.029  13.400 -0.2337  0.1211  0.5714
  777TIP3   OH223821   1.664   0.402  11.944  0.2338  0.2775  0.2407
  777TIP3    H123822   1.611   0.410  12.023 -0.6126 -2.1222  0.0181
  777TIP3    H223823   1.717   0.323  11.960  1.0137  0.5185 -1.0549
  778TIP3   OH223824   2.918   6.462   2.452 -0.1121  0.4547 -0.2671
  778TIP3    H123825   2.880   6.460   2.364 -1.2756  0.3410  0.2207
  778TIP3    H223826   2.885   6.383   2.494  1.1883  0.0206 -0.0110
  779TIP3   OH223827   0.246   1.374  11.624 -0.0928  0.5355 -0.6566
  779TIP3    H123828   0.273   1.466  11.635  1.0637  0.1953 -0.5277
  779TIP3    H223829   0.179   1.377  11.556 -0.0273  1.4722 -0.6973
  780TIP3   OH223830   0.419   6.817   3.680  0.1554  0.3481 -1.0232
  780TIP3    H123831   0.345   6.768   3.713 -1.0713  1.1662 -2.4314
  780TIP3    H223832   0.496   6.767   3.708 -0.9139 -0.6126  0.3070
  781TIP3   OH223833   4.649   2.520  16.267 -0.4750  0.2335 -0.5122
  781TIP3    H123834   4.690   2.574  16.334 -0.7099  0.3905 -0.4965
  781TIP3    H223835   4.650   2.431  16.304  0.2485  0.1564 -0.6949
  782TIP3   OH223836   2.568   0.798  14.271  0.9137  0.8390 -0.5098
  782TIP3    H123837   2.583   0.842  14.354  2.2157  1.1292 -0.8642
  782TIP3    H223838   2.473   0.787  14.265  0.8037  0.7973  1.0089
  783TIP3   OH223839   0.532   0.409  14.307  0.1994 -0.4040  0.2788
  783TIP3    H123840   0.604   0.438  14.251  0.4065 -1.6323 -0.1241
  783TIP3    H223841   0.454   0.452  14.270  0.9325  3.0005  2.2277
  784TIP3   OH223842   2.323   3.306   3.050  0.4571  0.1759  0.5706
  784TIP3    H123843   2.262   3.233   3.057  0.8278 -0.4441 -1.6845
  784TIP3    H223844   2.274   3.374   3.003  1.4000 -0.3320 -1.2665
  785TIP3   OH223845   6.446   3.566   3.066  0.0686 -0.1304 -0.0605
  785TIP3    H123846   6.475   3.654   3.041  0.9904 -0.2040  0.6757
  785TIP3    H223847   6.441   3.518   2.983  2.6170 -0.2526 -0.2335
  786TIP3   OH223848   1.122   3.925  13.608  0.2516 -0.4793  0.0721
  786TIP3    H123849   1.175   3.919  13.529 -0.0972  0.7799 -0.2917
  786TIP3    H223850   1.185   3.936  13.679  0.5442 -0.8227 -0.1359
  787TIP3   OH223851   2.874   3.150  14.579  0.2269 -0.6160  0.4977
  787TIP3    H123852   2.789   3.151  14.623  0.1564 -0.1925  0.3568
  787TIP3    H223853   2.860   3.095  14.501  0.3077 -1.2251  0.9041
  788TIP3   OH223854   6.135   4.574  12.663  0.0889 -0.4932 -0.2093
  788TIP3    H123855   6.205   4.616  12.714 -1.4902 -0.2367  1.9033
  788TIP3    H223856   6.058   4.628  12.680 -1.3825 -2.6364  0.3628
  789TIP3   OH223857   5.458   2.162  12.603  0.2242 -0.3032  0.3569
  789TIP3    H123858   5.534   2.218  12.587 -1.3246  1.3974 -1.5495
  789TIP3    H223859   5.403   2.212  12.664 -0.4125 -0.4640 -0.0715
  790TIP3   OH223860   4.791   5.818  16.628  0.0008 -0.0431  0.2695
  790TIP3    H123861   4.830   5.754  16.568  0.6016  0.1725  0.4203
  790TIP3    H223862   4.697   5.804  16.620  0.0352  0.3239 -1.1199
  791TIP3   OH223863   0.256   5.554   5.197 -1.0693  0.0490  0.4791
  791TIP3    H123864   0.188   5.607   5.157 -0.7948 -0.2176 -0.3698
  791TIP3    H223865   0.244   5.466   5.160 -0.6532 -0.1479  0.7920
  792TIP3   OH223866   6.696   4.261  15.018  0.3435 -0.6812 -0.5596
  792TIP3    H123867   6.633   4.227  14.954 -0.4951 -0.3093  0.0653
  792TIP3    H223868   6.656   4.340  15.053  0.8451 -0.8186  0.3608
  793TIP3   OH223869   5.183   2.129   5.927 -0.2143 -0.1703 -0.2050
  793TIP3    H123870   5.092   2.108   5.908 -0.8149  0.5457  1.6508
  793TIP3    H223871   5.185   2.225   5.932  0.7526 -0.1537 -0.7327
  794TIP3   OH223872   6.344   1.154  11.345 -0.2146 -0.3432 -0.8495
  794TIP3    H123873   6.396   1.169  11.265  2.8826 -1.7356  0.7064
  794TIP3    H223874   6.325   1.061  11.344 -0.4193 -0.3143 -0.1204
  795TIP3   OH223875   3.233   1.194  16.951  0.0605 -0.9768 -0.7243
  795TIP3    H123876   3.223   1.200  17.046 -2.7736 -1.9138 -0.8963
  795TIP3    H223877   3.324   1.220  16.936 -0.5064  3.6497  1.7980
  796TIP3   OH223878   5.921   2.043  13.645  0.3131 -0.2083  0.5741
  796TIP3    H123879   5.914   1.968  13.585  2.1276 -0.3701  0.5009
  796TIP3    H223880   5.906   2.005  13.732 -4.1901  0.3341  0.2460
  797TIP3   OH223881   1.798   6.757   2.629 -0.0224  0.3261 -0.1597
  797TIP3    H123882   1.813   6.817   2.556 -2.2183  0.6225 -0.4359
  797TIP3    H223883   1.725   6.794   2.676 -1.6938 -2.2373 -0.5262
  798TIP3   OH223884   3.428   2.266  11.139  0.3355 -0.0148  0.1054
  798TIP3    H123885   3.395   2.218  11.063 -0.8152  2.1079 -0.8284
  798TIP3    H223886   3.522   2.277  11.121  0.3997 -0.9323 -0.1827
  799TIP3   OH223887   5.005   4.901   3.086 -0.1144 -0.0420  0.2075
  799TIP3    H123888   5.018   4.989   3.121  0.7351 -1.2483  3.2489
  799TIP3    H223889   4.932   4.866   3.136 -0.1499 -1.2225 -0.6367
  800TIP3   OH223890   0.627   1.683   5.206 -0.1388  0.4976  0.4660
  800TIP3    H123891   0.665   1.740   5.274  3.5086  1.9047 -2.3938
  800TIP3    H223892   0.674   1.600   5.216 -0.2870  0.3902  0.2683
  801TIP3   OH223893   3.471   3.114  14.331  0.0914  0.1765 -0.2768
  801TIP3    H123894   3.523   3.130  14.410 -1.6018  1.6158  0.6280
  801TIP3    H223895   3.386   3.155  14.350 -1.2548 -1.7399 -1.8319
  802TIP3   OH223896   1.752   3.505  13.430  0.5704  0.7633  0.0156
  802TIP3    H123897   1.798   3.588  13.421 -0.4662  1.1279 -3.5815
  802TIP3    H223898   1.817   3.439  13.406  0.3419  0.9593 -1.2404
  803TIP3   OH223899   2.609   2.522  10.962  0.4918 -0.2197  0.2661
  803TIP3    H123900   2.594   2.466  10.886 -0.9264 -0.2377  0.5296
  803TIP3    H223901   2.593   2.611  10.931 -0.1315 -0.2310  0.5448
  804TIP3   OH223902   5.068   1.172   5.332  0.1645 -0.7982  0.2205
  804TIP3    H123903   5.135   1.219   5.282  0.6564  0.2529  1.7602
  804TIP3    H223904   4.998   1.155   5.270  0.9397  0.0255 -0.9171
  805TIP3   OH223905   2.485   0.944  12.101 -0.4153  0.6900 -0.0614
  805TIP3    H123906   2.513   0.938  12.010  0.2670  2.0044  0.0413
  805TIP3    H223907   2.449   0.857  12.121  1.0996 -0.2025 -1.0328
  806TIP3   OH223908   3.382   3.849  13.226 -0.6113 -0.5544 -0.1727
  806TIP3    H123909   3.325   3.920  13.255  0.2243  0.0181  0.0849
  806TIP3    H223910   3.439   3.831  13.300 -1.4838 -2.2350  0.1585
  807TIP3   OH223911   1.187   0.876   2.375  0.5449 -0.0598 -0.1353
  807TIP3    H123912   1.268   0.924   2.393  0.1424  0.0588  1.4876
  807TIP3    H223913   1.124   0.944   2.349  0.6417 -0.0149 -0.2536
  808TIP3   OH223914   5.765   2.106   2.206  0.1205 -0.0234  0.1852
  808TIP3    H123915   5.761   2.198   2.180 -0.2658 -0.3617 -1.0354
  808TIP3    H223916   5.823   2.105   2.282  0.4785  1.1685 -0.0497
  809TIP3   OH223917   5.571   2.631  16.749  0.3155 -0.1714 -0.1867
  809TIP3    H123918   5.514   2.554  16.753  1.2726 -0.9109 -0.1611
  809TIP3    H223919   5.651   2.598  16.706  0.0151  1.2717 -1.9444
  810TIP3   OH223920   3.062   4.530  16.205 -0.0773 -0.2911 -0.1492
  810TIP3    H123921   3.089   4.594  16.271  0.0616  0.8809 -1.3295
  810TIP3    H223922   3.010   4.466  16.255  1.2675 -0.2632  1.3706
  811TIP3   OH223923   6.795   1.061   3.923 -0.4417 -0.5921 -0.3654
  811TIP3    H123924   6.805   1.149   3.886 -4.7933 -0.4334 -1.6171
  811TIP3    H223925   6.866   1.011   3.883  1.1055  1.8687 -0.9604
  812TIP3   OH223926   0.599   1.805   4.872  0.5198  0.1710 -0.2007
  812TIP3    H123927   0.620   1.744   4.801  0.7699  0.3517 -0.2825
  812TIP3    H223928   0.533   1.760   4.924  1.0955 -0.3981  0.0476
  813TIP3   OH223929   0.651   6.009  11.731 -0.2504 -0.0631 -0.3080
  813TIP3    H123930   0.715   5.959  11.680 -1.5572 -1.3623 -0.7538
  813TIP3    H223931   0.658   6.098  11.697 -1.1741 -0.8940 -2.9970
  814TIP3   OH223932   0.903   2.236   3.024 -0.0886  0.4744  0.0684
  814TIP3    H123933   0.932   2.327   3.017  0.4477  0.6373  3.0178
  814TIP3    H223934   0.814   2.242   3.060 -0.0639 -0.1452  0.2408
  815TIP3   OH223935   4.154   2.225   1.017 -0.3767  0.2796  0.0232
  815TIP3    H123936   4.086   2.174   0.974 -0.1807 -0.8897  1.0545
  815TIP3    H223937   4.119   2.315   1.018 -1.4178 -0.1036 -0.4101
  816TIP3   OH223938   6.584   2.573   0.454  0.8569  0.4067  0.8181
  816TIP3    H123939   6.523   2.577   0.381 -0.4425 -0.5917  1.7965
  816TIP3    H223940   6.583   2.481   0.481  1.3194  0.7530  2.0734
  817TIP3   OH223941   5.482   2.279   2.390  0.6776 -0.1155 -0.2274
  817TIP3    H123942   5.544   2.295   2.460  0.6315 -1.8794  0.2586
  817TIP3    H223943   5.447   2.365   2.369  2.1292  0.7028  0.5523
  818TIP3   OH223944   0.293   5.419   4.149  0.1333 -0.7949  0.1041
  818TIP3    H123945   0.228   5.392   4.084 -0.5582 -0.6263  0.6963
  818TIP3    H223946   0.317   5.508   4.124 -0.1780 -0.7076  0.1028
  819TIP3   OH223947   1.602   2.764  10.420  0.6445  0.2693  0.2061
  819TIP3    H123948   1.630   2.761  10.511 -0.2450  1.2446  0.5243
  819TIP3    H223949   1.614   2.855  10.394  1.6026 -0.1427 -0.9065
  820TIP3   OH223950   5.278   5.972   1.500  0.0501  0.0983  0.5665
  820TIP3    H123951   5.338   6.018   1.441  0.0097  0.2907  0.6736
  820TIP3    H223952   5.200   5.957   1.447 -0.0419  0.4023  0.6129
  821TIP3   OH223953   6.321   3.354   2.411  0.1719  0.1188  0.3386
  821TIP3    H123954   6.265   3.418   2.367 -1.7586 -0.2439  2.0881
  821TIP3    H223955   6.266   3.276   2.421  1.3593 -0.6479  1.1846
  822TIP3   OH223956   2.574   3.450  14.344 -0.7026  0.6754 -0.3866
  822TIP3    H123957   2.478   3.447  14.347 -0.6815  0.3697  0.1865
  822TIP3    H223958   2.594   3.490  14.260 -1.3268  0.0098 -0.8649
  823TIP3   OH223959   2.985   4.465   0.318 -0.1301  0.1348  0.6289
  823TIP3    H123960   2.980   4.380   0.362 -1.7507  0.2703  0.7431
  823TIP3    H223961   2.895   4.495   0.312 -0.1079 -0.0202 -3.0964
  824TIP3   OH223962   5.747   3.532   1.744 -0.0121 -0.1731  0.0765
  824TIP3    H123963   5.757   3.467   1.813 -0.1401 -1.4844 -1.0917
  824TIP3    H223964   5.665   3.508   1.700 -0.4400  1.2277  0.0548
  825TIP3   OH223965   5.555   5.064   0.233 -0.2444 -0.0825  0.0580
  825TIP3    H123966   5.494   4.991   0.239 -0.2584 -0.0602  0.1802
  825TIP3    H223967   5.602   5.063   0.316 -0.1115 -0.0704 -0.0177
  826TIP3   OH223968   2.456   0.741   0.812 -0.5431 -0.2200  0.1412
  826TIP3    H123969   2.492   0.660   0.849  1.3360  0.0335 -1.0029
  826TIP3    H223970   2.522   0.807   0.829 -0.6496  0.3874 -1.6363
  827TIP3   OH223971   0.302   0.050  12.452 -0.1287  0.1917 -0.6570
  827TIP3    H123972   0.363   0.115  12.487 -0.2228 -0.1287  0.1123
  827TIP3    H223973   0.234   0.101  12.409  0.6055  0.5581 -1.4008
  828TIP3   OH223974   1.745   4.813  15.542  1.1520 -0.4600 -0.3549
  828TIP3    H123975   1.652   4.806  15.522  1.2988 -1.3251 -0.7602
  828TIP3    H223976   1.787   4.829  15.458  1.2354  1.6292  0.0200
  829TIP3   OH223977   4.203   1.008  14.104  0.1029  0.1794 -0.9666
  829TIP3    H123978   4.207   0.921  14.144 -4.1077  0.1318 -0.1935
  829TIP3    H223979   4.242   0.996  14.017  4.6273 -0.9638  0.9106
  830TIP3   OH223980   3.153   4.758  10.930  0.8096  0.5798 -0.0868
  830TIP3    H123981   3.060   4.782  10.936  0.0454 -1.6064 -1.6143
  830TIP3    H223982   3.198   4.821  10.986 -1.5962  1.6621  0.7790
  831TIP3   OH223983   3.905   4.810   0.174  0.1283  0.1909  0.2455
  831TIP3    H123984   3.876   4.719   0.183  0.9640 -0.5536 -3.2397
  831TIP3    H223985   3.825   4.861   0.186 -0.4652 -0.9815  1.6953
  832TIP3   OH223986   1.767   1.029  11.714 -0.0608  0.0448 -0.0583
  832TIP3    H123987   1.849   1.044  11.760 -0.8658  1.5884  0.9685
  832TIP3    H223988   1.742   0.939  11.739 -0.4814  0.8182  2.6747
  833TIP3   OH223989   5.060   5.442  14.390  0.3028  0.1974 -0.0259
  833TIP3    H123990   4.986   5.492  14.356  1.3205  1.3666 -0.5520
  833TIP3    H223991   5.059   5.361  14.339 -2.8071 -1.5554  2.4132
  834TIP3   OH223992   3.228   0.679   2.962 -0.3888 -0.3967  0.0173
  834TIP3    H123993   3.218   0.643   2.874 -0.5329  1.1016 -0.5969
  834TIP3    H223994   3.288   0.753   2.952 -2.8999  1.8633  0.5327
  835TIP3   OH223995   0.588   3.650  11.200  0.7147  0.3688 -0.4271
  835TIP3    H123996   0.673   3.663  11.157  0.5058  0.4420 -0.8184
  835TIP3    H223997   0.547   3.737  11.198  0.5248  0.2789 -0.4675
  836TIP3   OH223998   2.693   5.840  16.259  0.2978  0.2435 -0.2134
  836TIP3    H123999   2.764   5.827  16.196 -0.3157 -0.7543 -0.7409
  836TIP3    H224000   2.673   5.934  16.253  0.8578  0.3354 -0.8435
  837TIP3   OH224001   1.749   5.117   1.432 -0.4669  0.3279  0.0653
  837TIP3    H124002   1.698   5.036   1.441 -0.0101  0.1214  0.8610
  837TIP3    H224003   1.690   5.186   1.461 -0.1960  0.0502  1.3294
  838TIP3   OH224004   2.050   2.868   4.345 -0.2624  0.1730  0.2888
  838TIP3    H124005   2.022   2.896   4.258 -0.2479  0.1392  0.2733
  838TIP3    H224006   1.970   2.836   4.387  0.3862 -3.9804 -1.2653
  839TIP3   OH224007   3.452   0.661  12.277  0.3287 -0.5796 -0.6891
  839TIP3    H124008   3.452   0.659  12.182 -2.4479 -0.5946 -0.7671
  839TIP3    H224009   3.488   0.576  12.303 -0.6844 -1.3691 -1.7906
  840TIP3   OH224010   4.873   6.117   5.177  0.4089  0.3477 -0.4945
  840TIP3    H124011   4.850   6.032   5.139  0.9413 -0.2609  0.5070
  840TIP3    H224012   4.960   6.104   5.214 -1.0841  0.0562  3.3588
  841TIP3   OH224013   3.141   1.971  16.300 -0.1421 -0.4685  0.2586
  841TIP3    H124014   3.162   2.052  16.346 -0.9023  0.0839 -0.3409
  841TIP3    H224015   3.216   1.914  16.316  0.2009  0.1892  1.0597
  842TIP3   OH224016   6.002   0.881   1.331  0.4098  0.9935  0.4042
  842TIP3    H124017   5.999   0.829   1.411 -0.7761  2.0704  1.1108
  842TIP3    H224018   6.066   0.950   1.350 -1.9271  2.9786  1.6241
  843TIP3   OH224019   4.795   5.429  12.400  0.4416  0.0231 -0.0685
  843TIP3    H124020   4.849   5.456  12.326  1.8139 -1.1863  0.4295
  843TIP3    H224021   4.803   5.500  12.463 -1.0604  1.2507 -1.1749
  844TIP3   OH224022   1.150   0.248   3.072  0.1357 -0.1696 -0.2754
  844TIP3    H124023   1.176   0.167   3.028  0.0664 -2.0099  2.7801
  844TIP3    H224024   1.055   0.244   3.077 -0.0326  1.1063 -1.7652
  845TIP3   OH224025   0.250   0.798  11.932  0.3667 -0.3909  0.7140
  845TIP3    H124026   0.239   0.848  11.851  1.7738 -1.0824  0.0496
  845TIP3    H224027   0.161   0.776  11.960 -0.1371 -0.1959 -0.6799
  846TIP3   OH224028   2.095   5.656   2.506 -0.3249  0.5646 -0.8925
  846TIP3    H124029   2.156   5.719   2.544 -0.3416 -1.4033  2.8985
  846TIP3    H224030   2.009   5.685   2.537 -0.0881 -2.9526  4.4245
  847TIP3   OH224031   5.970   5.875   1.678 -0.6136  0.2179 -0.2901
  847TIP3    H124032   5.876   5.859   1.675 -0.4040 -1.8506  1.5846
  847TIP3    H224033   5.978   5.970   1.683 -2.4515  0.6104 -2.6771
  848TIP3   OH224034   3.713   4.618  13.358 -0.1066  0.2296 -0.3664
  848TIP3    H124035   3.741   4.707  13.338  1.4046 -0.4130 -1.3095
  848TIP3    H224036   3.690   4.620  13.451  1.6627  1.1849  0.0894
  849TIP3   OH224037   0.086   3.305  13.574 -0.5838 -0.1794  0.6856
  849TIP3    H124038   0.074   3.382  13.630  0.6001 -1.5720  2.9972
  849TIP3    H224039   0.181   3.301  13.559 -0.6675 -1.0032  0.3300
  850TIP3   OH224040   6.194   1.975   1.067  0.0209  0.1815 -1.1080
  850TIP3    H124041   6.119   2.012   1.112  1.5909  0.9591  1.0610
  850TIP3    H224042   6.215   2.038   0.998  0.7915  1.8379  0.5669
  851TIP3   OH224043   2.413   1.744   1.191 -0.8132  0.4461 -0.2634
  851TIP3    H124044   2.459   1.671   1.231 -1.8563 -0.5560 -0.8055
  851TIP3    H224045   2.431   1.735   1.097 -2.5889 -0.3667 -0.5636
  852TIP3   OH224046   6.012   2.084   1.490 -0.0323 -0.6570 -0.2287
  852TIP3    H124047   6.058   2.119   1.413 -1.5993 -1.5327 -1.6407
  852TIP3    H224048   6.063   2.008   1.516  1.1612  0.3099  0.3745
  853TIP3   OH224049   5.170   0.217   2.226  0.4491  0.8654  0.7550
  853TIP3    H124050   5.154   0.241   2.318 -1.4104  0.1490  0.6739
  853TIP3    H224051   5.209   0.129   2.231 -1.5583 -0.0732  0.8682
  854TIP3   OH224052   2.503   6.505   3.047 -0.0129 -0.1724 -0.3617
  854TIP3    H124053   2.577   6.446   3.063  0.8323  0.9512 -0.0254
  854TIP3    H224054   2.427   6.457   3.080  0.6259 -1.1570 -0.2779
  855TIP3   OH224055   0.847   5.911  13.611 -0.1035  0.0906  0.2021
  855TIP3    H124056   0.812   5.867  13.534  1.0339  1.2388 -1.0069
  855TIP3    H224057   0.822   6.002  13.601 -2.1972 -0.0956  2.5557
  856TIP3   OH224058   6.037   4.463   2.825  0.6117  0.3657  0.2583
  856TIP3    H124059   5.973   4.420   2.768  0.0432  0.3946  0.8524
  856TIP3    H224060   5.983   4.508   2.891  1.2369  0.7917  0.4903
  857TIP3   OH224061   5.213   3.899   5.670  0.3644 -0.4359  0.6735
  857TIP3    H124062   5.268   3.965   5.627  0.5736 -0.6304  0.6386
  857TIP3    H224063   5.126   3.938   5.671 -0.1989 -1.3756 -2.1094
  858TIP3   OH224064   4.481   3.782  12.679  0.2214 -0.0935  0.9669
  858TIP3    H124065   4.523   3.851  12.731 -0.9262  2.3733 -1.1392
  858TIP3    H224066   4.531   3.779  12.597 -2.2253  1.4517 -0.7453
  859TIP3   OH224067   5.489   3.275  13.453 -0.0474 -0.3013  0.0570
  859TIP3    H124068   5.583   3.284  13.444  0.0200 -0.3299  0.6726
  859TIP3    H224069   5.453   3.308  13.370  0.4046  1.4723  0.5193
  860TIP3   OH224070   6.309   2.299   2.435 -0.1120  0.3233 -0.1303
  860TIP3    H124071   6.333   2.218   2.388 -1.2130 -0.3319  0.3850
  860TIP3    H224072   6.354   2.292   2.519 -0.6179 -0.0278  0.1210
  861TIP3   OH224073   2.616   3.826   4.013 -0.1680 -0.4431  0.4574
  861TIP3    H124074   2.561   3.833   4.092 -3.0958 -1.3405 -1.3436
  861TIP3    H224075   2.639   3.917   3.992  2.0362 -0.2517  3.0930
  862TIP3   OH224076   1.905   0.976  10.940  0.0272  0.3061  0.2080
  862TIP3    H124077   1.877   0.928  10.862  1.9612  0.1328 -0.4246
  862TIP3    H224078   1.837   1.042  10.953  1.2190  2.6310 -3.6669
  863TIP3   OH224079   3.944   1.729  16.791 -0.1021  0.5959 -0.0322
  863TIP3    H124080   3.970   1.785  16.865 -0.4806 -0.9731  1.3466
  863TIP3    H224081   3.993   1.648  16.804 -2.3674 -0.8241  0.2170
  864TIP3   OH224082   6.845   0.300   4.809  0.0949 -0.4597  0.1895
  864TIP3    H124083   6.918   0.307   4.870  0.4219 -1.5828 -0.0441
  864TIP3    H224084   6.769   0.329   4.859  0.6302  0.3303  0.5641
  865TIP3   OH224085   4.991   5.747   0.541  0.1048 -0.7103 -0.0805
  865TIP3    H124086   5.069   5.770   0.593 -0.5344  0.0038  0.5899
  865TIP3    H224087   5.017   5.669   0.493  1.2080 -0.5480  0.2129
  866TIP3   OH224088   3.685   1.709   4.008  0.0665 -0.5734  0.0843
  866TIP3    H124089   3.765   1.658   3.999 -0.2773 -0.9324 -1.1262
  866TIP3    H224090   3.704   1.792   3.964 -0.4647 -0.9674 -0.9301
  867TIP3   OH224091   2.717   4.557   3.616 -0.0282 -0.2054 -0.0911
  867TIP3    H124092   2.644   4.568   3.677 -0.8601 -0.5962 -0.9959
  867TIP3    H224093   2.677   4.561   3.529  1.2348  1.1968 -0.6678
  868TIP3   OH224094   5.279   5.692   6.528  0.4888 -0.1476  0.4270
  868TIP3    H124095   5.209   5.757   6.540 -0.9716 -1.4460 -0.5650
  868TIP3    H224096   5.291   5.653   6.615  0.7028  0.7827  0.8212
  869TIP3   OH224097   2.071   3.116   4.474 -0.0547  0.4479  0.0675
  869TIP3    H124098   2.104   3.026   4.472 -0.3392  0.3416  0.0960
  869TIP3    H224099   2.147   3.169   4.497  0.0272  0.1696  0.4441
  870TIP3   OH224100   1.337   4.198   2.964  0.2291  0.0465 -0.4146
  870TIP3    H124101   1.400   4.206   2.892 -0.1880 -0.1554 -0.8137
  870TIP3    H224102   1.348   4.109   2.996  1.2383  0.4959  0.5704
  871TIP3   OH224103   2.494   6.095   2.984 -0.4611 -0.1593 -0.2031
  871TIP3    H124104   2.540   6.013   3.000  0.1149  0.1863 -0.0562
  871TIP3    H224105   2.550   6.162   3.022 -1.5225  0.1987  0.8080
  872TIP3   OH224106   0.534   4.866  14.858  0.4730  0.3735 -0.3593
  872TIP3    H124107   0.504   4.834  14.773  0.1729 -0.5587  0.0868
  872TIP3    H224108   0.457   4.863  14.914  0.9851 -0.4012  0.3280
  873TIP3   OH224109   5.538   2.570  13.128 -0.5699  0.7160 -0.4405
  873TIP3    H124110   5.596   2.647  13.123  1.2654 -0.5245  0.5657
  873TIP3    H224111   5.589   2.499  13.089 -1.8018 -0.2468 -0.3645
  874TIP3   OH224112   5.803   5.118  14.881  0.2144 -0.3403 -0.0884
  874TIP3    H124113   5.881   5.173  14.890  0.1103 -0.1403 -0.3998
  874TIP3    H224114   5.824   5.057  14.811 -0.0768  0.0162 -0.4972
  875TIP3   OH224115   1.242   6.436  13.352 -0.0980 -0.5348  0.0190
  875TIP3    H124116   1.187   6.378  13.300  0.0990 -0.3405 -0.4130
  875TIP3    H224117   1.277   6.498  13.289  0.5619 -0.6144  0.3035
  876TIP3   OH224118   1.482   5.782  11.439 -0.3515 -0.0112  0.2556
  876TIP3    H124119   1.486   5.731  11.520  1.2385 -1.7292 -0.8200
  876TIP3    H224120   1.478   5.716  11.369  1.7578  1.2718 -1.2212
  877TIP3   OH224121   2.280   2.983  11.995  0.3758 -0.2458  0.5123
  877TIP3    H124122   2.245   2.972  11.906 -1.0164 -0.8114  1.1017
  877TIP3    H224123   2.255   3.072  12.020  3.0814  0.9544 -0.5863
  878TIP3   OH224124   5.082   0.712   3.139  0.5913  0.5482 -0.0619
  878TIP3    H124125   5.012   0.670   3.090  1.4141  0.0513 -0.8409
  878TIP3    H224126   5.121   0.642   3.192  0.6563  0.7725  0.1939
  879TIP3   OH224127   5.466   3.544  14.283  0.0120 -0.1124  0.6901
  879TIP3    H124128   5.484   3.553  14.376 -1.2899 -0.1818  0.9772
  879TIP3    H224129   5.476   3.451  14.265  0.3621 -0.0838  0.7353
  880TIP3   OH224130   1.120   4.192  16.790  0.6520  0.0625 -0.2085
  880TIP3    H124131   1.042   4.163  16.743  1.8089  1.2937 -3.1056
  880TIP3    H224132   1.174   4.234  16.723  3.1370  0.6018  1.9846
  881TIP3   OH224133   2.968   5.646  15.367 -0.2595 -0.0638 -0.4133
  881TIP3    H124134   2.997   5.614  15.281  1.9376  0.9319 -0.1010
  881TIP3    H224135   2.892   5.701  15.348 -0.2998 -0.5047 -1.6102
  882TIP3   OH224136   4.849   0.683  14.232 -0.0557  0.0281  0.5929
  882TIP3    H124137   4.771   0.634  14.207 -0.4246  0.2659  1.2447
  882TIP3    H224138   4.850   0.759  14.175 -0.0715 -0.1910  0.3007
  883TIP3   OH224139   2.210   3.741   2.095 -0.1842 -0.1001 -0.4574
  883TIP3    H124140   2.205   3.710   2.005  0.0196 -0.4762 -0.3440
  883TIP3    H224141   2.282   3.691   2.134 -0.4256 -0.1189 -0.0207
  884TIP3   OH224142   0.231   2.536   1.092 -0.2931 -0.6351 -0.0527
  884TIP3    H124143   0.160   2.541   1.028  0.3893 -1.3991 -0.8913
  884TIP3    H224144   0.242   2.627   1.122 -1.3373 -0.4432 -0.2082
  885TIP3   OH224145   3.254   3.767  14.380 -0.0800  0.5500 -0.2587
  885TIP3    H124146   3.326   3.791  14.322 -0.1377 -0.5578 -0.8123
  885TIP3    H224147   3.266   3.822  14.458  0.4573  1.4810 -0.9786
  886TIP3   OH224148   3.262   1.242  10.906 -0.1184  0.3563 -0.6456
  886TIP3    H124149   3.293   1.184  10.976 -0.1309  1.6530  0.4617
  886TIP3    H224150   3.265   1.187  10.827  0.6572 -0.8977  0.2147
  887TIP3   OH224151   5.372   4.729   2.181 -0.6361  0.4236  0.3623
  887TIP3    H124152   5.420   4.758   2.258 -0.1857  0.7796 -0.0375
  887TIP3    H224153   5.414   4.646   2.157 -1.3452 -0.1301  0.9950
  888TIP3   OH224154   3.096   2.488  12.304  0.2868  0.1303  0.2570
  888TIP3    H124155   3.131   2.417  12.250  0.2866  0.4112 -0.1142
  888TIP3    H224156   3.019   2.450  12.346 -0.1741  0.1401 -0.5585
  889TIP3   OH224157   3.317   6.708  12.923 -0.4720 -0.5623  0.7947
  889TIP3    H124158   3.230   6.713  12.964 -1.4110  0.2856 -1.1481
  889TIP3    H224159   3.330   6.794  12.886  0.2492 -1.3097 -0.7669
  890TIP3   OH224160   3.504   5.833   2.993  0.4988 -0.2924  0.0416
  890TIP3    H124161   3.435   5.769   3.012  0.4166  0.0083  0.8052
  890TIP3    H224162   3.458   5.909   2.958  0.2416  0.5123  2.0232
  891TIP3   OH224163   0.151   4.684   3.699 -0.1920  0.6876  0.3466
  891TIP3    H124164   0.157   4.701   3.793  0.8612  1.2352  0.1957
  891TIP3    H224165   0.099   4.604   3.693 -0.2597  0.6296  1.3934
  892TIP3   OH224166   6.033   6.741   1.333  0.1215 -0.4984  0.0588
  892TIP3    H124167   6.016   6.655   1.295 -0.6675 -0.6735  0.7643
  892TIP3    H224168   6.019   6.729   1.427  1.0541  0.1546  0.2919
  893TIP3   OH224169   3.019   1.036  14.377  0.5340  0.2453  0.2954
  893TIP3    H124170   2.994   1.106  14.437 -1.1683  0.0186 -0.0903
  893TIP3    H224171   3.014   0.956  14.430  1.4762  0.2962  0.4733
  894TIP3   OH224172   1.702   4.753   5.878  0.7574  0.8465 -0.2407
  894TIP3    H124173   1.773   4.700   5.914  0.9871  0.6260 -1.0065
  894TIP3    H224174   1.660   4.792   5.955  0.1558 -0.9489  0.4039
  895TIP3   OH224175   2.938   2.851   5.218  0.3140 -0.8359  0.6212
  895TIP3    H124176   3.011   2.810   5.173 -0.4974 -1.0135 -0.5775
  895TIP3    H224177   2.977   2.890   5.297  2.1533  1.1296 -1.1441
  896TIP3   OH224178   5.913   6.490   1.088  0.1720 -0.1872  0.0364
  896TIP3    H124179   5.960   6.461   1.167 -0.4716 -0.8393  0.1890
  896TIP3    H224180   5.982   6.526   1.032  0.6404  0.2944  0.8924
  897TIP3   OH224181   5.078   1.065  11.210 -0.7507  0.3930 -0.5387
  897TIP3    H124182   5.079   1.018  11.293 -0.2587 -1.6705 -1.6224
  897TIP3    H224183   5.170   1.084  11.192 -0.5260 -1.5923 -1.8147
  898TIP3   OH224184   5.356   0.628   1.909 -0.1440  0.1488 -0.0146
  898TIP3    H124185   5.415   0.648   1.836  1.1140 -0.3687  0.8308
  898TIP3    H224186   5.327   0.713   1.940 -0.4146  0.3876 -0.8824
  899TIP3   OH224187   0.984   5.677  16.551  0.3795 -0.2646  0.0295
  899TIP3    H124188   0.918   5.742  16.573 -1.9640 -2.4422 -0.0791
  899TIP3    H224189   1.042   5.722  16.490 -2.4771  1.1151 -1.9206
  900TIP3   OH224190   0.431   0.072  15.203  0.0024 -0.0677 -0.4787
  900TIP3    H124191   0.432   0.157  15.159 -0.8109  0.5188  0.5733
  900TIP3    H224192   0.413   0.093  15.295  0.0947 -1.3588 -0.1482
  901TIP3   OH224193   5.998   5.580   0.932  0.8259  0.3065 -0.3138
  901TIP3    H124194   5.903   5.570   0.938  0.7794  0.1189 -1.3332
  901TIP3    H224195   6.025   5.598   1.022 -0.1517  0.1909  0.0159
  902TIP3   OH224196   3.779   6.763   3.999 -0.1807 -0.1276  0.0891
  902TIP3    H124197   3.814   6.674   4.002  0.2044  0.0283  0.3430
  902TIP3    H224198   3.833   6.808   3.934 -0.4901 -0.1280 -0.1694
  903TIP3   OH224199   0.113   4.416  14.922 -0.1939 -0.2904  0.1108
  903TIP3    H124200   0.142   4.410  14.831 -1.1413 -1.6567 -0.1249
  903TIP3    H224201   0.176   4.476  14.963  2.3008 -2.2549 -0.6112
  904TIP3   OH224202   0.425   5.098   4.112 -0.3499 -0.3766 -0.2550
  904TIP3    H124203   0.387   5.174   4.066 -1.8392 -1.4399 -0.8821
  904TIP3    H224204   0.518   5.119   4.121 -0.6848  1.4391 -0.5606
  905TIP3   OH224205   4.604   5.010  15.975 -0.1155 -0.5690 -0.3070
  905TIP3    H124206   4.609   4.933  16.031  1.3721  0.5987  1.2746
  905TIP3    H224207   4.580   5.081  16.035  1.9953  0.8251 -0.9995
  906TIP3   OH224208   2.867   4.684  12.886  0.1063  0.8901 -0.6886
  906TIP3    H124209   2.789   4.735  12.866 -0.5502  0.8997  1.6354
  906TIP3    H224210   2.919   4.740  12.944  0.4571 -0.1819  0.0664
  907TIP3   OH224211   2.635   1.478  17.132  0.1930  0.4692  0.2365
  907TIP3    H124212   2.643   1.497  17.225  0.0544 -0.8019  0.5213
  907TIP3    H224213   2.726   1.475  17.101  0.3367 -1.0149  0.7478
  908TIP3   OH224214   0.381   1.260   0.699  0.8100 -0.3753  0.1242
  908TIP3    H124215   0.309   1.236   0.757  1.5293  0.4867  1.4181
  908TIP3    H224216   0.344   1.325   0.640  0.7838  1.0434  1.6106
  909TIP3   OH224217   6.811   6.709   5.275  0.1229 -0.5899 -0.2040
  909TIP3    H124218   6.858   6.672   5.201 -1.3553 -0.4088 -1.2822
  909TIP3    H224219   6.821   6.803   5.265  0.2193 -0.5732  0.0386
  910TIP3   OH224220   5.094   2.039  13.941 -0.0542  0.4008 -0.1447
  910TIP3    H124221   5.123   1.980  14.011 -1.5291  1.4351  1.4054
  910TIP3    H224222   5.172   2.050  13.886  0.9812 -0.9106  0.9750
  911TIP3   OH224223   5.104   6.512   0.564  0.2823 -0.3118 -0.4005
  911TIP3    H124224   5.080   6.420   0.556 -1.3253  0.0855 -0.6086
  911TIP3    H224225   5.190   6.519   0.523  0.6147 -1.7831  0.0011
  912TIP3   OH224226   5.639   6.778  16.592 -0.1558  0.4948  0.6106
  912TIP3    H124227   5.554   6.769  16.548 -0.3006  0.7027  0.8411
  912TIP3    H224228   5.623   6.843  16.661  0.0773  0.2150  0.9332
  913TIP3   OH224229   4.074   1.878  15.243  0.6637  0.4899 -0.0996
  913TIP3    H124230   4.082   1.963  15.287 -0.9784  0.5116  0.2220
  913TIP3    H224231   4.015   1.894  15.170 -0.8230 -0.6413  0.7927
  914TIP3   OH224232   0.966   3.922  14.157 -0.3379  0.1145  0.1786
  914TIP3    H124233   0.913   3.999  14.133  0.8163  0.9232  0.1298
  914TIP3    H224234   0.950   3.859  14.087 -1.9569 -0.0558  0.6409
  915TIP3   OH224235   3.767   2.816   3.692  0.0815  1.2088  0.3131
  915TIP3    H124236   3.839   2.761   3.662 -1.7504 -0.9308 -0.3993
  915TIP3    H224237   3.737   2.862   3.614 -0.4729  0.6717  0.1970
  916TIP3   OH224238   2.326   4.029   5.763 -0.2272  0.3852 -0.1650
  916TIP3    H124239   2.397   4.002   5.704  0.0964 -0.3720  0.5550
  916TIP3    H224240   2.369   4.080   5.831 -0.4878  0.5897 -0.1517
  917TIP3   OH224241   1.577   5.473   4.964  0.4293  0.8084  0.2987
  917TIP3    H124242   1.501   5.422   4.937 -0.5403  1.2355  2.0528
  917TIP3    H224243   1.617   5.503   4.882 -0.3425 -0.7521 -0.6996
  918TIP3   OH224244   1.260   3.357   4.546  0.2776  0.1264  0.6716
  918TIP3    H124245   1.261   3.383   4.638 -1.3323 -1.0550  1.0652
  918TIP3    H224246   1.228   3.267   4.546  0.2194  0.1084 -1.0488
  919TIP3   OH224247   0.041   1.690  13.794  0.2301 -0.3035  0.5872
  919TIP3    H124248   0.065   1.648  13.876  1.9862  1.1106  0.8722
  919TIP3    H224249   0.102   1.655  13.729 -0.8606 -1.0849 -0.0484
  920TIP3   OH224250   2.848   4.210   4.565 -0.2961 -0.7669  0.4058
  920TIP3    H124251   2.852   4.291   4.616  0.1057 -1.2044  1.0696
  920TIP3    H224252   2.765   4.169   4.590 -1.4060  0.3105 -1.2858
  921TIP3   OH224253   6.657   4.628   5.775 -0.4095  0.0663  0.3076
  921TIP3    H124254   6.716   4.655   5.845 -1.0489  2.7150 -0.0976
  921TIP3    H224255   6.573   4.612   5.820 -1.0272  2.5096  0.1265
  922TIP3   OH224256   5.835   5.166   1.254  0.2618  0.5180  0.1926
  922TIP3    H124257   5.776   5.156   1.180 -0.6615 -1.2144  1.1049
  922TIP3    H224258   5.787   5.220   1.317  0.2212  0.2936  0.3554
  923TIP3   OH224259   0.643   2.889  16.040  0.2584 -0.0960  0.6901
  923TIP3    H124260   0.593   2.808  16.048  0.7159 -0.3528  1.0101
  923TIP3    H224261   0.616   2.942  16.116 -0.2933  0.1995  0.2951
  924TIP3   OH224262   4.180   0.293   3.385 -0.2059  0.1095  0.5825
  924TIP3    H124263   4.255   0.328   3.336 -0.5021  1.2982  0.9546
  924TIP3    H224264   4.177   0.201   3.359  1.7812 -0.1473  1.0646
  925TIP3   OH224265   2.189   1.079   1.777 -0.2197 -0.1281 -0.3041
  925TIP3    H124266   2.215   1.003   1.828 -0.4521  0.2171  0.3319
  925TIP3    H224267   2.255   1.146   1.796 -1.6655  0.8756  1.5974
  926TIP3   OH224268   2.163   0.208   0.261 -0.2792 -0.3179 -0.7373
  926TIP3    H124269   2.181   0.162   0.343 -1.5053  0.7052  0.1495
  926TIP3    H224270   2.248   0.239   0.231  0.2142 -0.9107  0.0339
  927TIP3   OH224271   0.057   4.972   6.550 -0.4516 -0.1547  0.3989
  927TIP3    H124272   0.011   5.048   6.585 -0.8207  0.0706 -0.5242
  927TIP3    H224273  -0.012   4.907   6.536 -0.6209  0.3636 -1.4759
  928TIP3   OH224274   3.772   4.568  13.846  0.0906  0.3205 -0.0188
  928TIP3    H124275   3.732   4.603  13.766  1.2032  0.5221 -0.5115
  928TIP3    H224276   3.719   4.492  13.868  1.1402 -1.1958 -2.3377
  929TIP3   OH224277   4.902   2.146   0.011 -0.6171  0.4050 -0.0271
  929TIP3    H124278   4.980   2.162   0.064 -0.1877  3.4965 -1.3488
  929TIP3    H224279   4.835   2.204   0.047 -2.2118 -1.7489  0.6890
  930TIP3   OH224280   2.884   5.771   2.210 -0.4369 -0.0869  0.2049
  930TIP3    H124281   2.864   5.712   2.283 -2.1855 -0.0349 -0.1755
  930TIP3    H224282   2.890   5.713   2.134  0.1542 -0.0064  0.1847
  931TIP3   OH224283   3.214   0.747   3.397 -0.4188 -0.4629 -0.0033
  931TIP3    H124284   3.255   0.774   3.480  0.3467 -1.8064  0.0830
  931TIP3    H224285   3.126   0.783   3.401  0.3425  1.5218  0.3378
  932TIP3   OH224286   3.350   6.636   2.725 -0.0174 -0.0202 -0.0252
  932TIP3    H124287   3.366   6.712   2.781  1.3080  0.5339 -1.0951
  932TIP3    H224288   3.397   6.656   2.644 -0.9896 -1.2775 -0.9347
  933TIP3   OH224289   6.128   3.150  16.461 -0.5651  0.1924 -0.0847
  933TIP3    H124290   6.041   3.150  16.501  0.8055 -0.1672  3.2594
  933TIP3    H224291   6.169   3.069  16.494  1.6084  1.2123 -0.1133
  934TIP3   OH224292   3.941   4.162  11.383 -0.7197  0.6140 -0.1292
  934TIP3    H124293   3.939   4.224  11.310 -2.7581 -0.8890 -1.4425
  934TIP3    H224294   3.943   4.076  11.342 -0.0130 -0.2823  1.6379
  935TIP3   OH224295   1.576   4.640  10.951  0.7128 -0.7120  0.3653
  935TIP3    H124296   1.616   4.709  10.898  1.2363 -0.8359  0.5957
  935TIP3    H224297   1.601   4.558  10.907  1.5048 -0.8414  1.0195
  936TIP3   OH224298   3.456   0.013  12.648  0.0754  0.4516 -0.3116
  936TIP3    H124299   3.429  -0.077  12.632  0.5190  0.1579  0.5272
  936TIP3    H224300   3.535   0.006  12.701 -0.6927  1.3274  1.0170
  937TIP3   OH224301   6.174   4.040   1.634 -0.3116  0.2583  0.0958
  937TIP3    H124302   6.107   4.083   1.579 -0.1596  0.8045  0.3294
  937TIP3    H224303   6.214   4.112   1.683  1.1452  0.0679 -0.7759
  938TIP3   OH224304   0.883   0.692  15.737 -0.1642 -0.0264 -0.0687
  938TIP3    H124305   0.791   0.714  15.751 -0.4563 -0.5713 -1.0277
  938TIP3    H224306   0.913   0.660  15.822  0.0203  3.0270  1.1189
  939TIP3   OH224307   2.025   5.581  11.210 -0.1607 -0.0012  0.4383
  939TIP3    H124308   1.992   5.524  11.141 -0.1735  0.7825 -0.2172
  939TIP3    H224309   2.024   5.669  11.171 -0.0836  0.4381  1.4036
  940TIP3   OH224310   3.937   3.200  11.806 -0.0875  0.6666 -0.1182
  940TIP3    H124311   3.948   3.138  11.878  0.0336 -0.1905 -0.8586
  940TIP3    H224312   4.025   3.208  11.768 -0.5585 -0.6936 -1.6014
  941TIP3   OH224313   6.844   1.197  13.960  0.0734 -0.3210 -0.0555
  941TIP3    H124314   6.805   1.211  14.047 -1.8238 -3.4162 -0.2268
  941TIP3    H224315   6.840   1.282  13.918  0.4241  1.1403  2.6067
  942TIP3   OH224316   0.002   1.608  15.171  0.0540  0.5639  0.8091
  942TIP3    H124317  -0.076   1.600  15.115 -0.4052 -0.4346  1.5592
  942TIP3    H224318   0.061   1.541  15.139  0.5436  1.1902  0.3713
  943TIP3   OH224319   6.450   6.274  11.680  0.0875 -0.1041 -0.5910
  943TIP3    H124320   6.440   6.243  11.590 -1.7116 -0.0865 -0.4340
  943TIP3    H224321   6.416   6.363  11.679 -3.2097 -1.1776  0.6889
  944TIP3   OH224322   1.423   0.918  12.307  0.3236 -0.4815 -0.5290
  944TIP3    H124323   1.458   0.829  12.308  1.7807  0.0332 -1.5551
  944TIP3    H224324   1.460   0.957  12.228 -0.7822  0.8540 -0.4257
  945TIP3   OH224325   1.547   1.983  14.528  0.2907  0.0293 -0.2330
  945TIP3    H124326   1.539   1.915  14.595  0.8982 -0.4174 -0.6085
  945TIP3    H224327   1.589   1.940  14.454  0.9780  0.8930 -0.3631
  946TIP3   OH224328   6.443   4.091   5.083  0.3388 -0.1632  0.2405
  946TIP3    H124329   6.533   4.120   5.103  0.3702  1.1742 -1.5959
  946TIP3    H224330   6.436   4.100   4.988 -1.7519 -0.2401  0.3567
  947TIP3   OH224331   6.073   2.518  11.611 -0.4954  0.4439 -0.6018
  947TIP3    H124332   5.993   2.567  11.624 -0.0201  1.3783 -1.1089
  947TIP3    H224333   6.070   2.489  11.520 -1.0536 -1.0185 -0.1491
  948TIP3   OH224334   0.161   2.974  12.464  0.5149 -0.3696  0.2906
  948TIP3    H124335   0.212   3.047  12.499  1.8248 -0.1069 -1.9693
  948TIP3    H224336   0.207   2.896  12.493  2.8555 -0.1241 -2.4429
  949TIP3   OH224337   4.332   5.531   1.722 -0.9783 -0.6659 -0.5035
  949TIP3    H124338   4.398   5.487   1.776 -0.5686  0.9778  0.3876
  949TIP3    H224339   4.363   5.519   1.632  0.5746  0.0917 -0.1022
  950TIP3   OH224340   3.256   6.404  15.615  0.4026 -1.3432 -0.1038
  950TIP3    H124341   3.228   6.496  15.619  0.0801 -1.3699 -1.4005
  950TIP3    H224342   3.213   6.370  15.536  3.4775 -1.5727 -1.8180
  951TIP3   OH224343   5.991   0.334   4.008 -0.2754  0.4469  0.6871
  951TIP3    H124344   6.042   0.315   4.086 -1.5371 -0.9105  1.2279
  951TIP3    H224345   5.969   0.249   3.971  0.9308  1.0499 -1.6367
  952TIP3   OH224346   2.495   3.800   5.361 -0.0049 -0.0531 -0.9807
  952TIP3    H124347   2.572   3.749   5.337 -0.2614 -2.3686  2.3907
  952TIP3    H224348   2.421   3.747   5.333 -0.2902 -0.0781 -0.2246
  953TIP3   OH224349   6.167   3.136  17.057  0.0530 -0.2042 -0.1664
  953TIP3    H124350   6.185   3.191  16.981 -0.4118 -0.2394 -0.3059
  953TIP3    H224351   6.217   3.055  17.040 -0.3940 -0.3849 -0.6499
  954TIP3   OH224352   6.219   3.937   1.376  0.1335  0.2586  0.5310
  954TIP3    H124353   6.167   3.857   1.370 -1.3724  1.2260  0.1861
  954TIP3    H224354   6.206   3.968   1.466  0.0140  0.5783  0.4036
  955TIP3   OH224355   5.158   1.658  12.988 -0.7249  0.1628  0.3572
  955TIP3    H124356   5.141   1.702  12.905  0.2492  0.8228  0.4925
  955TIP3    H224357   5.219   1.716  13.034  0.1105 -1.0289  0.7954
  956TIP3   OH224358   4.583   0.466  15.481  0.2536  0.0671  0.6355
  956TIP3    H124359   4.657   0.511  15.440  0.1578  1.3659  1.8068
  956TIP3    H224360   4.590   0.490  15.574 -1.8001  0.4790  0.7223
  957TIP3   OH224361   2.226   0.398   2.364  0.3530 -0.2453 -0.1684
  957TIP3    H124362   2.216   0.485   2.402  0.6251 -0.5495  0.6249
  957TIP3    H224363   2.317   0.394   2.335  0.6565 -0.6337  0.7858
  958TIP3   OH224364   5.874   0.661  12.615 -0.2046 -0.1588  0.0780
  958TIP3    H124365   5.843   0.603  12.545  0.4630  0.7903 -1.0372
  958TIP3    H224366   5.794   0.702  12.648 -0.4559  0.0536 -0.7565
  959TIP3   OH224367   0.976   5.003  11.565  0.3799  0.3995 -0.4475
  959TIP3    H124368   0.919   5.076  11.590 -0.3806  1.1145 -3.7364
  959TIP3    H224369   1.057   5.046  11.536  0.3428 -0.1226 -1.3554
  960TIP3   OH224370   0.630   0.633   2.304  0.3235 -0.1700 -0.5349
  960TIP3    H124371   0.584   0.694   2.363  0.8049  1.3402 -1.6500
  960TIP3    H224372   0.564   0.567   2.283 -0.2122 -0.0779  0.7570
  961TIP3   OH224373   3.344   3.922  12.559 -0.3902 -0.0832 -0.1256
  961TIP3    H124374   3.294   3.843  12.578 -1.8879  0.7521 -0.4555
  961TIP3    H224375   3.278   3.989  12.544  0.8208  0.8966 -1.3165
  962TIP3   OH224376   4.273   4.427  13.432  0.1098  0.6652  0.1975
  962TIP3    H124377   4.267   4.458  13.522 -2.0071 -1.8929  1.0293
  962TIP3    H224378   4.187   4.445  13.394  0.4931  0.3491 -0.8655
  963TIP3   OH224379   0.523   3.471  11.563  0.0785  0.0872 -0.1348
  963TIP3    H124380   0.497   3.383  11.593  1.4143 -0.4016 -0.3516
  963TIP3    H224381   0.442   3.510  11.530 -0.8733 -0.4306  1.4758
  964TIP3   OH224382   1.169   4.536  13.135  0.3465  0.0772 -0.2376
  964TIP3    H124383   1.090   4.554  13.187 -0.2898 -1.5850 -0.5555
  964TIP3    H224384   1.136   4.509  13.050  1.2938 -0.1354 -0.5469
  965TIP3   OH224385   1.472   2.676  14.482  0.3191 -0.0393  0.4903
  965TIP3    H124386   1.497   2.763  14.514 -1.3571  0.7655 -0.3043
  965TIP3    H224387   1.547   2.649  14.428  2.1239 -0.3875  2.9654
  966TIP3   OH224388   4.434   1.762  16.753  0.0739  0.2037  0.5463
  966TIP3    H124389   4.441   1.811  16.671 -2.6246 -1.5686 -0.8878
  966TIP3    H224390   4.388   1.821  16.812  1.0895  1.0932  0.4887
  967TIP3   OH224391   0.144   0.856   0.209 -0.3084  0.2403  0.9300
  967TIP3    H124392   0.184   0.875   0.124  1.0912  1.6770  1.8488
  967TIP3    H224393   0.170   0.766   0.228 -1.8667 -0.6517 -0.7657
  968TIP3   OH224394   1.752   6.799  10.890  0.4954 -0.6960 -0.3697
  968TIP3    H124395   1.804   6.857  10.946 -0.1110 -0.4462 -0.0558
  968TIP3    H224396   1.809   6.780  10.815  0.3268  1.1514 -1.0062
  969TIP3   OH224397   4.662   5.346  15.068 -0.6910 -0.3835 -0.2378
  969TIP3    H124398   4.598   5.418  15.075 -0.2895 -0.1130  1.1323
  969TIP3    H224399   4.627   5.278  15.126 -0.5219 -0.8691 -0.7003
  970TIP3   OH224400   0.438   3.075   3.429  0.4544  0.0737  0.5914
  970TIP3    H124401   0.505   3.007   3.429  0.6764  0.2926  0.9030
  970TIP3    H224402   0.355   3.027   3.436  0.3902 -0.3680 -2.0851
  971TIP3   OH224403   2.362   1.969   2.188  0.2747 -0.4482  0.0334
  971TIP3    H124404   2.364   1.970   2.092 -1.5323 -1.7095 -0.0658
  971TIP3    H224405   2.454   1.961   2.213  0.8361  0.4226 -1.5621
  972TIP3   OH224406   6.227   6.674   3.513 -0.3303 -0.6256 -0.1370
  972TIP3    H124407   6.176   6.754   3.498  0.1424 -0.2528  0.2293
  972TIP3    H224408   6.265   6.654   3.428 -0.9967 -0.8460 -0.3899
  973TIP3   OH224409   4.151   1.809   2.788 -0.5554 -0.0626  0.3989
  973TIP3    H124410   4.159   1.903   2.772 -1.7606  0.2586  1.4453
  973TIP3    H224411   4.239   1.780   2.810 -0.3175  1.0217  0.9508
  974TIP3   OH224412   6.643   4.386  15.720  0.0740  0.3329  0.5461
  974TIP3    H124413   6.578   4.455  15.735 -0.6065 -0.2497  0.3418
  974TIP3    H224414   6.602   4.307  15.756  0.5008 -0.1215  0.0435
  975TIP3   OH224415   3.659   5.237   3.535  0.5362 -0.2819  0.0464
  975TIP3    H124416   3.619   5.300   3.474  3.5872  0.7355 -1.0806
  975TIP3    H224417   3.700   5.172   3.478  1.9465 -0.3013  1.0539
  976TIP3   OH224418   4.236   5.953   4.846  0.2845  0.5934 -0.0354
  976TIP3    H124419   4.163   5.993   4.894 -0.4942  0.7800 -1.3426
  976TIP3    H224420   4.255   5.873   4.896  0.3548  1.4064  1.3021
  977TIP3   OH224421   4.305   2.027   5.256  0.1132 -0.2261 -0.5366
  977TIP3    H124422   4.392   2.008   5.292  0.0240 -1.2114 -0.8065
  977TIP3    H224423   4.316   2.016   5.162  0.6006  3.3231 -1.0251
  978TIP3   OH224424   6.782   4.980   1.572 -0.2181 -0.5669  0.1669
  978TIP3    H124425   6.737   4.997   1.655  0.0100 -1.5377  0.4998
  978TIP3    H224426   6.724   4.920   1.525 -1.0310  1.0535 -1.0084
  979TIP3   OH224427   2.119   4.857  12.161 -0.4574  0.1828  0.3201
  979TIP3    H124428   2.065   4.921  12.207  0.1985  0.3627  0.8572
  979TIP3    H224429   2.208   4.878  12.187 -0.0933  0.0732 -0.7827
  980TIP3   OH224430   0.544   6.101   4.727 -0.1102  0.4338  0.2299
  980TIP3    H124431   0.460   6.075   4.765  0.3003 -1.6612 -0.1747
  980TIP3    H224432   0.522   6.175   4.669 -1.4422  0.7374  1.0636
  981TIP3   OH224433   5.775   2.955  16.161  0.2822 -0.4622 -0.6671
  981TIP3    H124434   5.701   2.993  16.209 -0.2337 -1.8731 -0.2985
  981TIP3    H224435   5.795   3.019  16.093 -0.0165  0.8427  0.4266
  982TIP3   OH224436   6.634   1.361  15.787 -0.7839 -0.4584  0.2943
  982TIP3    H124437   6.728   1.364  15.804 -0.5313 -1.0165 -0.9275
  982TIP3    H224438   6.613   1.267  15.784 -0.9936 -0.3837 -1.3833
  983TIP3   OH224439   5.741   5.972  15.058  0.3154  0.2398  0.1876
  983TIP3    H124440   5.743   5.974  15.153  1.0096 -0.2240  0.1904
  983TIP3    H224441   5.711   6.059  15.032 -0.3779  0.2028  0.8349
  984TIP3   OH224442   4.847   6.594  13.070 -0.2470  0.3166  0.1659
  984TIP3    H124443   4.770   6.650  13.071  0.4548  1.3698 -1.2477
  984TIP3    H224444   4.826   6.522  13.010  0.0768  0.9570 -0.7374
  985TIP3   OH224445   5.145   3.168  11.827 -0.0192  0.9003 -0.1348
  985TIP3    H124446   5.158   3.242  11.766 -0.2455 -1.0711 -2.7702
  985TIP3    H224447   5.222   3.113  11.813 -0.8546 -0.3835  0.1796
  986TIP3   OH224448   1.351   5.402  14.191 -0.1962  0.4445 -0.8952
  986TIP3    H124449   1.265   5.440  14.172 -0.4926 -0.9920 -2.7252
  986TIP3    H224450   1.412   5.452  14.137 -0.5966 -1.5048 -3.3670
  987TIP3   OH224451   6.573   5.065  13.018  1.3724  0.0815 -0.4817
  987TIP3    H124452   6.548   5.032  12.931  0.5692  1.8673 -0.9630
  987TIP3    H224453   6.615   5.149  13.000  0.1379  1.0351  0.9307
  988TIP3   OH224454   0.554   4.638   0.664 -0.0928  0.6484  0.2029
  988TIP3    H124455   0.486   4.705   0.654 -1.3728 -0.4831  0.8916
  988TIP3    H224456   0.612   4.674   0.731 -0.5209  1.2485  0.2695
  989TIP3   OH224457   3.457   0.219  14.324  0.1919 -0.5561 -0.3113
  989TIP3    H124458   3.509   0.297  14.344  0.7020  0.0169 -3.3281
  989TIP3    H224459   3.376   0.253  14.287 -0.3404 -1.4591  0.0070
  990TIP3   OH224460   3.525   5.519   3.188 -0.0531  0.4422  0.2909
  990TIP3    H124461   3.464   5.555   3.123 -1.0571  1.0866  1.5429
  990TIP3    H224462   3.607   5.565   3.173  0.4609 -1.0786 -2.0197
  991TIP3   OH224463   1.470   2.044  12.537  0.2732  0.5360 -0.0703
  991TIP3    H124464   1.506   2.024  12.623 -0.8203  1.3154  0.5907
  991TIP3    H224465   1.488   1.966  12.485  2.7676  0.8283  0.2442
  992TIP3   OH224466   0.144   6.416   6.899  0.5683 -0.1729 -0.7525
  992TIP3    H124467   0.083   6.488   6.911 -0.2828 -1.1124  0.8778
  992TIP3    H224468   0.222   6.442   6.948  0.3151 -0.2881 -0.2844
  993TIP3   OH224469   1.356   5.414  11.641 -0.6618 -0.4160  0.8397
  993TIP3    H124470   1.391   5.325  11.637  0.7611  0.1436 -0.8937
  993TIP3    H224471   1.318   5.429  11.554  1.9407  1.6549 -0.0872
  994TIP3   OH224472   3.328   2.319  15.346  0.3220  0.2069 -0.3947
  994TIP3    H124473   3.259   2.286  15.405 -0.4126  0.2979 -1.1799
  994TIP3    H224474   3.408   2.279  15.378  0.2680  1.6563  1.8178
  995TIP3   OH224475   6.363   6.164  16.975  0.1583  0.0715 -0.1912
  995TIP3    H124476   6.414   6.195  17.050  1.4188  0.8145 -1.3049
  995TIP3    H224477   6.324   6.082  17.005  1.4801 -0.1800  0.9393
  996TIP3   OH224478   2.385   2.326  15.493  0.4775 -0.4153 -1.0353
  996TIP3    H124479   2.296   2.300  15.518  0.6348 -0.8553 -0.9282
  996TIP3    H224480   2.437   2.246  15.501  0.9080 -0.1363 -0.9910
  997TIP3   OH224481   1.690   1.306  13.654 -0.2287  1.1196  0.1068
  997TIP3    H124482   1.755   1.356  13.605  0.6525  0.7248  0.8448
  997TIP3    H224483   1.700   1.216  13.623  0.8483  0.7239  1.4738
  998TIP3   OH224484   3.147   1.137   0.476  0.0926 -0.1600 -0.3381
  998TIP3    H124485   3.214   1.101   0.534  0.6295  1.9997  0.4563
  998TIP3    H224486   3.122   1.063   0.421  0.1941 -2.1068  2.0168
  999TIP3   OH224487   6.312   0.237  13.194  0.0956  0.1338 -0.3150
  999TIP3    H124488   6.405   0.224  13.175  0.8712  0.6532  2.6249
  999TIP3    H224489   6.279   0.150  13.215  0.6439  0.2581  1.2185
 1000TIP3   OH224490   3.358   1.853   0.999  0.2881  0.0014 -0.0745
 1000TIP3    H124491   3.351   1.940   1.039 -0.8102 -0.3114  0.4501
 1000TIP3    H224492   3.276   1.809   1.023 -0.0277 -0.5077 -1.9401
 1001TIP3   OH224493   2.570   6.017   5.335 -0.0078  0.3727  0.2512
 1001TIP3    H124494   2.653   6.004   5.380  0.1565  0.9614  0.1335
 1001TIP3    H224495   2.517   6.067   5.397 -0.0655  0.4947  0.1041
 1002TIP3   OH224496   4.458   5.817   1.472  0.0075 -0.0869  0.0446
 1002TIP3    H124497   4.466   5.850   1.382  0.1492  0.1625  0.1474
 1002TIP3    H224498   4.364   5.806   1.485 -0.2746  2.4265  0.7512
 1003TIP3   OH224499   3.097   5.521  12.287 -0.4533 -0.1341  0.0621
 1003TIP3    H124500   3.158   5.448  12.290 -0.9882 -0.5679  0.7266
 1003TIP3    H224501   3.079   5.534  12.194  0.4211 -0.1811 -0.1270
 1004TIP3   OH224502   5.514   3.466  16.084 -0.5353  0.0729 -0.1123
 1004TIP3    H124503   5.446   3.403  16.059  1.3274 -1.3692 -1.9107
 1004TIP3    H224504   5.539   3.509  16.003  0.6389  0.6277  0.5133
 1005TIP3   OH224505   3.189   3.278  13.236 -0.1200 -0.4903  0.5983
 1005TIP3    H124506   3.262   3.297  13.178  0.2477 -1.3266  0.7737
 1005TIP3    H224507   3.133   3.355  13.230 -0.2154 -0.6501 -1.0386
 1006TIP3   OH224508   3.528   5.596   5.530 -0.1781 -0.1475 -0.4562
 1006TIP3    H124509   3.445   5.548   5.533  0.3162 -1.0765 -1.0868
 1006TIP3    H224510   3.557   5.588   5.440  0.6713  0.0516 -0.2112
 1007TIP3   OH224511   1.994   1.308  12.185  0.2324  0.1211 -0.4385
 1007TIP3    H124512   2.039   1.387  12.213  2.3824 -0.6562 -1.4737
 1007TIP3    H224513   2.048   1.274  12.113 -2.2546 -0.7035 -2.0170
 1008TIP3   OH224514   1.790   4.536   2.555 -1.2402 -0.3003  0.0179
 1008TIP3    H124515   1.752   4.460   2.512  0.9701 -1.7595  0.5235
 1008TIP3    H224516   1.845   4.577   2.488  0.7646 -1.5364  0.8135
 1009TIP3   OH224517   1.507   2.651   3.756  0.6289 -0.4698 -0.1477
 1009TIP3    H124518   1.462   2.586   3.810  1.4952 -1.1867 -0.2635
 1009TIP3    H224519   1.573   2.601   3.708  0.4464  0.2982 -1.2258
 1010TIP3   OH224520   2.504   5.715   3.372 -0.1081  0.5792  0.6492
 1010TIP3    H124521   2.477   5.692   3.283  1.7985  3.6684 -0.9021
 1010TIP3    H224522   2.493   5.635   3.422  0.4560 -1.8430 -2.7858
 1011TIP3   OH224523   3.764   6.489  15.057  0.6222  0.2620 -0.1128
 1011TIP3    H124524   3.800   6.433  14.989  1.1475  1.6096 -0.9678
 1011TIP3    H224525   3.677   6.452  15.075  1.2167 -1.2280 -0.1400
 1012TIP3   OH224526   1.516   4.257  15.748  0.0369  0.2760 -0.2965
 1012TIP3    H124527   1.479   4.287  15.831  0.9420  0.4194  0.0717
 1012TIP3    H224528   1.440   4.243  15.691 -0.4955  2.3528 -0.1915
 1013TIP3   OH224529   6.565   3.703   5.483 -0.1280 -0.0260 -0.6382
 1013TIP3    H124530   6.591   3.696   5.391  1.3050  0.7887 -0.3359
 1013TIP3    H224531   6.596   3.790   5.510  1.9792 -1.2553  1.3084
 1014TIP3   OH224532   2.236   0.505  12.686 -0.0143  0.5775 -0.2201
 1014TIP3    H124533   2.144   0.482  12.697  0.6102 -1.9496  0.5906
 1014TIP3    H224534   2.266   0.526  12.775  0.6156 -0.6213 -0.1277
 1015TIP3   OH224535   2.631   0.336  10.961  0.5130 -0.6787  0.0264
 1015TIP3    H124536   2.620   0.384  10.879  0.3654 -1.5062 -0.4560
 1015TIP3    H224537   2.584   0.387  11.027 -0.6640 -0.7823 -0.7064
 1016TIP3   OH224538   5.123   0.450   3.280 -0.0516 -0.3309 -0.2117
 1016TIP3    H124539   5.103   0.424   3.370  0.5358  2.0359  0.6788
 1016TIP3    H224540   5.039   0.450   3.235 -0.4855 -0.6760  0.5792
 1017TIP3   OH224541   1.034   5.769   5.339 -0.9120 -0.1774  0.2887
 1017TIP3    H124542   1.005   5.719   5.262  0.5237 -0.8333  0.1452
 1017TIP3    H224543   1.126   5.788   5.322 -1.2975  2.2213  0.5276
 1018TIP3   OH224544   0.252   5.789  16.027 -0.0520 -0.2005 -0.4117
 1018TIP3    H124545   0.196   5.866  16.023  1.9872  1.3117 -2.7382
 1018TIP3    H224546   0.258   5.758  15.937  1.6533 -1.1840 -0.0155
 1019TIP3   OH224547   3.595   2.534  12.989 -0.7223  0.1143 -0.4371
 1019TIP3    H124548   3.553   2.575  12.914  1.8257  1.0108 -1.5048
 1019TIP3    H224549   3.638   2.456  12.953  2.2717  1.6366 -0.5297
 1020TIP3   OH224550   5.439   1.666   1.080 -0.3427 -0.3813  0.4113
 1020TIP3    H124551   5.408   1.737   1.136 -0.4318  0.9454 -1.2485
 1020TIP3    H224552   5.484   1.710   1.007 -0.4341 -2.0220 -0.6965
 1021TIP3   OH224553   5.175   0.079   1.892  0.6979  0.1772  0.3475
 1021TIP3    H124554   5.250   0.139   1.889  1.1832 -0.4359 -0.2055
 1021TIP3    H224555   5.122   0.110   1.964  0.8593  1.3740 -0.0294
 1022TIP3   OH224556   5.686   2.289   3.680  0.4120  0.2107  0.2810
 1022TIP3    H124557   5.620   2.355   3.700 -0.5603 -0.8450  0.7187
 1022TIP3    H224558   5.733   2.277   3.762 -0.7369 -1.0263  0.8147
 1023TIP3   OH224559   6.750   6.288   2.902  0.0465 -0.9143  0.0658
 1023TIP3    H124560   6.795   6.301   2.986 -2.0686 -0.8851  1.2438
 1023TIP3    H224561   6.729   6.377   2.873  2.7626 -0.7280 -1.7423
 1024TIP3   OH224562   3.702   3.562   0.023  0.2112  0.0322  0.5667
 1024TIP3    H124563   3.607   3.556   0.017  0.3126 -2.3163  0.5358
 1024TIP3    H224564   3.730   3.588  -0.065 -0.3969  0.9252  0.6265
 1025TIP3   OH224565   3.337   1.334   5.990  0.3099 -0.1148  0.1146
 1025TIP3    H124566   3.261   1.333   6.047  2.6672 -1.1607  3.5803
 1025TIP3    H224567   3.342   1.424   5.957 -3.4368 -0.4777 -2.0548
 1026TIP3   OH224568   2.083   5.967   1.121 -0.5907 -0.2699 -0.9141
 1026TIP3    H124569   1.994   6.002   1.118 -1.0232 -1.3725 -1.8372
 1026TIP3    H224570   2.129   6.011   1.050  0.3568  2.1038  1.0433
 1027TIP3   OH224571   0.670   0.896   6.381 -0.2559  0.0176 -0.0772
 1027TIP3    H124572   0.652   0.944   6.300  1.1641  0.5476 -0.1107
 1027TIP3    H224573   0.593   0.910   6.435 -0.4079  1.2842 -0.5990
 1028TIP3   OH224574   0.142   2.393   1.317  0.5172  0.9904  0.1515
 1028TIP3    H124575   0.174   2.445   1.243 -1.0836  0.1047 -1.2579
 1028TIP3    H224576   0.172   2.304   1.297  1.3850  0.9845  1.4040
 1029TIP3   OH224577   3.403   2.820  13.197  0.5556  0.3712 -0.1671
 1029TIP3    H124578   3.425   2.730  13.222 -0.6097  0.2278  0.4221
 1029TIP3    H224579   3.401   2.818  13.101 -0.0632 -0.4076 -0.1525
 1030TIP3   OH224580   1.168   2.482  14.713  0.2169  0.6214 -0.0364
 1030TIP3    H124581   1.073   2.490  14.721  0.3225  1.3343  0.6375
 1030TIP3    H224582   1.198   2.466  14.802  0.7596  0.7249 -0.1980
 1031TIP3   OH224583   0.264   2.095  13.721 -0.6578 -0.2598 -0.2032
 1031TIP3    H124584   0.355   2.106  13.750 -1.1863 -1.3770  2.0341
 1031TIP3    H224585   0.229   2.026  13.776 -3.3594  1.2487  0.1401
 1032TIP3   OH224586   5.317   1.384  16.246 -0.3218 -0.1135  0.1482
 1032TIP3    H124587   5.311   1.477  16.227 -0.0214 -0.0442  0.3771
 1032TIP3    H224588   5.359   1.380  16.332 -0.0818 -0.4665  0.0170
 1033TIP3   OH224589   4.267   0.763  14.203  0.7253  0.3451 -0.4013
 1033TIP3    H124590   4.274   0.746  14.297  1.0503  0.8701 -0.3281
 1033TIP3    H224591   4.193   0.709  14.174  0.0264  0.8938  0.3233
 1034TIP3   OH224592   6.175   2.328   4.986  0.3897 -0.3596  0.4740
 1034TIP3    H124593   6.222   2.273   5.049  0.5566 -0.9510 -0.1525
 1034TIP3    H224594   6.083   2.302   4.996  0.4638 -0.7332  0.2025
 1035TIP3   OH224595   5.529   2.355   5.041 -0.1096 -0.3221 -0.2397
 1035TIP3    H124596   5.574   2.381   5.121 -2.1365  2.3843  0.1682
 1035TIP3    H224597   5.589   2.294   4.998  1.4872 -1.1047  2.8115
 1036TIP3   OH224598   6.457   2.948  12.695  0.2295  0.2296  0.0702
 1036TIP3    H124599   6.421   2.900  12.620 -1.2052 -1.6868  1.8681
 1036TIP3    H224600   6.433   3.039  12.680 -0.4349 -0.1858 -1.5519
 1037TIP3   OH224601   5.939   6.560   2.957 -0.3660  0.2957 -0.0310
 1037TIP3    H124602   5.911   6.584   3.045  0.4509 -1.1626  0.6576
 1037TIP3    H224603   5.859   6.564   2.905 -1.6392 -2.1413  1.5289
 1038TIP3   OH224604   5.881   6.210  10.884 -0.4822 -0.3556 -1.0136
 1038TIP3    H124605   5.825   6.149  10.837 -0.6770 -0.6960 -0.3528
 1038TIP3    H224606   5.827   6.288  10.895 -0.4992 -0.3429 -1.1902
 1039TIP3   OH224607   2.422   5.184  14.678 -0.0968  0.7660  0.0242
 1039TIP3    H124608   2.465   5.124  14.617  1.2342  0.0010  1.6417
 1039TIP3    H224609   2.331   5.186  14.648 -0.2713 -2.3093  0.0309
 1040TIP3   OH224610   5.287   1.438   5.801  0.0919 -0.0147  0.1798
 1040TIP3    H124611   5.257   1.516   5.755  1.8784 -0.5436 -2.0580
 1040TIP3    H224612   5.270   1.457   5.894 -2.1123  1.7971 -0.4915
 1041TIP3   OH224613   0.277   1.217  13.353  0.0765 -0.8316  0.3109
 1041TIP3    H124614   0.358   1.240  13.398  1.0226 -1.6539 -0.9036
 1041TIP3    H224615   0.245   1.299  13.317  0.4946 -0.5347  0.6051
 1042TIP3   OH224616   6.374   4.191  12.840  0.2018  0.0145  0.6004
 1042TIP3    H124617   6.295   4.136  12.848 -1.6031  2.1827 -0.9519
 1042TIP3    H224618   6.385   4.230  12.927 -1.4002  0.8157  0.4914
 1043TIP3   OH224619   1.582   4.805   4.484 -0.0854  0.4377  0.4441
 1043TIP3    H124620   1.577   4.881   4.426 -1.9684  0.1450  0.1607
 1043TIP3    H224621   1.505   4.812   4.540  1.2252  0.2449  2.3706
 1044TIP3   OH224622   1.537   0.928  12.576  0.1869  0.3050  0.8771
 1044TIP3    H124623   1.462   0.973  12.536  0.0229 -0.1069  0.7145
 1044TIP3    H224624   1.596   0.999  12.602  0.2668  0.5857 -0.0362
 1045TIP3   OH224625   6.479   1.533  10.854 -0.5862 -0.0791 -0.2774
 1045TIP3    H124626   6.516   1.619  10.872  0.6304 -0.7428  0.5706
 1045TIP3    H224627   6.391   1.551  10.820  0.2868  1.5533 -1.8879
 1046TIP3   OH224628   3.566   5.233   2.263  0.2847  0.0502 -0.5604
 1046TIP3    H124629   3.652   5.240   2.306  0.1990 -0.4736 -0.3084
 1046TIP3    H224630   3.503   5.244   2.334  0.1090  2.0761 -0.9654
 1047TIP3   OH224631   6.078   0.857  13.335  0.0173 -0.0513 -0.1890
 1047TIP3    H124632   6.108   0.933  13.386 -0.5406  1.9252 -2.5827
 1047TIP3    H224633   6.141   0.850  13.263 -0.7194 -0.9990 -0.7609
 1048TIP3   OH224634   6.605   3.812   3.409  0.0798 -0.3262  0.1631
 1048TIP3    H124635   6.577   3.781   3.495  0.9002 -0.1747  0.4892
 1048TIP3    H224636   6.647   3.736   3.369  0.4254 -0.1667  0.2217
 1049TIP3   OH224637   2.810   6.523  16.030 -0.1393  0.2199  0.2114
 1049TIP3    H124638   2.886   6.553  16.081 -0.2832  2.2758 -0.6841
 1049TIP3    H224639   2.741   6.513  16.095  0.8450 -1.7323  1.0524
 1050TIP3   OH224640   5.923   3.725  16.828 -0.0694  0.2187  0.1352
 1050TIP3    H124641   6.013   3.694  16.813 -0.2684  0.6932 -2.7812
 1050TIP3    H224642   5.930   3.820  16.822 -0.8805  0.2172 -1.4406
 1051TIP3   OH224643   1.315   1.102   0.371  0.2591 -0.0586  0.0039
 1051TIP3    H124644   1.393   1.154   0.390 -0.8127  1.4953  0.2829
 1051TIP3    H224645   1.281   1.076   0.457  0.3570 -0.5840 -0.1111
 1052TIP3   OH224646   1.338   2.403   0.339  0.2834 -0.0512 -0.1721
 1052TIP3    H124647   1.373   2.465   0.275  0.7745 -1.0313 -0.8676
 1052TIP3    H224648   1.415   2.369   0.385 -0.0743  0.8282  1.1490
 1053TIP3   OH224649   5.832   0.761  13.197  0.3607  0.1721  0.0850
 1053TIP3    H124650   5.903   0.805  13.243  0.0629 -1.3151  2.0948
 1053TIP3    H224651   5.755   0.814  13.215  0.3060 -0.2269  1.0998
 1054TIP3   OH224652   2.779   6.090   1.055 -0.6239  0.6900 -0.4545
 1054TIP3    H124653   2.872   6.111   1.049 -0.4284  0.1308  0.4084
 1054TIP3    H224654   2.739   6.135   0.981  0.2579  1.3552 -0.5347
 1055TIP3   OH224655   1.615   3.112  13.765  0.1616 -0.3357 -0.0664
 1055TIP3    H124656   1.617   3.201  13.731  0.2476 -0.4751 -0.4223
 1055TIP3    H224657   1.651   3.120  13.854  0.8051 -0.1256 -0.3439
 1056TIP3   OH224658   3.501   0.487   0.048 -0.2326 -0.1164  1.1662
 1056TIP3    H124659   3.574   0.456  -0.006 -0.9737  1.8283 -1.0579
 1056TIP3    H224660   3.469   0.408   0.091  1.6552 -1.4097  0.3500
 1057TIP3   OH224661   3.009   2.743   1.540  0.7881  0.4084 -0.1509
 1057TIP3    H124662   2.924   2.699   1.532  0.4335  1.0027  0.2944
 1057TIP3    H224663   3.041   2.749   1.450  0.3419  0.2146 -0.3272
 1058TIP3   OH224664   2.858   5.846   3.199 -0.3975  0.2438 -0.2513
 1058TIP3    H124665   2.826   5.825   3.287  0.2611 -1.1853 -0.3406
 1058TIP3    H224666   2.838   5.769   3.146  0.3783  0.5714 -1.0542
 1059TIP3   OH224667   4.365   0.099  11.644 -0.2120 -0.0843 -0.1310
 1059TIP3    H124668   4.281   0.141  11.659 -1.4222 -2.5999  0.7598
 1059TIP3    H224669   4.345   0.022  11.591  1.4513 -0.9519  0.4117
 1060TIP3   OH224670   0.164   3.534  13.712 -0.1300 -0.3174  0.0426
 1060TIP3    H124671   0.254   3.559  13.692 -0.1080  1.4097  2.0085
 1060TIP3    H224672   0.111   3.604  13.676 -0.4088  0.3377  1.6250
 1061TIP3   OH224673   0.511   4.598  14.250 -0.0635 -0.1400  0.3598
 1061TIP3    H124674   0.602   4.626  14.242 -0.1680  0.1798  0.2602
 1061TIP3    H224675   0.515   4.516  14.299  0.2383  0.1251  0.7887
 1062TIP3   OH224676   2.799   3.872  16.725 -0.0916  0.5318  0.3305
 1062TIP3    H124677   2.721   3.927  16.721  0.4773  1.4026  0.8663
 1062TIP3    H224678   2.770   3.787  16.691 -1.3241  0.7686  0.7229
 1063TIP3   OH224679   0.856   2.279  13.066  0.3089 -0.0510  0.7903
 1063TIP3    H124680   0.826   2.192  13.041  2.1533 -0.7158  0.7048
 1063TIP3    H224681   0.855   2.277  13.162 -1.5354  0.5656  0.8149
 1064TIP3   OH224682   0.922   3.266  11.942  0.2518  0.2522  0.6612
 1064TIP3    H124683   0.844   3.215  11.963  0.8598 -0.6858  0.7417
 1064TIP3    H224684   0.988   3.200  11.920  0.5765  1.0819 -0.9615
 1065TIP3   OH224685   3.845   6.530  11.595 -0.3442 -0.0084  0.1152
 1065TIP3    H124686   3.862   6.452  11.542  0.6599  0.3184 -0.0639
 1065TIP3    H224687   3.858   6.501  11.686 -1.3401 -0.3833  0.1526
 1066TIP3   OH224688   5.472   2.249  13.908  0.2155 -0.7023  0.1863
 1066TIP3    H124689   5.514   2.169  13.877  1.4090  0.8241 -2.3930
 1066TIP3    H224690   5.432   2.288  13.831  1.7507  2.3903  0.7843
 1067TIP3   OH224691   4.567   0.346  14.320 -0.4953  0.2308  0.8291
 1067TIP3    H124692   4.558   0.421  14.378 -0.8190  0.9061 -0.0650
 1067TIP3    H224693   4.580   0.271  14.378  2.9665  1.3478  1.7277
 1068TIP3   OH224694   6.695   1.167   0.565 -0.2987  0.2441 -0.1838
 1068TIP3    H124695   6.786   1.195   0.575 -0.8463  1.6749  1.3119
 1068TIP3    H224696   6.654   1.236   0.512 -0.5841 -0.1958 -0.5348
 1069TIP3   OH224697   5.684   6.480   1.875  0.1279 -0.5903  0.9730
 1069TIP3    H124698   5.654   6.391   1.890 -0.1497 -0.3016  2.2987
 1069TIP3    H224699   5.610   6.523   1.832  0.5478 -1.1732 -0.3908
 1070TIP3   OH224700   2.842   1.838  13.222 -0.0978  0.0222  0.0520
 1070TIP3    H124701   2.887   1.854  13.138  2.4509 -0.0882  1.2905
 1070TIP3    H224702   2.775   1.906  13.227  1.8769  2.1524 -0.6494
 1071TIP3   OH224703   6.392   0.669  11.186  0.5069  0.9034 -0.3609
 1071TIP3    H124704   6.351   0.750  11.158  0.8950  2.2973  2.7060
 1071TIP3    H224705   6.470   0.696  11.235  1.5608 -1.3923 -0.6005
 1072TIP3   OH224706   0.422   0.544  13.441  0.4639  0.2244 -0.2687
 1072TIP3    H124707   0.414   0.453  13.411 -0.9743 -0.1486  1.1244
 1072TIP3    H224708   0.509   0.549  13.480  1.3568  0.0353 -2.0959
 1073TIP3   OH224709   3.770   3.865  16.437 -0.4142  0.9720 -0.0916
 1073TIP3    H124710   3.715   3.913  16.499  0.7808  2.6039 -0.2080
 1073TIP3    H224711   3.790   3.782  16.480 -0.9322  1.4057  1.0038
 1074TIP3   OH224712   0.278   1.698   3.995 -0.1140  0.0806  0.1172
 1074TIP3    H124713   0.275   1.792   4.010  2.0601  0.1416  0.5718
 1074TIP3    H224714   0.234   1.685   3.911 -0.4285  1.4881  0.0466
 1075TIP3   OH224715   6.496   2.840  10.731 -0.0448  0.2326  0.0364
 1075TIP3    H124716   6.449   2.922  10.743 -3.6081 -1.3355 -1.7157
 1075TIP3    H224717   6.532   2.846  10.642 -0.5031 -0.1536 -0.1800
 1076TIP3   OH224718   5.050   5.345   3.785 -0.1190 -0.2462 -0.8711
 1076TIP3    H124719   4.958   5.326   3.805  0.5091 -1.9346  0.6614
 1076TIP3    H224720   5.073   5.280   3.718 -0.1535  0.5206 -1.6470
 1077TIP3   OH224721   3.193   5.852  15.675 -0.2212  0.1796  0.1105
 1077TIP3    H124722   3.118   5.883  15.726 -0.4588 -1.8007  1.0419
 1077TIP3    H224723   3.270   5.878  15.726 -0.4197 -0.7651  0.9130
 1078TIP3   OH224724   6.124   4.436  11.805  0.4775  0.0894  0.2436
 1078TIP3    H124725   6.115   4.373  11.876  0.0737  1.4704  1.4701
 1078TIP3    H224726   6.200   4.407  11.755  1.0666 -0.6380  1.5377
 1079TIP3   OH224727   1.684   0.130   2.984  0.1510 -0.5400 -0.1033
 1079TIP3    H124728   1.655   0.090   3.066 -1.1041 -1.0466 -0.7704
 1079TIP3    H224729   1.648   0.073   2.916  0.2086  0.5151 -1.0299
 1080TIP3   OH224730   2.055   5.022   2.513  0.6676 -0.9617  0.4824
 1080TIP3    H124731   2.066   4.928   2.529  0.3077 -0.7843  1.9678
 1080TIP3    H224732   2.126   5.045   2.453  2.6578 -1.6274  2.4328
 1081TIP3   OH224733   2.093   3.092   3.762 -0.2522 -0.4701 -0.6061
 1081TIP3    H124734   2.158   3.045   3.815  0.7855  1.3005 -0.2393
 1081TIP3    H224735   2.109   3.060   3.673 -0.1430 -1.4176 -0.2596
 1082TIP3   OH224736   0.909   2.058  13.949 -0.3615  0.3691 -0.4083
 1082TIP3    H124737   0.977   2.029  13.889  0.3234  1.3190 -0.1195
 1082TIP3    H224738   0.842   1.990  13.944  1.5816 -1.8174  0.9978
 1083TIP3   OH224739   0.705   6.231  16.002 -0.3565 -1.2541  0.0341
 1083TIP3    H124740   0.652   6.154  15.982  0.0454 -1.6355  0.4281
 1083TIP3    H224741   0.795   6.199  16.000 -0.1963 -0.8345  0.3847
 1084TIP3   OH224742   0.769   2.184  11.697 -0.2149 -0.4387 -0.2531
 1084TIP3    H124743   0.694   2.154  11.749 -0.1198  0.7367  0.5957
 1084TIP3    H224744   0.749   2.275  11.676  0.5680 -0.3779 -0.7970
 1085TIP3   OH224745   5.368   2.714  11.303  0.3552 -0.4500  0.3458
 1085TIP3    H124746   5.275   2.725  11.283  0.1211 -0.0821  1.4949
 1085TIP3    H224747   5.405   2.802  11.291  0.7208 -0.7505 -0.8240
 1086TIP3   OH224748   4.548   0.996   0.216  0.1131  0.5067 -0.2667
 1086TIP3    H124749   4.512   1.064   0.273 -2.6486 -0.8914 -0.1621
 1086TIP3    H224750   4.510   1.016   0.130 -1.1383 -1.0780 -0.1304
 1087TIP3   OH224751   4.855   6.250   4.550 -0.2020  0.2311 -0.2401
 1087TIP3    H124752   4.839   6.311   4.622  2.3733 -0.4130  0.9823
 1087TIP3    H224753   4.775   6.198   4.545 -1.0089  1.2478  1.1569
 1088TIP3   OH224754   6.777   0.798  17.049  0.3544 -0.5146 -0.5035
 1088TIP3    H124755   6.853   0.746  17.076 -0.6331 -1.4992  0.4636
 1088TIP3    H224756   6.813   0.885  17.030  1.3066  0.0054  3.0404
 1089TIP3   OH224757   6.543   2.579  15.960 -0.3374  0.2110  0.3020
 1089TIP3    H124758   6.621   2.582  16.016 -0.9824  0.6795  1.2036
 1089TIP3    H224759   6.545   2.491  15.922 -0.2786 -0.4143  1.6813
 1090TIP3   OH224760   6.624   5.550  17.110  0.4149 -1.0258 -0.6693
 1090TIP3    H124761   6.586   5.462  17.106 -1.6573 -0.4568  2.7305
 1090TIP3    H224762   6.580   5.598  17.040 -0.7763 -1.9247 -0.5720
 1091TIP3   OH224763   3.601   4.037  16.601 -0.1756  0.5846  0.5136
 1091TIP3    H124764   3.657   4.113  16.613 -1.6522  1.7953  0.0405
 1091TIP3    H224765   3.574   4.040  16.509 -0.7805 -0.1409  0.6510
 1092TIP3   OH224766   2.516   1.948   3.384 -0.1017 -0.3540 -0.1497
 1092TIP3    H124767   2.455   1.960   3.311 -0.7119  0.6226  0.5002
 1092TIP3    H224768   2.480   2.002   3.454  1.1856 -0.2524  0.4513
 1093TIP3   OH224769   3.135   2.539   3.920  0.0671 -0.0496 -0.0878
 1093TIP3    H124770   3.080   2.613   3.893  0.1362  0.8689  2.0723
 1093TIP3    H224771   3.080   2.488   3.979  0.7049 -0.5622  0.0727
 1094TIP3   OH224772   0.481   2.008  15.325 -0.0863  0.1900  0.1957
 1094TIP3    H124773   0.555   2.021  15.265 -0.5680 -0.8859 -0.6725
 1094TIP3    H224774   0.422   1.950  15.277 -0.3014 -1.0477  1.8635
 1095TIP3   OH224775   2.483   1.788  12.705 -0.2464 -0.0694 -0.8538
 1095TIP3    H124776   2.546   1.721  12.731  0.3164 -0.4801 -3.0915
 1095TIP3    H224777   2.447   1.821  12.788  1.1023 -1.5427  0.3714
 1096TIP3   OH224778   6.831   5.802   0.559  0.2345 -0.5970  0.3733
 1096TIP3    H124779   6.926   5.812   0.548  0.0766 -0.2850 -0.8730
 1096TIP3    H224780   6.809   5.725   0.506 -0.5059  0.6571 -1.2189
 1097TIP3   OH224781   2.222   1.424   0.810 -0.4734 -0.9949  0.3286
 1097TIP3    H124782   2.292   1.439   0.874  0.5840 -1.1362 -0.7655
 1097TIP3    H224783   2.238   1.335   0.778 -1.2843 -1.1063  0.2072
 1098TIP3   OH224784   5.031   2.307   2.454 -0.4731  0.1926 -0.4737
 1098TIP3    H124785   4.985   2.236   2.408 -0.7309  0.1323 -0.1207
 1098TIP3    H224786   5.077   2.354   2.384 -3.4024  2.0767 -1.3321
 1099TIP3   OH224787   3.593   2.197  10.671  0.4102 -0.1841  0.3429
 1099TIP3    H124788   3.656   2.174  10.602 -0.4232 -1.1842 -0.1130
 1099TIP3    H224789   3.557   2.113  10.699  1.2018  0.1168  2.5044
 1100TIP3   OH224790   1.546   0.379  12.740  0.6355  0.1907  0.0919
 1100TIP3    H124791   1.519   0.446  12.677  0.6892 -0.8387 -1.0857
 1100TIP3    H224792   1.605   0.425  12.799 -0.4381  1.5039  0.2054
 1101TIP3   OH224793   5.130   4.893   1.290  0.0043 -0.0827 -0.0505
 1101TIP3    H124794   5.133   4.921   1.198 -1.3189  2.1047  0.5032
 1101TIP3    H224795   5.208   4.931   1.329  0.1234 -0.2931 -0.0825
 1102TIP3   OH224796   1.086   6.496  14.083  0.1867  0.2045  0.7546
 1102TIP3    H124797   1.116   6.405  14.088  0.1485  0.2099  1.1569
 1102TIP3    H224798   1.018   6.495  14.016  0.6184  0.0602  0.3222
 1103TIP3   OH224799   0.812   1.497  17.133  0.0475  0.2033 -0.0784
 1103TIP3    H124800   0.762   1.426  17.092  0.4549 -0.6886  0.8950
 1103TIP3    H224801   0.880   1.518  17.069  0.6548 -1.1454  0.0715
 1104TIP3   OH224802   4.303   5.886   5.525  0.3093  0.4004  0.3696
 1104TIP3    H124803   4.314   5.832   5.446 -0.9301  3.0381 -1.7673
 1104TIP3    H224804   4.224   5.850   5.567  1.4137 -1.5245  0.9098
 1105TIP3   OH224805   0.172   6.529  14.789  0.1965 -0.3090  0.1493
 1105TIP3    H124806   0.213   6.567  14.867  0.9907 -0.5731 -0.1288
 1105TIP3    H224807   0.245   6.513  14.729 -0.5912  1.7609 -1.4709
 1106TIP3   OH224808   3.197   5.271   2.441 -0.4545  0.4596 -0.3728
 1106TIP3    H124809   3.130   5.333   2.414 -0.3260  1.1218  0.7616
 1106TIP3    H224810   3.267   5.281   2.377 -0.5146  1.3618 -0.3047
 1107TIP3   OH224811   3.655   6.854   3.689  0.3669 -0.1836  0.5510
 1107TIP3    H124812   3.647   6.948   3.700 -0.4018 -0.2755  0.8179
 1107TIP3    H224813   3.642   6.839   3.595  0.1730 -0.0549  0.5572
 1108TIP3   OH224814   3.945   5.885  16.789 -0.1195 -0.7330  0.2127
 1108TIP3    H124815   4.021   5.841  16.827  0.6886 -0.4332 -1.0043
 1108TIP3    H224816   3.953   5.870  16.695 -1.0560  0.1091 -0.0190
 1109TIP3   OH224817   5.693   1.161  16.708  0.3870 -0.6401  0.3028
 1109TIP3    H124818   5.683   1.084  16.763  1.8872  0.9746  3.0955
 1109TIP3    H224819   5.769   1.207  16.745 -0.9930  2.6443 -0.5399
 1110TIP3   OH224820   1.274   1.584  15.232  0.1143 -0.0595  0.0325
 1110TIP3    H124821   1.271   1.503  15.283 -1.7598 -0.3597 -0.4744
 1110TIP3    H224822   1.249   1.652  15.294  3.3231  0.4562  0.9016
 1111TIP3   OH224823   4.650   1.061  11.947 -0.0246  0.1718  0.5376
 1111TIP3    H124824   4.679   1.080  11.857 -1.4790  0.5899  0.1210
 1111TIP3    H224825   4.607   0.976  11.940  0.3070 -0.0332  0.9608
 1112TIP3   OH224826   5.088   2.721  12.711  0.9737 -0.5783 -0.3740
 1112TIP3    H124827   5.016   2.764  12.758  1.4595 -0.0601 -0.0819
 1112TIP3    H224828   5.145   2.688  12.780  0.7894 -1.3939 -0.6016
 1113TIP3   OH224829   0.364   2.671  11.979  0.6348  0.0259  0.0444
 1113TIP3    H124830   0.347   2.589  12.025 -0.6021 -1.5156 -2.8752
 1113TIP3    H224831   0.289   2.727  12.001 -0.3831 -1.0042 -0.6933
 1114TIP3   OH224832   4.702   0.933  12.479  0.2507  0.3069 -0.3786
 1114TIP3    H124833   4.650   0.985  12.418 -0.1626 -0.5480 -0.7799
 1114TIP3    H224834   4.691   0.843  12.448 -0.7356 -0.2651  1.4837
 1115TIP3   OH224835   6.201   5.119   5.982 -0.3439 -0.1141 -0.0751
 1115TIP3    H124836   6.233   5.045   6.034  1.2802 -0.1710 -1.0628
 1115TIP3    H224837   6.157   5.176   6.045  2.0319  0.1058  1.5159
 1116TIP3   OH224838   4.948   3.239  12.012 -0.3817 -0.1124 -0.3112
 1116TIP3    H124839   4.879   3.261  11.950  1.3141 -0.1892 -2.3337
 1116TIP3    H224840   5.028   3.237  11.960  1.3792  1.1149  2.1242
 1117TIP3   OH224841   0.495   4.716  11.390  0.4543  0.3979  0.3654
 1117TIP3    H124842   0.498   4.794  11.445  2.0471  0.2354  0.5518
 1117TIP3    H224843   0.544   4.740  11.311 -1.3100  0.4369 -0.7684
 1118TIP3   OH224844   0.670   0.900  10.612  0.1619  0.0198  0.1428
 1118TIP3    H124845   0.658   0.922  10.704  2.2967  0.1805  0.4183
 1118TIP3    H224846   0.733   0.828  10.612 -1.0807 -1.1407 -1.1316
 1119TIP3   OH224847   4.468   4.889   2.748 -0.4596  0.0189 -0.7835
 1119TIP3    H124848   4.402   4.821   2.736 -0.2342 -0.6621  1.4021
 1119TIP3    H224849   4.427   4.954   2.804 -0.0153  0.7238 -1.2576
 1120TIP3   OH224850   2.975   2.682  17.088  0.1790 -0.3697  0.4567
 1120TIP3    H124851   2.981   2.587  17.085  1.4339 -0.3233  0.9456
 1120TIP3    H224852   2.955   2.708  16.998 -0.2940 -1.0987  0.3497
 1121TIP3   OH224853   1.022   6.633  13.291  0.3376  0.9584  0.0901
 1121TIP3    H124854   1.087   6.679  13.345  1.1054  1.6101 -1.3447
 1121TIP3    H224855   1.048   6.651  13.201 -2.4663  2.1981 -0.5991
 1122TIP3   OH224856   0.382   3.612  16.120  0.5782 -0.3306  0.5713
 1122TIP3    H124857   0.462   3.562  16.138  1.3409  0.4225 -0.5481
 1122TIP3    H224858   0.400   3.700  16.154  1.9707  1.0585 -3.1961
 1123TIP3   OH224859   0.020   1.227   1.804  0.1266 -0.7377 -0.5133
 1123TIP3    H124860  -0.042   1.181   1.861 -1.8029  2.6655  0.4407
 1123TIP3    H224861   0.077   1.274   1.865 -0.8280  1.5395 -1.2503
 1124TIP3   OH224862   2.677   1.209   5.235  0.1421  0.4193 -0.0485
 1124TIP3    H124863   2.699   1.294   5.196 -0.7608  0.4561 -0.5114
 1124TIP3    H224864   2.754   1.186   5.288  0.9417  0.8953 -0.9638
 1125TIP3   OH224865   3.898   4.335   1.694 -0.6262 -0.4402 -0.4232
 1125TIP3    H124866   3.815   4.348   1.648 -1.9765  0.4675  2.1275
 1125TIP3    H224867   3.878   4.352   1.786  1.8049 -2.7329  0.6631
 1126TIP3   OH224868   0.126   4.745   5.718  0.0247 -0.6642 -0.4171
 1126TIP3    H124869   0.077   4.780   5.793  0.0343 -0.6673 -0.4095
 1126TIP3    H224870   0.188   4.683   5.756  1.9471  1.3304 -0.0912
 1127TIP3   OH224871   3.163   6.749   3.502 -0.1029  0.0993  0.1588
 1127TIP3    H124872   3.190   6.783   3.417 -0.5254  0.8430  0.3153
 1127TIP3    H224873   3.087   6.694   3.482  0.7659 -1.0499 -0.1323
 1128TIP3   OH224874   2.420   6.127  15.132  0.1780  0.4248 -0.1494
 1128TIP3    H124875   2.339   6.076  15.132  1.0333 -0.9743  0.3190
 1128TIP3    H224876   2.394   6.213  15.166 -1.2785  0.3158 -0.8853
 1129TIP3   OH224877   4.624   2.927  13.776 -0.2974 -0.7766 -0.3247
 1129TIP3    H124878   4.577   3.007  13.755  0.8643 -0.5380 -2.2360
 1129TIP3    H224879   4.572   2.886  13.845 -2.2330  0.3818 -1.0200
 1130TIP3   OH224880   2.416   0.761   4.925 -0.0503  0.3390  0.5025
 1130TIP3    H124881   2.461   0.832   4.970  2.2881 -0.4022 -0.4821
 1130TIP3    H224882   2.435   0.683   4.978 -1.4341  0.2082  0.8404
 1131TIP3   OH224883   5.438   1.247   1.049  0.2242 -0.6125 -0.4237
 1131TIP3    H124884   5.509   1.311   1.051 -1.8676  1.8524 -0.0755
 1131TIP3    H224885   5.391   1.265   0.968 -1.7786 -0.0106  0.7810
 1132TIP3   OH224886   4.711   4.350   5.754 -0.5755  0.0589 -0.3387
 1132TIP3    H124887   4.621   4.361   5.784 -0.4775  0.3285 -0.1403
 1132TIP3    H224888   4.763   4.405   5.812 -0.3092  0.0952 -0.6063
 1133TIP3   OH224889   0.039   6.265   3.965  0.1769  0.1709  0.1943
 1133TIP3    H124890   0.029   6.334   4.031  0.9594 -0.0208  0.5271
 1133TIP3    H224891  -0.051   6.240   3.942 -0.1176  1.3093  0.0566
 1134TIP3   OH224892   3.827   0.208   3.273 -0.0525  0.3652 -0.0441
 1134TIP3    H124893   3.828   0.115   3.250 -1.1099  0.7287 -1.7571
 1134TIP3    H224894   3.736   0.234   3.264  0.6004  2.1974 -2.5543
 1135TIP3   OH224895   0.401   2.999   2.264  0.3750  0.1602 -0.0249
 1135TIP3    H124896   0.369   2.914   2.232  0.3005  0.3986 -0.6126
 1135TIP3    H224897   0.446   2.979   2.345 -0.2866 -0.3452  0.2305
 1136TIP3   OH224898   1.959   0.808   6.516  0.3415 -0.3222  0.0378
 1136TIP3    H124899   1.967   0.753   6.594  3.2541 -1.9649 -1.2471
 1136TIP3    H224900   1.939   0.895   6.550  0.4959 -1.1822  2.5413
 1137TIP3   OH224901   5.913   5.982  16.701  0.5209  0.2493 -0.0191
 1137TIP3    H124902   5.976   6.036  16.748 -0.2243 -0.1568  1.5299
 1137TIP3    H224903   5.966   5.911  16.664  1.2366  0.9894 -0.4355
 1138TIP3   OH224904   5.150   5.424  11.959 -0.5176 -0.9592 -0.5196
 1138TIP3    H124905   5.213   5.403  11.890  1.6679  0.9533  0.7393
 1138TIP3    H224906   5.139   5.519  11.953 -1.0439 -0.8943  1.1114
 1139TIP3   OH224907   2.117   0.128   5.172  0.3262 -0.2909  0.1644
 1139TIP3    H124908   2.154   0.189   5.236  0.7208  0.4663 -0.7774
 1139TIP3    H224909   2.055   0.180   5.121  1.2612 -0.4673 -1.1828
 1140TIP3   OH224910   1.540   3.185   0.422  0.0645 -0.2234 -0.1518
 1140TIP3    H124911   1.511   3.093   0.416 -2.3896  0.3551  1.4332
 1140TIP3    H224912   1.472   3.234   0.376  0.4277  0.9402  0.5105
 1141TIP3   OH224913   3.079   5.019  16.954  0.1631 -0.5618 -0.4136
 1141TIP3    H124914   3.069   5.031  17.048 -0.2058 -1.5553 -0.3150
 1141TIP3    H224915   3.028   5.090  16.915 -0.9606 -1.0513  0.1325
 1142TIP3   OH224916   0.746   4.505   4.121  0.1235 -0.5918 -0.3986
 1142TIP3    H124917   0.726   4.420   4.159 -0.9556 -1.2701 -2.3427
 1142TIP3    H224918   0.840   4.501   4.102 -0.3712 -2.5724 -3.0647
 1143TIP3   OH224919   0.567   0.333  12.439  0.1407 -0.1440  0.2232
 1143TIP3    H124920   0.625   0.308  12.511 -1.8355  1.2438  2.4772
 1143TIP3    H224921   0.566   0.257  12.381 -0.9512 -2.9518  3.5522
 1144TIP3   OH224922   4.325   1.505   0.518  0.9487 -0.0439 -0.3575
 1144TIP3    H124923   4.403   1.452   0.532 -0.5854 -1.9680  1.5927
 1144TIP3    H224924   4.278   1.461   0.447  0.6027 -0.2136 -0.0315
 1145TIP3   OH224925   5.899   3.476  13.217  0.3747 -0.5017  0.1283
 1145TIP3    H124926   5.990   3.499  13.234  1.2990 -2.7669 -1.3654
 1145TIP3    H224927   5.884   3.502  13.126  0.4278 -2.5267 -0.5069
 1146TIP3   OH224928   5.309   4.026  16.203  0.4126 -0.4064  0.5053
 1146TIP3    H124929   5.258   4.063  16.130  0.2932 -0.1089  0.7356
 1146TIP3    H224930   5.287   4.082  16.277 -0.7600 -1.7176  1.1796
 1147TIP3   OH224931   3.748   4.360   0.588  0.2263  0.1020 -0.2283
 1147TIP3    H124932   3.729   4.378   0.496  1.9813  0.5176 -0.5476
 1147TIP3    H224933   3.702   4.279   0.607 -1.9418  1.1355 -0.8408
 1148TIP3   OH224934   6.416   1.708  15.504  0.6639  0.4368  0.9650
 1148TIP3    H124935   6.409   1.669  15.591  2.9705 -0.1855  0.9258
 1148TIP3    H224936   6.507   1.735  15.497  1.3165 -1.9685 -2.2141
 1149TIP3   OH224937   1.029   5.933   3.963 -0.0057  0.2207 -0.1214
 1149TIP3    H124938   1.034   5.839   3.983 -0.3849  0.3071  0.4045
 1149TIP3    H224939   0.975   5.969   4.033  1.1879  1.0484  0.4019
 1150TIP3   OH224940   4.119   2.841   1.483 -0.1565 -0.4727 -0.1013
 1150TIP3    H124941   4.100   2.752   1.513  2.7137 -1.1595  0.0690
 1150TIP3    H224942   4.100   2.896   1.558 -2.0881 -0.8923 -0.2435
 1151TIP3   OH224943   4.022   2.603   3.096  0.0427 -0.0794  0.0356
 1151TIP3    H124944   4.079   2.632   3.167  0.3014 -1.4967  0.4215
 1151TIP3    H224945   3.939   2.581   3.139 -0.8086  1.8329 -0.5011
 1152TIP3   OH224946   5.026   1.022  15.659  0.5598 -0.4427 -0.1275
 1152TIP3    H124947   4.942   1.062  15.635  1.1282 -0.4611 -2.3002
 1152TIP3    H224948   5.007   0.976  15.741 -1.0580  1.1245  0.4561
 1153TIP3   OH224949   6.640   4.529  11.833  0.5135  0.1705  0.1574
 1153TIP3    H124950   6.628   4.500  11.924  1.6940  2.1102  1.0116
 1153TIP3    H224951   6.623   4.623  11.837  1.1798  0.3833 -1.5291
 1154TIP3   OH224952   6.195   4.630   1.427  0.0495 -0.2584 -0.5952
 1154TIP3    H124953   6.182   4.628   1.333  0.2091  2.1183 -0.7224
 1154TIP3    H224954   6.158   4.548   1.458 -0.1982 -0.9882 -2.6903
 1155TIP3   OH224955   4.210   5.157   2.066  0.3091  1.0364 -0.3125
 1155TIP3    H124956   4.141   5.217   2.094 -0.2645  0.7443 -1.0551
 1155TIP3    H224957   4.289   5.212   2.060 -0.2724  1.8059 -1.2924
 1156TIP3   OH224958   5.597   0.988  12.126 -0.4371 -0.2307  0.1015
 1156TIP3    H124959   5.543   1.062  12.154 -0.6440 -0.1983 -0.3667
 1156TIP3    H224960   5.547   0.948  12.055 -0.1521 -0.6002  0.1050
 1157TIP3   OH224961   2.940   5.110   3.135 -0.6584  0.1471  0.0788
 1157TIP3    H124962   2.997   5.093   3.059 -0.5208 -1.5351  0.5277
 1157TIP3    H224963   2.990   5.174   3.187  0.4891 -0.7154  0.0816
 1158TIP3   OH224964   0.352   1.829   4.627 -0.2783 -0.2945 -0.1332
 1158TIP3    H124965   0.311   1.881   4.696 -1.6353 -0.7424 -0.5688
 1158TIP3    H224966   0.370   1.744   4.669  0.8136  0.1051  0.2339
 1159TIP3   OH224967   2.367   1.083  12.634 -0.0597 -0.7860  0.2777
 1159TIP3    H124968   2.372   0.988  12.649 -0.2720 -0.6304  1.3929
 1159TIP3    H224969   2.447   1.104  12.585  0.3912 -1.4118  0.7327
 1160TIP3   OH224970   3.974   0.035  11.032  0.2181 -0.3020 -0.5163
 1160TIP3    H124971   4.032   0.038  10.956  0.3125  1.5549 -0.4114
 1160TIP3    H224972   3.953  -0.058  11.042  0.7408 -0.6652 -2.3919
 1161TIP3   OH224973   6.532   1.902  11.207 -0.3185  0.9610 -0.0796
 1161TIP3    H124974   6.452   1.927  11.161 -0.6340 -1.1266 -0.7794
 1161TIP3    H224975   6.501   1.866  11.290 -0.2625 -1.0479 -0.8814
 1162TIP3   OH224976   6.764   5.464   1.107  0.0792  0.3980  0.0744
 1162TIP3    H124977   6.832   5.414   1.063 -0.0307  1.9689 -2.0223
 1162TIP3    H224978   6.785   5.556   1.089 -1.5608  0.9975  0.9360
 1163TIP3   OH224979   0.659   2.224  12.397  0.6016  0.1441 -0.3234
 1163TIP3    H124980   0.594   2.228  12.468 -0.5635  0.1951 -1.3615
 1163TIP3    H224981   0.648   2.307  12.350  0.4553 -0.4262 -1.3223
 1164TIP3   OH224982   5.563   4.941  14.952  0.4611 -0.6930  0.3506
 1164TIP3    H124983   5.641   4.993  14.936  1.1874 -1.7972  0.2007
 1164TIP3    H224984   5.595   4.853  14.969 -0.8277 -1.8079 -2.2963
 1165TIP3   OH224985   4.655   2.844   6.023  0.4015 -0.8160 -0.2755
 1165TIP3    H124986   4.738   2.882   5.994  0.5868 -1.2141 -0.2794
 1165TIP3    H224987   4.639   2.884   6.108 -1.6648  2.6788 -2.0750
 1166TIP3   OH224988   0.009   3.255  13.099 -0.2223  0.0176 -0.0846
 1166TIP3    H124989   0.010   3.344  13.134  0.6904 -0.5845  1.5412
 1166TIP3    H224990   0.058   3.204  13.164  0.0251 -1.5051 -1.4259
 1167TIP3   OH224991   5.624   5.175   5.503 -0.5101  0.7701  0.0912
 1167TIP3    H124992   5.639   5.090   5.545  1.6807  0.5456 -1.0183
 1167TIP3    H224993   5.658   5.239   5.565 -1.1326  0.7825  0.4344
 1168TIP3   OH224994   3.069   3.812   6.022 -0.1018 -0.0752 -0.1400
 1168TIP3    H124995   3.141   3.868   5.991 -0.5400  1.2408  1.1083
 1168TIP3    H224996   2.990   3.852   5.987 -0.3359 -0.6417 -0.2655
 1169TIP3   OH224997   0.019   0.141  10.711  0.0936 -0.3670  0.2681
 1169TIP3    H124998   0.042   0.071  10.650 -1.4298  0.5136 -1.4297
 1169TIP3    H224999   0.097   0.197  10.714 -0.1225  0.1225 -1.7511
 1170TIP3   OH225000   2.188   0.327   5.368  0.2558  0.4160  0.4499
 1170TIP3    H125001   2.242   0.355   5.441 -0.0355 -0.1215  0.8825
 1170TIP3    H225002   2.167   0.408   5.321 -0.3384  0.8943  1.5008
 1171TIP3   OH225003   2.257   1.715  15.119 -0.1067  0.1676  0.1489
 1171TIP3    H125004   2.336   1.768  15.109  0.2033 -0.5733 -1.7840
 1171TIP3    H225005   2.251   1.666  15.037 -2.4742  0.0543  0.3333
 1172TIP3   OH225006   2.009   0.769  13.995 -0.6651  0.3670  0.0187
 1172TIP3    H125007   2.011   0.675  13.973  0.8707  0.4028 -0.1226
 1172TIP3    H225008   1.916   0.792  13.991 -1.2583 -1.4504  1.3947
 1173TIP3   OH225009   1.482   1.614  12.451 -0.5710  0.2426  0.4697
 1173TIP3    H125010   1.491   1.679  12.381 -2.6055  1.7776  1.5217
 1173TIP3    H225011   1.562   1.624  12.504  1.2150 -1.2497 -1.7584
 1174TIP3   OH225012   4.612   2.948   1.172  0.5767 -0.7377  0.0182
 1174TIP3    H125013   4.523   2.930   1.203 -1.3588 -0.3322 -4.5558
 1174TIP3    H225014   4.654   2.862   1.168 -0.9522 -1.4679 -1.2141
 1175TIP3   OH225015   1.078   0.234  16.452  1.1142  0.3144 -0.0658
 1175TIP3    H125016   1.068   0.231  16.547  1.0327  0.7839 -0.0564
 1175TIP3    H225017   0.996   0.200  16.417  0.3237  2.0249  0.0245
 1176TIP3   OH225018   4.577   0.219  15.226  0.1309  0.1652  0.8403
 1176TIP3    H125019   4.591   0.197  15.318  1.8492  1.8732  1.0600
 1176TIP3    H225020   4.504   0.281  15.226  0.3945  0.4775  1.1138
 1177TIP3   OH225021   1.521   6.751   4.920 -0.1620 -0.0803 -0.3119
 1177TIP3    H125022   1.442   6.701   4.896 -0.1329  0.4906 -1.6749
 1177TIP3    H225023   1.594   6.693   4.898 -0.1548  0.1700 -0.9606
 1178TIP3   OH225024   4.059   5.524  10.917 -0.4238  0.4051  0.2584
 1178TIP3    H125025   4.123   5.595  10.923 -0.7354  0.7122 -0.0140
 1178TIP3    H225026   4.038   5.503  11.008  1.3347 -0.8703  0.4195
 1179TIP3   OH225027   6.518   4.648   4.676  0.5164  0.0479 -0.4917
 1179TIP3    H125028   6.514   4.714   4.746  0.2997 -0.1487 -0.3151
 1179TIP3    H225029   6.472   4.689   4.603 -1.8738 -0.8496  0.4202
 1180TIP3   OH225030   2.058   3.112   1.219 -0.3978  0.1407 -0.5420
 1180TIP3    H125031   1.998   3.121   1.144 -0.1523 -0.9650 -0.8916
 1180TIP3    H225032   2.085   3.020   1.217  1.5346  0.6574 -0.5638
 1181TIP3   OH225033   5.546   1.615   4.769  0.7237  0.8379 -0.0474
 1181TIP3    H125034   5.563   1.700   4.810  0.0199  0.3537  1.3278
 1181TIP3    H225035   5.513   1.636   4.682 -0.0606  1.9990  0.5085
 1182TIP3   OH225036   1.059   1.319  13.813 -0.0219 -0.1360  0.8824
 1182TIP3    H125037   1.112   1.394  13.785 -0.8230  0.3687  0.6724
 1182TIP3    H225038   1.043   1.334  13.906  0.0108 -0.1648  0.8931
 1183TIP3   OH225039   2.188   2.815  15.136 -0.4115  0.3611  0.5734
 1183TIP3    H125040   2.225   2.815  15.047 -2.2073  0.6279 -0.2167
 1183TIP3    H225041   2.195   2.723  15.164  0.3848  0.3170  0.2693
 1184TIP3   OH225042   0.178   4.755   2.134  0.0915 -0.3650  0.1514
 1184TIP3    H125043   0.214   4.843   2.146 -0.4448 -0.4015  2.6676
 1184TIP3    H225044   0.085   4.765   2.154 -0.6811 -0.9689 -2.6901
 1185TIP3   OH225045   0.197   4.692   2.709  0.2020  0.0339 -0.3789
 1185TIP3    H125046   0.125   4.730   2.760  0.7305 -0.3797  0.7052
 1185TIP3    H225047   0.182   4.724   2.620 -0.9541  0.4832 -0.0509
 1186TIP3   OH225048   5.575   3.586  15.818 -0.2305  0.2426  0.4201
 1186TIP3    H125049   5.516   3.660  15.835 -1.1269 -0.4054  0.2012
 1186TIP3    H225050   5.574   3.575  15.723  0.1948  0.1885  0.4211
 1187TIP3   OH225051   0.037   5.617  17.075 -0.3811  0.7993  0.2789
 1187TIP3    H125052  -0.051   5.591  17.102  0.2022 -0.5290  0.9545
 1187TIP3    H225053   0.094   5.593  17.148  0.9226 -0.7691 -1.1580
 1188TIP3   OH225054   6.565   2.207  15.569  0.1565 -0.8220  0.3323
 1188TIP3    H125055   6.536   2.231  15.481  0.9887 -1.1678 -0.0500
 1188TIP3    H225056   6.656   2.237  15.573  0.1856 -0.9943  1.0027
 1189TIP3   OH225057   0.984   0.812  16.253  0.2050  0.8634  0.2202
 1189TIP3    H125058   1.061   0.867  16.236  1.7645  0.3109  4.4497
 1189TIP3    H225059   1.020   0.724  16.263 -1.5197 -0.0268 -0.8518
 1190TIP3   OH225060   3.437   1.605   3.988 -0.1107 -0.2683  0.2937
 1190TIP3    H125061   3.374   1.581   3.920 -1.9442  1.6123  1.2328
 1190TIP3    H225062   3.511   1.643   3.940 -1.2444  0.7677 -0.6733
 1191TIP3   OH225063   3.137   0.523  16.585  0.3765 -0.3804  0.0143
 1191TIP3    H125064   3.148   0.595  16.524  1.6538 -0.8373 -0.3425
 1191TIP3    H225065   3.096   0.562  16.662 -0.3668  0.3949 -0.7552
 1192TIP3   OH225066   0.688   0.866   2.886  0.1992 -0.0691  0.2860
 1192TIP3    H125067   0.769   0.914   2.870 -1.2004  1.6459 -2.4902
 1192TIP3    H225068   0.620   0.919   2.844 -2.4693 -1.2774  2.7147
 1193TIP3   OH225069   5.781   6.389  13.720  0.0148  0.1996  0.8198
 1193TIP3    H125070   5.866   6.411  13.682  0.4409  2.5465  2.8887
 1193TIP3    H225071   5.717   6.430  13.662  0.5106  1.4335  1.1151
 1194TIP3   OH225072   3.201   6.551  11.475  0.3019  0.4640  0.0894
 1194TIP3    H125073   3.108   6.547  11.497  0.3055 -1.9973 -0.0490
 1194TIP3    H225074   3.245   6.509  11.549  1.4350  2.3726  0.5615
 1195TIP3   OH225075   3.420   0.082   0.447 -0.5077 -0.0258  0.1912
 1195TIP3    H125076   3.509   0.111   0.467  0.0770 -0.8102 -1.0979
 1195TIP3    H225077   3.393   0.137   0.372 -0.6385 -0.5865 -0.1797
 1196TIP3   OH225078   1.439   5.903  16.157  0.2469 -0.2396 -0.2639
 1196TIP3    H125079   1.454   5.824  16.105  0.5826 -0.3559  0.0006
 1196TIP3    H225080   1.522   5.917  16.204  0.2126  0.3113 -0.3609
 1197TIP3   OH225081   5.006   5.679  11.122  0.7718 -0.4058 -0.3522
 1197TIP3    H125082   4.937   5.653  11.061  0.8553 -1.7927  0.1074
 1197TIP3    H225083   5.079   5.620  11.102  2.3576  1.8551 -1.6934
 1198TIP3   OH225084   0.986   6.369  12.478  0.2679  0.2009  0.4052
 1198TIP3    H125085   1.073   6.369  12.517 -0.0387  0.9189  1.1145
 1198TIP3    H225086   0.975   6.281  12.442  2.5449  0.9611 -2.5647
 1199TIP3   OH225087   4.753   4.123   5.631  0.1894 -0.0692 -0.2108
 1199TIP3    H125088   4.673   4.071   5.643  0.1747  0.1983  1.0108
 1199TIP3    H225089   4.731   4.209   5.668  1.0270  0.0029  0.1371
 1200TIP3   OH225090   6.472   2.421   0.247 -0.0369 -0.3854 -0.0153
 1200TIP3    H125091   6.391   2.371   0.248 -0.2024 -0.2883 -2.6080
 1200TIP3    H225092   6.526   2.379   0.180  1.4637  0.4813  0.5857
 1201TIP3   OH225093   2.151   3.760   0.358  0.0053 -0.3146 -0.0567
 1201TIP3    H125094   2.062   3.775   0.326 -0.4431 -0.0121  1.2915
 1201TIP3    H225095   2.205   3.768   0.280 -1.0001  0.8947 -0.6731
 1202TIP3   OH225096   0.702   3.913  11.602  0.2568  0.3540 -0.5184
 1202TIP3    H125097   0.683   3.909  11.509 -0.4221  0.1987 -0.3781
 1202TIP3    H225098   0.738   3.827  11.623  0.0404  0.2523 -0.5621
 1203TIP3   OH225099   2.445   2.716   5.664  0.1287 -0.0945 -0.4655
 1203TIP3    H125100   2.465   2.789   5.723 -1.0233 -0.0073 -0.1605
 1203TIP3    H225101   2.450   2.755   5.576  0.3415  0.1456 -0.3487
 1204TIP3   OH225102   3.524   2.337   5.110 -0.0006 -0.0901 -0.0699
 1204TIP3    H125103   3.464   2.313   5.039 -0.9577  0.3236  0.5808
 1204TIP3    H225104   3.468   2.377   5.177  1.1202  1.1784  0.1650
 1205TIP3   OH225105   4.161   0.223  12.003  0.3389 -0.4212 -0.1053
 1205TIP3    H125106   4.093   0.228  11.936  0.7863 -0.1987 -0.5470
 1205TIP3    H225107   4.161   0.131  12.031  0.8854 -0.7618 -1.1804
 1206TIP3   OH225108   1.994   0.241  17.017  0.3459 -0.5807  0.1880
 1206TIP3    H125109   1.911   0.254  16.971 -0.4329  1.0240  1.9436
 1206TIP3    H225110   1.974   0.174  17.083  1.2086 -2.1572 -1.0625
 1207TIP3   OH225111   3.535   0.914   1.931 -0.1193  0.7340  0.3032
 1207TIP3    H125112   3.470   0.853   1.898 -0.0242  0.8406 -0.0900
 1207TIP3    H225113   3.553   0.885   2.021 -0.9477  0.9038  0.5254
 1208TIP3   OH225114   1.708   2.859   5.375  0.5164 -0.2801 -0.4918
 1208TIP3    H125115   1.680   2.927   5.313  0.7127  0.0807 -0.1820
 1208TIP3    H225116   1.688   2.777   5.329 -1.7955 -0.0713  0.0020
 1209TIP3   OH225117   1.786   6.515  12.040 -0.4643  0.3098  0.1200
 1209TIP3    H125118   1.751   6.462  11.968 -1.1190  0.6085  0.2064
 1209TIP3    H225119   1.710   6.534  12.095 -0.8783  3.6121 -1.3311
 1210TIP3   OH225120   2.820   6.413  11.801 -0.0719 -0.2766  0.3183
 1210TIP3    H125121   2.821   6.461  11.718  1.7471  0.4373  0.7070
 1210TIP3    H225122   2.795   6.324  11.777 -0.2788  0.0820 -0.8827
 1211TIP3   OH225123   2.894   3.394  11.626  0.0999  0.0039  0.4033
 1211TIP3    H125124   2.887   3.301  11.648  1.0104 -0.2854 -0.4459
 1211TIP3    H225125   2.971   3.400  11.570 -0.7524  1.0588 -0.7161
 1212TIP3   OH225126   1.808   4.081  14.122 -0.1440 -0.1191 -0.4444
 1212TIP3    H125127   1.752   4.141  14.073  0.6008 -0.9929 -2.4851
 1212TIP3    H225128   1.752   4.005  14.138 -0.4609  0.2643  0.2912
 1213TIP3   OH225129   3.995   6.696  16.885 -0.1902 -0.5672 -0.8044
 1213TIP3    H125130   4.018   6.731  16.799  1.3358  0.2231 -0.1120
 1213TIP3    H225131   4.046   6.615  16.893 -1.3232 -1.3483 -1.1298
 1214TIP3   OH225132   2.163   6.435  14.402  0.4039  0.1936 -0.5655
 1214TIP3    H125133   2.208   6.465  14.323  0.7952 -1.6824 -1.1153
 1214TIP3    H225134   2.229   6.444  14.472  0.7826 -0.1406 -0.8738
 1215TIP3   OH225135   1.914   0.754   1.997 -0.0333 -0.4138  0.0157
 1215TIP3    H125136   1.903   0.760   1.902 -2.0539 -0.8855  0.1881
 1215TIP3    H225137   1.958   0.670   2.010  0.9466 -0.0093 -0.5119
 1216TIP3   OH225138   6.302   5.948  14.116 -0.2284 -0.0526  0.3916
 1216TIP3    H125139   6.386   5.931  14.159  0.4089 -0.7034 -1.0490
 1216TIP3    H225140   6.239   5.895  14.166  0.5033 -0.8789  0.4590
 1217TIP3   OH225141   0.410   6.323  13.893 -0.8956 -0.0615  0.0078
 1217TIP3    H125142   0.501   6.313  13.920 -0.8653 -1.5399 -0.5845
 1217TIP3    H225143   0.389   6.414  13.916  0.6441  0.2431  0.3600
 1218TIP3   OH225144   3.589   0.071   0.663 -0.5870  0.1540 -0.2939
 1218TIP3    H125145   3.671   0.039   0.702 -0.8211  0.5880  0.6039
 1218TIP3    H225146   3.524   0.060   0.733 -0.7880  2.0212 -0.1263
 1219TIP3   OH225147   3.086   2.426   6.099  0.3083 -0.3236  0.4841
 1219TIP3    H125148   3.118   2.336   6.102  3.7015  0.7779  0.8547
 1219TIP3    H225149   3.041   2.438   6.183  1.4401 -1.1478  1.2342
 1220TIP3   OH225150   0.222   5.890  11.966  0.6427  0.0022  0.3091
 1220TIP3    H125151   0.283   5.904  11.894  0.2986 -0.1524 -0.0197
 1220TIP3    H225152   0.154   5.834  11.929  0.5728 -0.2553  0.8201
 1221TIP3   OH225153   3.947   2.340   5.375 -0.1300  0.2472 -0.7217
 1221TIP3    H125154   4.023   2.292   5.408  0.2619  0.5249 -1.2174
 1221TIP3    H225155   3.916   2.390   5.451  0.7934  0.9179 -0.7714
 1222TIP3   OH225156   5.041   3.391   0.888 -0.3375 -0.0391  0.2592
 1222TIP3    H125157   5.120   3.339   0.872 -1.0553 -1.7430  1.8974
 1222TIP3    H225158   5.050   3.420   0.979 -1.9429 -0.9688  0.7513
 1223TIP3   OH225159   2.983   5.366   1.238  0.4114  0.3111 -0.0232
 1223TIP3    H125160   3.058   5.318   1.202  0.8863  1.0970 -0.1183
 1223TIP3    H225161   2.971   5.331   1.326  0.4756 -0.2738 -0.2427
 1224TIP3   OH225162   2.804   2.228   2.957 -0.3966  0.0796 -0.0402
 1224TIP3    H125163   2.725   2.203   3.006 -0.5434  0.1785 -0.2254
 1224TIP3    H225164   2.778   2.308   2.910  0.2049  0.8607  0.9145
 1225TIP3   OH225165   2.190   2.941  15.697  0.4864  0.0898 -0.2118
 1225TIP3    H125166   2.098   2.970  15.691  0.7708  0.8558 -1.2415
 1225TIP3    H225167   2.185   2.846  15.701 -0.4336  0.1764  1.9409
 1226TIP3   OH225168   1.443   6.413   1.230 -0.3769 -0.0286  0.5108
 1226TIP3    H125169   1.385   6.469   1.179  0.1027  0.1524  0.1601
 1226TIP3    H225170   1.531   6.435   1.200 -0.1835 -1.0502  0.2803
 1227TIP3   OH225171   0.474   0.764   0.227  0.0093  0.0962 -0.4102
 1227TIP3    H125172   0.504   0.707   0.297  0.1659  1.3845  0.6011
 1227TIP3    H225173   0.452   0.704   0.155  3.2538 -1.0345 -0.6060
 1228TIP3   OH225174   0.435   1.162  12.230 -0.2529  0.4715 -1.0304
 1228TIP3    H125175   0.358   1.128  12.276  0.5379  1.1685  0.9530
 1228TIP3    H225176   0.411   1.252  12.208 -0.3710  0.3624 -1.3547
 1229TIP3   OH225177   0.486   0.818  10.430  0.0452  0.6763 -0.0700
 1229TIP3    H125178   0.573   0.837  10.464  1.2609 -2.0684 -1.3970
 1229TIP3    H225179   0.491   0.840  10.337 -0.3732 -0.3977 -0.3592
 1230TIP3   OH225180   4.116   6.725   4.055 -0.0873  0.6180 -0.2398
 1230TIP3    H125181   4.161   6.798   4.014 -0.2951 -0.5712 -2.7756
 1230TIP3    H225182   4.107   6.660   3.986  1.9425 -2.7410  2.2987
 1231TIP3   OH225183   0.209   1.693  16.191  0.1345 -0.0951 -0.0155
 1231TIP3    H125184   0.123   1.731  16.211 -0.2091  0.5003 -2.3194
 1231TIP3    H225185   0.270   1.744  16.244 -0.6715  1.5241 -0.5669
 1232TIP3   OH225186   6.852   2.777   3.533 -0.3058  0.0375  0.2663
 1232TIP3    H125187   6.821   2.856   3.488 -0.6928 -0.2601  0.0052
 1232TIP3    H225188   6.901   2.810   3.607  0.2714  0.5383 -0.3289
 1233TIP3   OH225189   0.585   4.132  15.026  0.4996 -0.9517 -0.4060
 1233TIP3    H125190   0.495   4.123  15.060 -0.0376 -0.9295 -1.7522
 1233TIP3    H225191   0.617   4.212  15.066 -1.5255  1.2562 -2.7983
 1234TIP3   OH225192   5.709   4.679   4.186  0.0880  0.2487 -0.5137
 1234TIP3    H125193   5.738   4.762   4.223 -1.3640  1.0892 -1.1831
 1234TIP3    H225194   5.770   4.663   4.113  1.2018  0.0164  0.4497
 1235TIP3   OH225195   3.585   2.552  12.398 -0.7158  0.4954 -0.4464
 1235TIP3    H125196   3.665   2.584  12.356  0.0419  0.9162  1.2343
 1235TIP3    H225197   3.538   2.631  12.425 -0.8899  0.2405  0.0158
 1236TIP3   OH225198   4.118   0.537  11.816 -0.2474  0.9171 -0.0644
 1236TIP3    H125199   4.069   0.599  11.762 -0.5472  1.1192  0.4283
 1236TIP3    H225200   4.057   0.465  11.830 -0.4929  1.2616  0.7189
 1237TIP3   OH225201   3.937   5.183  13.809 -0.3966  0.0346 -0.3852
 1237TIP3    H125202   3.930   5.159  13.901  0.2816 -0.0590 -0.3560
 1237TIP3    H225203   3.878   5.258  13.800  2.1993  2.4022  0.9570
 1238TIP3   OH225204   4.842   3.358  15.647  0.1134  0.1951 -0.1615
 1238TIP3    H125205   4.811   3.427  15.588 -0.5069 -1.6612 -2.0919
 1238TIP3    H225206   4.773   3.351  15.714 -0.3315  0.7064 -0.5618
 1239TIP3   OH225207   2.614   2.798  14.875  0.9855  0.2309  0.0637
 1239TIP3    H125208   2.641   2.889  14.889 -0.1205  0.6525 -0.4499
 1239TIP3    H225209   2.682   2.761  14.818  0.3894  1.3372 -1.4297
 1240TIP3   OH225210   0.501   5.418   3.161 -0.5615 -0.4679 -0.1055
 1240TIP3    H125211   0.432   5.360   3.195  1.8042 -2.6594  1.3170
 1240TIP3    H225212   0.454   5.494   3.127 -3.6279 -1.6436  1.1583
 1241TIP3   OH225213   4.515   0.655  15.099 -0.4183  0.3048  0.0805
 1241TIP3    H125214   4.425   0.686  15.092 -0.3165  0.5750 -0.0745
 1241TIP3    H225215   4.511   0.564  15.072 -0.5399  0.5032 -0.5934
 1242TIP3   OH225216   4.323   6.556   4.143  0.1199  0.3447 -0.4123
 1242TIP3    H125217   4.373   6.589   4.218 -2.1714 -0.5194  1.6338
 1242TIP3    H225218   4.256   6.623   4.128  0.8573  0.7478 -2.0704
 1243TIP3   OH225219   6.584   5.989  14.076  0.4694  0.0089  0.0939
 1243TIP3    H125220   6.572   6.005  13.983 -2.9598 -2.2205 -0.0064
 1243TIP3    H225221   6.620   5.901  14.081 -0.1856 -0.2280  0.8663
 1244TIP3   OH225222   2.994   3.205   5.546  0.4144 -0.0147 -0.1067
 1244TIP3    H125223   2.934   3.241   5.481  1.1917  0.2047 -0.7215
 1244TIP3    H225224   2.982   3.260   5.624  0.3961  0.5282 -0.4915
 1245TIP3   OH225225   2.215   4.023   4.390 -0.2702  0.1566 -0.4395
 1245TIP3    H125226   2.238   4.070   4.470 -2.2651 -1.1382  0.9801
 1245TIP3    H225227   2.283   4.049   4.327  1.3465  1.2434  1.6212
 1246TIP3   OH225228   0.369   3.044  13.623  0.2556 -0.6166  0.5741
 1246TIP3    H125229   0.280   3.010  13.624 -0.4538  0.7892 -2.3095
 1246TIP3    H225230   0.411   3.000  13.549  1.6492 -0.5710  1.3105
 1247TIP3   OH225231   1.586   2.801   2.547  0.0568  0.0193  0.0861
 1247TIP3    H125232   1.526   2.744   2.500  0.0822 -0.5948  0.7722
 1247TIP3    H225233   1.633   2.849   2.479  1.1743 -1.9294 -0.5846
 1248TIP3   OH225234   1.520   2.248   4.574 -0.3077  0.0121  0.1927
 1248TIP3    H125235   1.517   2.155   4.552  0.3127  0.5398 -2.4060
 1248TIP3    H225236   1.613   2.266   4.587 -0.3289  0.4515 -0.2476
 1249TIP3   OH225237   6.125   5.287  15.795  0.3232  0.6208  0.1882
 1249TIP3    H125238   6.049   5.249  15.838  1.1730 -0.1434  1.0594
 1249TIP3    H225239   6.116   5.262  15.703 -1.0619  1.5299  0.0577
 1250TIP3   OH225240   1.117   6.604  14.329  0.1766 -0.0215 -0.2582
 1250TIP3    H125241   1.091   6.550  14.254 -1.0121 -1.2036  0.9577
 1250TIP3    H225242   1.210   6.587  14.340  1.1647  2.4801 -3.2452
 1251TIP3   OH225243   0.700   3.378   3.464  0.1283  1.1998  0.4145
 1251TIP3    H125244   0.662   3.378   3.551 -1.8109  0.8652 -0.3912
 1251TIP3    H225245   0.726   3.287   3.449  1.2933  1.4205  0.9465
 1252TIP3   OH225246   1.626   3.833   0.213 -0.5570  0.4131  0.1524
 1252TIP3    H125247   1.583   3.917   0.225 -0.3843  1.0879 -3.0129
 1252TIP3    H225248   1.558   3.776   0.177 -0.3261 -0.4335  1.0040
 1253TIP3   OH225249   4.701   0.492  14.689 -0.1136  0.7900 -0.3356
 1253TIP3    H125250   4.655   0.410  14.704  0.2791  0.2955 -1.7096
 1253TIP3    H225251   4.793   0.471  14.705 -0.0733  1.0929 -0.1726
 1254TIP3   OH225252   4.462   3.732  17.105  0.1247  0.1906  0.9581
 1254TIP3    H125253   4.392   3.668  17.123 -0.5937  0.7850  0.3425
 1254TIP3    H225254   4.418   3.817  17.108  0.4476  0.4693 -1.2069
 1255TIP3   OH225255   6.497   2.542  14.601 -0.4993  0.2033 -0.3900
 1255TIP3    H125256   6.503   2.627  14.644 -0.4104 -0.2725  0.5669
 1255TIP3    H225257   6.417   2.547  14.549 -1.3442  0.3424  0.8841
 1256TIP3   OH225258   2.160   3.591   2.659  0.9021 -0.2204  0.0878
 1256TIP3    H125259   2.187   3.547   2.739 -1.4948 -3.0677 -0.4826
 1256TIP3    H225260   2.077   3.633   2.681  0.3496 -0.8095 -0.7922
 1257TIP3   OH225261   4.261   4.190  13.975  0.1906  0.1976 -0.2872
 1257TIP3    H125262   4.238   4.280  13.952 -0.5017 -0.3049 -1.6869
 1257TIP3    H225263   4.334   4.198  14.035 -0.3155  1.7148  0.1582
 1258TIP3   OH225264   0.165   1.134  14.375 -0.3569 -0.5212 -0.0482
 1258TIP3    H125265   0.236   1.179  14.328  0.4164 -1.6713 -0.0027
 1258TIP3    H225266   0.131   1.071  14.312 -1.0979 -0.2336  0.0581
 1259TIP3   OH225267   4.312   4.906   5.550  0.4012 -0.2815 -0.0701
 1259TIP3    H125268   4.285   4.943   5.466 -1.3837 -0.6412  0.3053
 1259TIP3    H225269   4.361   4.977   5.593  3.9086 -0.9872 -2.4888
 1260TIP3   OH225270   4.464   3.872   6.927  0.1309 -0.2480  0.5904
 1260TIP3    H125271   4.424   3.815   6.861 -4.1486  0.1218  2.5076
 1260TIP3    H225272   4.467   3.958   6.887  1.0220 -0.6674 -0.2877
 1261TIP3   OH225273   2.593   1.294   6.052  0.2090  0.2478 -0.0283
 1261TIP3    H125274   2.689   1.291   6.050  0.2147  0.5092 -1.2704
 1261TIP3    H225275   2.571   1.372   6.001 -0.6787 -0.6467 -1.0574
 1262TIP3   OH225276   4.029   1.017  16.458  0.8500 -0.2944 -0.6610
 1262TIP3    H125277   3.964   1.021  16.528  1.5772 -1.7902  0.1515
 1262TIP3    H225278   3.978   0.998  16.379  0.2000 -0.4454 -0.2154
 1263TIP3   OH225279   1.760   5.843   2.131  0.1449  0.0520 -0.3378
 1263TIP3    H125280   1.835   5.901   2.117 -0.1116  0.4352 -0.1250
 1263TIP3    H225281   1.797   5.767   2.177  0.2377  0.6847  0.6761
 1264TIP3   OH225282   1.881   2.853   6.055 -0.2443  1.2443 -0.9483
 1264TIP3    H125283   1.805   2.826   6.106  0.9902  0.4964  0.5656
 1264TIP3    H225284   1.925   2.770   6.032  1.2505  1.7372  0.0285
 1265TIP3   OH225285   0.034   2.944   0.212  0.0867  0.0079 -0.6523
 1265TIP3    H125286   0.039   2.953   0.117 -0.5358 -0.5946 -0.7466
 1265TIP3    H225287   0.122   2.965   0.243 -0.3111  2.8368 -1.1257
 1266TIP3   OH225288   5.807   2.205  16.211 -0.2687  0.1502 -0.1887
 1266TIP3    H125289   5.868   2.279  16.213 -1.1136  0.8513  0.1651
 1266TIP3    H225290   5.721   2.246  16.203 -0.7692 -0.7933  0.3388
 1267TIP3   OH225291   5.358   5.075   3.254 -0.7366 -0.3122  0.2658
 1267TIP3    H125292   5.452   5.063   3.238  0.0168  2.9097  1.3253
 1267TIP3    H225293   5.331   4.997   3.301  1.6450 -0.9650  0.6723
 1268TIP3   OH225294   0.388   6.746  16.735 -0.4151  0.1135  0.2364
 1268TIP3    H125295   0.312   6.792  16.702  0.2901  1.8304  0.8770
 1268TIP3    H225296   0.451   6.747  16.663 -0.0639  1.0265  0.5317
 1269TIP3   OH225297   1.053   4.810   2.969 -0.2308 -0.1442  0.0172
 1269TIP3    H125298   1.026   4.740   2.909 -1.7630 -0.0802  0.5939
 1269TIP3    H225299   0.978   4.870   2.972  0.9658  1.4562 -0.3194
 1270TIP3   OH225300   0.929   2.649  14.118 -0.4819  0.1295  0.5903
 1270TIP3    H125301   1.011   2.636  14.071 -0.6231  1.9808 -0.2589
 1270TIP3    H225302   0.955   2.689  14.201 -0.5468  1.5658 -0.0542
 1271TIP3   OH225303   6.179   5.422  16.255  0.0352 -0.0335 -0.2044
 1271TIP3    H125304   6.196   5.515  16.241 -2.9577  0.4838 -1.0191
 1271TIP3    H225305   6.221   5.378  16.182  1.0945  0.6903 -0.0508
 1272TIP3   OH225306   0.618   4.665  16.626 -0.0594 -0.2001  0.1360
 1272TIP3    H125307   0.701   4.646  16.671  1.4603  2.5771 -1.1919
 1272TIP3    H225308   0.645   4.690  16.537 -2.4312 -0.0634 -0.6073
 1273TIP3   OH225309   4.651   1.650  11.733 -0.1959  0.4647  0.0151
 1273TIP3    H125310   4.667   1.693  11.650  0.9042  0.7924  0.3832
 1273TIP3    H225311   4.593   1.577  11.712 -0.5108  0.9747 -0.9130
 1274TIP3   OH225312   6.780   1.640   0.485 -0.1398  0.1831 -0.3792
 1274TIP3    H125313   6.707   1.702   0.492 -1.1633 -1.1636  2.1453
 1274TIP3    H225314   6.853   1.684   0.529  0.4556  1.2537 -2.3188
 1275TIP3   OH225315   0.594   4.254   1.556 -0.6383  0.3493 -0.3732
 1275TIP3    H125316   0.665   4.229   1.497  0.5575  1.5417  0.5041
 1275TIP3    H225317   0.615   4.344   1.583 -0.7488 -0.3456  2.3535
 1276TIP3   OH225318   5.402   5.086   3.582  0.7825  0.5315 -0.4118
 1276TIP3    H125319   5.464   5.159   3.578 -0.0399  1.2021 -1.5816
 1276TIP3    H225320   5.318   5.124   3.555  0.0267 -0.5467  0.3019
 1277TIP3   OH225321   4.282   1.722   5.174  0.3053 -0.0679 -0.2958
 1277TIP3    H125322   4.250   1.811   5.180  1.8699  0.4388  1.5867
 1277TIP3    H225323   4.378   1.730   5.176  0.5439 -1.7026 -1.8561
 1278TIP3   OH225324   0.757   2.704   1.981 -0.4273  0.1473  0.1387
 1278TIP3    H125325   0.808   2.628   1.952  0.8024  0.7382  0.6850
 1278TIP3    H225326   0.667   2.685   1.952  0.2589 -0.4520 -1.7432
 1279TIP3   OH225327   0.910   0.252   6.135  0.0573 -0.1432 -0.6857
 1279TIP3    H125328   0.844   0.286   6.195  0.0709 -1.5371  0.1725
 1279TIP3    H225329   0.919   0.319   6.068 -1.7210  0.3764 -0.4446
 1280TIP3   OH225330   3.354   0.755  14.892  0.0881 -0.4603  0.4785
 1280TIP3    H125331   3.442   0.730  14.919 -0.3424 -2.7973 -0.0720
 1280TIP3    H225332   3.296   0.708  14.953 -0.7818  0.1886  0.1658
 1281TIP3   OH225333   0.475   2.161   0.926  0.2701  0.0577 -0.6508
 1281TIP3    H125334   0.492   2.248   0.964  2.3370 -0.2654 -0.6943
 1281TIP3    H225335   0.416   2.178   0.853 -0.1818  1.2847 -0.0361
 1282TIP3   OH225336   6.756   0.772   2.496 -0.1708 -0.0561 -0.5355
 1282TIP3    H125337   6.782   0.752   2.586  0.8289 -0.6737 -0.9495
 1282TIP3    H225338   6.663   0.749   2.492 -0.5477  1.1296  0.6656
 1283TIP3   OH225339   6.556   2.844  14.761 -0.3620  0.2276  0.2278
 1283TIP3    H125340   6.579   2.893  14.839  0.0580 -0.4564  0.5408
 1283TIP3    H225341   6.608   2.884  14.691  0.2937 -0.0299  0.5580
 1284TIP3   OH225342   5.734   5.756   3.614 -0.2205 -0.5426  0.5942
 1284TIP3    H125343   5.783   5.816   3.671  0.4622 -2.1680  1.8109
 1284TIP3    H225344   5.797   5.687   3.594 -0.7507 -0.5047 -1.4037
 1285TIP3   OH225345   4.423   5.698  13.047  0.2295 -0.5810  0.0741
 1285TIP3    H125346   4.510   5.661  13.030  0.6643  0.5153 -0.1228
 1285TIP3    H225347   4.388   5.718  12.960  0.1615 -0.1644  0.1948
 1286TIP3   OH225348   6.402   5.331  13.269 -0.5966  0.0866 -0.1822
 1286TIP3    H125349   6.348   5.267  13.223 -0.4051 -0.6852  0.6449
 1286TIP3    H225350   6.436   5.284  13.345 -1.2605  1.4438  1.0059
 1287TIP3   OH225351   1.798   3.345   1.917 -0.0579 -0.0763  0.0910
 1287TIP3    H125352   1.883   3.387   1.916  0.2479 -0.6810  0.4310
 1287TIP3    H225353   1.811   3.264   1.965 -0.4507 -0.9574 -1.2379
 1288TIP3   OH225354   2.907   6.767   4.910 -0.4198 -0.6791 -0.1212
 1288TIP3    H125355   2.982   6.739   4.962 -1.7719 -2.3682  1.0036
 1288TIP3    H225356   2.877   6.847   4.953  0.5898 -0.0806 -0.4799
 1289TIP3   OH225357   5.729   6.554   0.409 -0.0714  0.1379  0.3539
 1289TIP3    H125358   5.693   6.466   0.420  0.7068 -0.1923  0.3086
 1289TIP3    H225359   5.794   6.563   0.479  0.3314  0.4280 -0.0524
 1290TIP3   OH225360   2.313   4.375  14.971  0.1867  0.4571 -0.1025
 1290TIP3    H125361   2.297   4.448  14.911  1.6303  2.7122  2.0379
 1290TIP3    H225362   2.401   4.344  14.950  0.9842  1.7215  1.1912
 1291TIP3   OH225363   6.679   4.048  13.802  0.1052 -0.0369  0.4713
 1291TIP3    H125364   6.708   4.134  13.832 -0.4293  0.8459 -1.3956
 1291TIP3    H225365   6.750   3.989  13.826  0.9546  1.1079  0.8468
 1292TIP3   OH225366   2.772   4.998   5.007 -0.0097  0.1153 -0.6265
 1292TIP3    H125367   2.765   5.087   4.971  0.3046  0.8726  1.0671
 1292TIP3    H225368   2.866   4.986   5.022  0.0170 -0.7742 -1.4325
 1293TIP3   OH225369   2.621   3.497  12.630 -0.0180  0.3835  0.4489
 1293TIP3    H125370   2.638   3.446  12.550 -0.4045 -0.2624  0.7656
 1293TIP3    H225371   2.571   3.572  12.600 -1.4391 -0.5991  0.2457
 1294TIP3   OH225372   2.121   3.705  14.955  0.1558  0.1184 -0.8839
 1294TIP3    H125373   2.031   3.738  14.960  0.2054  0.4353 -1.8603
 1294TIP3    H225374   2.162   3.736  15.036 -0.6383 -0.1425 -0.3657
 1295TIP3   OH225375   1.256   1.709   1.307 -0.2142 -0.2529  0.3997
 1295TIP3    H125376   1.351   1.700   1.303 -0.3878 -2.6579 -0.0079
 1295TIP3    H225377   1.238   1.728   1.399  0.5841 -1.7623  0.9051
 1296TIP3   OH225378   1.401   0.471   3.114 -0.4174  0.1891  0.7302
 1296TIP3    H125379   1.431   0.427   3.194  0.5064 -0.2778  0.1406
 1296TIP3    H225380   1.395   0.400   3.049  1.4776  0.9401 -0.3505
 1297TIP3   OH225381   2.758   5.572  10.941 -0.0823  0.1794  0.2255
 1297TIP3    H125382   2.805   5.518  11.004  0.2712 -0.0392 -0.2230
 1297TIP3    H225383   2.781   5.662  10.965  1.6770  0.0480 -0.8312
 1298TIP3   OH225384   2.027   4.891  14.290  0.1667 -0.2352  0.0944
 1298TIP3    H125385   2.019   4.803  14.253 -1.0657  0.6162 -1.8309
 1298TIP3    H225386   1.982   4.886  14.374 -1.1660 -1.1205 -0.6394
 1299TIP3   OH225387   4.790   1.914  16.744  0.1404 -0.5214  0.0582
 1299TIP3    H125388   4.848   1.988  16.762 -0.1783 -0.4079  0.6370
 1299TIP3    H225389   4.848   1.839  16.737  0.3753 -0.3743  0.4298
 1300TIP3   OH225390   2.703   2.176  16.305  0.2275  0.4952  0.2868
 1300TIP3    H125391   2.784   2.152  16.351  0.4795 -0.7173 -0.7157
 1300TIP3    H225392   2.705   2.271  16.300  2.5004  0.4388 -1.2418
 1301TIP3   OH225393   4.950   1.865   4.960  0.9346  0.5733 -0.0806
 1301TIP3    H125394   4.924   1.907   5.042  1.9365  0.5274  0.2705
 1301TIP3    H225395   5.034   1.824   4.979  0.5619 -0.5734 -0.7577
 1302TIP3   OH225396   5.881   6.784  13.323 -0.5365 -0.1349 -0.0031
 1302TIP3    H125397   5.933   6.824  13.392 -1.7224 -0.1678  0.9566
 1302TIP3    H225398   5.792   6.815  13.340 -0.8612 -0.2064 -1.4877
 1303TIP3   OH225399   6.792   6.852   4.191  0.1796  0.0043 -0.1377
 1303TIP3    H125400   6.876   6.881   4.156  0.1055  0.1462 -0.1989
 1303TIP3    H225401   6.783   6.898   4.275  0.6439 -0.8104  0.3746
 1304TIP3   OH225402   2.081   2.108   2.639 -0.2725 -0.6258 -0.3025
 1304TIP3    H125403   2.130   2.189   2.623  0.9778 -1.5439 -1.2667
 1304TIP3    H225404   2.024   2.099   2.563 -2.3519  0.6588  1.0077
 1305TIP3   OH225405   2.421   4.276  16.292 -0.1572  0.3958 -0.1817
 1305TIP3    H125406   2.326   4.262  16.295 -0.2236  0.9563  0.5356
 1305TIP3    H225407   2.432   4.364  16.258 -0.0673  1.7998  3.0923
 1306TIP3   OH225408   4.176   6.209  14.206  0.3280  0.0569  0.2566
 1306TIP3    H125409   4.175   6.145  14.277  0.0457 -0.0824  0.1286
 1306TIP3    H225410   4.223   6.284  14.242  0.8579 -0.3086  0.3352
 1307TIP3   OH225411   5.706   2.936   2.750  0.1370 -0.2442  0.2515
 1307TIP3    H125412   5.708   2.847   2.786  0.4129 -0.7549 -0.9563
 1307TIP3    H225413   5.700   2.993   2.827  0.1458 -1.2945  1.0610
 1308TIP3   OH225414   3.154   3.468  16.372 -0.2882 -0.0090  0.5218
 1308TIP3    H125415   3.090   3.416  16.323 -0.4643 -0.1212  0.8668
 1308TIP3    H225416   3.127   3.459  16.463 -1.6258  2.4144  0.4620
 1309TIP3   OH225417   6.292   5.967  12.042 -0.3743 -0.1913  0.6553
 1309TIP3    H125418   6.338   6.030  11.986 -0.7423 -0.2041  0.3375
 1309TIP3    H225419   6.206   6.006  12.057 -0.6010 -0.6101  0.4650
 1310TIP3   OH225420   6.170   0.134  10.569  0.1721  0.0383 -0.5293
 1310TIP3    H125421   6.195   0.204  10.509 -0.9229  0.4092 -0.5849
 1310TIP3    H225422   6.088   0.099  10.532  0.5404 -1.0717 -0.3347
 1311TIP3   OH225423   0.449   4.492  11.787  0.6433 -0.3961 -0.5687
 1311TIP3    H125424   0.476   4.447  11.866  0.3785  1.1962  0.4797
 1311TIP3    H225425   0.416   4.423  11.729  1.1905 -1.6242  0.5451
 1312TIP3   OH225426   6.756   3.897   0.377  0.1368  0.0188 -0.3853
 1312TIP3    H125427   6.694   3.850   0.434 -0.0126 -0.6995 -1.1128
 1312TIP3    H225428   6.818   3.938   0.437  0.8055 -1.8605  0.2951
 1313TIP3   OH225429   5.814   0.435  10.876  0.4173  0.3082  0.5035
 1313TIP3    H125430   5.780   0.466  10.960  2.2180  1.0573  1.0057
 1313TIP3    H225431   5.885   0.376  10.899  1.2485  0.8864 -0.4781
 1314TIP3   OH225432   6.696   4.008  14.211  0.2017 -0.2941  0.1950
 1314TIP3    H125433   6.708   3.961  14.294  0.4961 -0.1326  0.2451
 1314TIP3    H225434   6.612   4.051  14.219 -0.2033 -1.0312  0.0450
 1315TIP3   OH225435   1.931   5.367   1.554 -0.4780 -0.0455 -0.1125
 1315TIP3    H125436   1.940   5.294   1.616 -0.2733  1.3340  1.5561
 1315TIP3    H225437   1.840   5.360   1.523 -0.9368 -0.1494  1.1786
 1316TIP3   OH225438   1.621   4.724  17.067  0.4084  0.6934 -0.1743
 1316TIP3    H125439   1.644   4.662  16.998 -0.9797  0.1262 -0.1561
 1316TIP3    H225440   1.562   4.786  17.024 -0.6067  0.2332  0.5279
 1317TIP3   OH225441   6.855   0.126  16.258  0.4906  0.1994  0.1707
 1317TIP3    H125442   6.828   0.107  16.168 -1.6809  0.7535  0.6688
 1317TIP3    H225443   6.899   0.211  16.252  0.7249  0.0416 -0.4269
 1318TIP3   OH225444   5.917   0.348  14.456  0.2064 -0.4285  0.5596
 1318TIP3    H125445   5.922   0.269  14.510 -0.0452 -0.9409 -0.1702
 1318TIP3    H225446   5.897   0.418  14.519  0.0416 -0.9992  1.1521
 1319TIP3   OH225447   1.204   2.538  11.238  0.3939  0.1220  0.2193
 1319TIP3    H125448   1.296   2.546  11.264  0.2868  1.9160  0.1459
 1319TIP3    H225449   1.164   2.488  11.309  1.1047  0.7376  1.0775
 1320TIP3   OH225450   5.835   1.550  15.458 -0.1033 -0.7968  0.3803
 1320TIP3    H125451   5.765   1.487  15.475  0.6251 -1.5653  0.5979
 1320TIP3    H225452   5.817   1.581  15.369 -0.2637 -1.5967  0.1218
 1321TIP3   OH225453   0.626   2.874   5.110 -0.0405 -0.6944 -0.0923
 1321TIP3    H125454   0.645   2.938   5.178 -0.4306 -2.1514  1.4412
 1321TIP3    H225455   0.548   2.908   5.066  1.5898  1.5047 -1.5140
 1322TIP3   OH225456   5.371   0.946  16.759  0.4844 -0.4553 -0.3263
 1322TIP3    H125457   5.419   0.934  16.840  0.6496  0.2878 -0.3092
 1322TIP3    H225458   5.410   0.883  16.698  2.1992  0.8031 -0.6109
 1323TIP3   OH225459   2.953   4.084  16.776  0.2792  0.5307 -0.1906
 1323TIP3    H125460   2.930   3.997  16.744 -0.6088  1.8016 -3.3568
 1323TIP3    H225461   2.886   4.104  16.842 -0.6186 -0.4721 -0.7696
 1324TIP3   OH225462   1.485   0.876  15.394  0.1672  0.1595 -0.2622
 1324TIP3    H125463   1.553   0.915  15.340  1.7770  2.6589  3.2168
 1324TIP3    H225464   1.408   0.931  15.379  0.6193  0.8718 -0.0040
 1325TIP3   OH225465   6.679   0.919  14.499 -0.4241  0.0498  0.1277
 1325TIP3    H125466   6.727   0.995  14.530  0.9821 -1.1022  0.9147
 1325TIP3    H225467   6.686   0.923  14.403  1.2200 -0.0185  0.2072
 1326TIP3   OH225468   2.268   3.572  16.114  0.2114  0.5427  0.4195
 1326TIP3    H125469   2.295   3.535  16.030  2.2440  0.3581  1.0959
 1326TIP3    H225470   2.182   3.610  16.097 -1.7833 -3.7436 -0.5614
 1327TIP3   OH225471   3.255   4.185   5.284  0.2604 -0.6588 -0.6996
 1327TIP3    H125472   3.244   4.165   5.191 -1.7986 -0.5688 -0.5226
 1327TIP3    H225473   3.209   4.268   5.296  1.7623  0.0822  0.1430
 1328TIP3   OH225474   3.696   3.217  16.552  0.2186 -0.2481 -0.1434
 1328TIP3    H125475   3.673   3.144  16.609  0.9900 -1.0312 -0.8085
 1328TIP3    H225476   3.792   3.218  16.552  0.2382  1.5342  0.8124
 1329TIP3   OH225477   3.520   4.777  13.107 -0.1380 -0.3108  0.0339
 1329TIP3    H125478   3.597   4.826  13.079 -0.4799  0.3411  0.2148
 1329TIP3    H225479   3.481   4.831  13.176 -1.0342 -0.3970 -0.3969
 1330TIP3   OH225480   3.193   4.061   0.706  0.6109 -0.0622 -0.3691
 1330TIP3    H125481   3.129   3.998   0.737  3.1477 -2.2477  0.8229
 1330TIP3    H225482   3.148   4.110   0.638 -2.7229 -0.4377  1.3777
 1331TIP3   OH225483   4.664   0.865   1.683  0.5614 -0.1202  0.1534
 1331TIP3    H125484   4.712   0.784   1.672 -1.0036 -1.0261 -0.2913
 1331TIP3    H225485   4.723   0.922   1.732  1.5866 -1.6052  0.6837
 1332TIP3   OH225486   3.459   2.050   0.781  0.2940  0.2914  0.3113
 1332TIP3    H125487   3.396   2.051   0.853  0.3330 -1.1070  0.3867
 1332TIP3    H225488   3.540   2.086   0.819 -0.5696  2.7530  0.0322
 1333TIP3   OH225489   5.926   5.395   5.474  0.2589  0.0283  0.1020
 1333TIP3    H125490   5.966   5.431   5.554 -0.4982 -0.9531  0.9549
 1333TIP3    H225491   5.982   5.321   5.451 -0.0876 -0.3018  0.3104
 1334TIP3   OH225492   5.308   0.744  12.755 -0.3345  0.2206 -0.0638
 1334TIP3    H125493   5.343   0.730  12.666  1.2225 -1.6404  0.7562
 1334TIP3    H225494   5.273   0.833  12.753  0.6183  0.6270 -2.2405
 1335TIP3   OH225495   5.567   1.786  15.762  0.3120 -0.4837  0.1119
 1335TIP3    H125496   5.582   1.695  15.786 -0.2255 -0.3064  1.1732
 1335TIP3    H225497   5.484   1.809  15.803  1.2909  0.9983  1.3903
 1336TIP3   OH225498   6.008   5.952  12.804 -0.1240  0.1149 -0.1127
 1336TIP3    H125499   5.975   5.875  12.849 -0.9875  0.3836 -0.2618
 1336TIP3    H225500   6.074   5.918  12.743 -0.3058 -0.4664  0.0107
 1337TIP3   OH225501   4.733   0.083  11.926 -0.1149 -0.6156 -0.3843
 1337TIP3    H125502   4.667   0.081  11.995  0.8425 -0.0954  0.5761
 1337TIP3    H225503   4.817   0.090  11.973  0.4544  1.8345 -1.5799
 1338TIP3   OH225504   5.910   3.334   2.471 -0.4977  0.4147 -0.0355
 1338TIP3    H125505   5.844   3.272   2.443 -1.7005  0.4532  2.4089
 1338TIP3    H225506   5.983   3.279   2.501  0.3731  0.3582 -2.1354
 1339TIP3   OH225507   0.454   1.754   3.680  0.3567  0.0307  0.0918
 1339TIP3    H125508   0.407   1.788   3.757 -0.5138 -0.6083 -0.1357
 1339TIP3    H225509   0.437   1.659   3.683 -2.4735  0.2986 -2.6426
 1340TIP3   OH225510   3.339   0.957   0.544 -0.7039  0.8971 -0.0119
 1340TIP3    H125511   3.302   0.924   0.626 -1.0568 -0.3828 -0.6613
 1340TIP3    H225512   3.340   0.881   0.486  1.6358  1.2263 -0.4842
 1341TIP3   OH225513   2.334   2.005   3.175  0.1236 -0.2434  0.2542
 1341TIP3    H125514   2.288   2.086   3.198 -0.0567 -0.3954  0.4381
 1341TIP3    H225515   2.338   2.006   3.080  3.0377  1.6163  0.2598
 1342TIP3   OH225516   4.891   3.029   3.413  0.3625 -0.3832 -0.3191
 1342TIP3    H125517   4.982   2.999   3.416  0.2324 -0.6797  1.4145
 1342TIP3    H225518   4.840   2.956   3.449 -0.5966 -0.2627 -1.3624
 1343TIP3   OH225519   6.138   0.316   3.370 -0.1824 -0.2404 -0.2885
 1343TIP3    H125520   6.072   0.306   3.439 -1.3556  0.2309 -1.3004
 1343TIP3    H225521   6.219   0.336   3.417 -1.0396  0.4918  0.9350
 1344TIP3   OH225522   1.145   4.214   2.028 -0.4031 -0.6649 -0.3143
 1344TIP3    H125523   1.169   4.305   2.045 -0.5073 -0.3804 -1.6510
 1344TIP3    H225524   1.220   4.177   1.983 -0.3881 -1.2418  0.1614
 1345TIP3   OH225525   1.641   3.683   0.523  0.1650  0.4926 -0.4686
 1345TIP3    H125526   1.702   3.613   0.547 -0.3766  0.6347  1.4520
 1345TIP3    H225527   1.611   3.659   0.435  1.7856 -0.3921 -0.8305
 1346TIP3   OH225528   0.279   6.741   4.671 -0.2326  0.3739  0.1492
 1346TIP3    H125529   0.278   6.835   4.685  1.8315  0.5796 -0.7496
 1346TIP3    H225530   0.280   6.730   4.576 -2.0509 -0.6339  0.2031
 1347TIP3   OH225531   3.102   1.985   3.590  0.3411 -0.8912  0.4178
 1347TIP3    H125532   3.026   1.935   3.619  0.2325 -1.2993 -0.5287
 1347TIP3    H225533   3.130   2.034   3.668 -1.4803  0.0461  0.5494
 1348TIP3   OH225534   1.404   0.905  13.988  0.1262  0.5908 -0.1733
 1348TIP3    H125535   1.371   0.858  14.065 -1.2338  1.3967 -0.2457
 1348TIP3    H225536   1.443   0.836  13.933 -0.7972 -0.2958  0.2542
 1349TIP3   OH225537   5.332   0.318   1.591 -0.0324  0.2260  0.5641
 1349TIP3    H125538   5.297   0.241   1.547  2.0484  0.6036 -1.9883
 1349TIP3    H225539   5.295   0.392   1.543  1.9359  0.6675 -0.3551
 1350TIP3   OH225540   6.311   2.387  12.874 -0.6092  0.2547  0.0818
 1350TIP3    H125541   6.391   2.341  12.849 -0.8833  0.0351 -0.4213
 1350TIP3    H225542   6.243   2.349  12.818 -1.3118 -0.4262  1.3525
 1351TIP3   OH225543   0.108   0.163  11.286  0.2210 -0.1355  0.1820
 1351TIP3    H125544   0.033   0.146  11.342  0.4332 -0.5659  0.3365
 1351TIP3    H225545   0.071   0.208  11.210 -0.1627 -0.1592  0.3513
 1352TIP3   OH225546   2.311   2.939   1.220 -0.0970 -0.4093  0.4432
 1352TIP3    H125547   2.332   2.988   1.300 -0.3455  3.2796 -1.5389
 1352TIP3    H225548   2.393   2.939   1.170 -0.3959 -1.1195 -0.0606
 1353TIP3   OH225549   1.291   1.586  13.075  0.3117 -0.5976 -0.2283
 1353TIP3    H125550   1.201   1.619  13.077  0.0534 -1.1334 -1.8454
 1353TIP3    H225551   1.345   1.664  13.060 -0.1240 -0.5925 -1.9434
 1354TIP3   OH225552   3.031   2.402   5.153  0.1498  0.6281 -0.3745
 1354TIP3    H125553   3.027   2.333   5.087  0.0946  0.7205 -0.4678
 1354TIP3    H225554   3.118   2.392   5.193  0.6973  1.3665 -1.3238
 1355TIP3   OH225555   2.250   5.249   2.669  0.1664  0.3254  0.2787
 1355TIP3    H125556   2.258   5.342   2.646 -0.5924  0.2756 -0.1988
 1355TIP3    H225557   2.156   5.231   2.666  0.2795 -0.3881  0.6738
 1356TIP3   OH225558   3.255   1.879   5.955  0.2125 -0.3620 -0.1851
 1356TIP3    H125559   3.314   1.931   6.010 -0.7900  0.0530  0.5189
 1356TIP3    H225560   3.197   1.943   5.914 -1.1519 -0.9158  0.8239
 1357TIP3   OH225561   1.388   3.004  12.832  0.6036  0.1006  0.3087
 1357TIP3    H125562   1.337   2.972  12.758  1.8716 -0.4931 -0.3476
 1357TIP3    H225563   1.327   3.059  12.882 -0.0622  1.2217 -1.6437
 1358TIP3   OH225564   4.045   1.745  14.806 -0.5217 -0.2542  0.6120
 1358TIP3    H125565   4.066   1.721  14.716 -0.3501 -0.1575  0.6251
 1358TIP3    H225566   4.129   1.741  14.852 -0.1816  1.9054  0.2737
 1359TIP3   OH225567   5.800   3.479   5.165  0.7803  0.4689  0.1070
 1359TIP3    H125568   5.860   3.463   5.092  0.4022 -2.4215  0.3120
 1359TIP3    H225569   5.830   3.419   5.234  0.4864  2.3714  2.0065
 1360TIP3   OH225570   5.583   0.582   2.628 -0.1821 -0.6182  0.4518
 1360TIP3    H125571   5.509   0.643   2.625 -0.9555 -1.5755 -1.0321
 1360TIP3    H225572   5.653   0.628   2.581  0.1665  0.2498  1.7701
 1361TIP3   OH225573   0.437   4.702   1.026  0.2304 -0.3788 -0.1070
 1361TIP3    H125574   0.397   4.709   1.113  0.7244  1.5809  0.0319
 1361TIP3    H225575   0.476   4.615   1.024 -1.0971 -1.0393  1.0390
 1362TIP3   OH225576   5.790   6.650  12.979  0.0620  0.0547  0.4998
 1362TIP3    H125577   5.715   6.691  13.022 -0.7946 -2.3662  1.4760
 1362TIP3    H225578   5.861   6.713  12.989 -1.2708  1.4789  1.4594
 1363TIP3   OH225579   0.173   5.000   1.982 -0.1671  0.6967  0.3911
 1363TIP3    H125580   0.101   5.055   1.952 -0.5362  0.0786  0.1201
 1363TIP3    H225581   0.178   4.929   1.918  0.5158  0.5883  0.5514
 1364TIP3   OH225582   4.042   2.023  16.807 -0.0230  0.6369 -0.4257
 1364TIP3    H125583   4.066   1.992  16.719  1.3562  0.4966 -0.0305
 1364TIP3    H225584   3.946   2.019  16.809 -0.0142 -1.8440 -1.0476
 1365TIP3   OH225585   5.512   3.209  11.974 -0.2617 -0.3339 -0.0443
 1365TIP3    H125586   5.472   3.153  11.907  0.0196 -1.0635  0.3817
 1365TIP3    H225587   5.498   3.162  12.057  1.1812 -0.4744  0.1626
 1366TIP3   OH225588   0.113   0.761  14.536 -0.2136 -0.1182 -0.1302
 1366TIP3    H125589   0.074   0.848  14.522 -0.3085 -0.2204 -0.5459
 1366TIP3    H225590   0.037   0.702  14.540 -0.1600 -0.1488  0.3978
 1367TIP3   OH225591   1.734   3.835  14.804  0.4170 -0.6144 -0.4400
 1367TIP3    H125592   1.803   3.863  14.743  1.3889 -0.2446  0.7818
 1367TIP3    H225593   1.663   3.898  14.791  0.0317 -1.3457 -2.1350
 1368TIP3   OH225594   0.007   2.873   3.802 -0.8126  0.5716  0.0298
 1368TIP3    H125595   0.102   2.884   3.795 -0.2488 -1.0558  3.1541
 1368TIP3    H225596  -0.026   2.960   3.823  0.0475  1.0729 -0.6510
 1369TIP3   OH225597   5.369   1.868  16.840  0.0786  0.5848 -0.2839
 1369TIP3    H125598   5.419   1.876  16.921 -0.0382  0.2151 -0.1726
 1369TIP3    H225599   5.384   1.778  16.812  0.1623  0.7275 -0.7020
 1370TIP3   OH225600   3.485   6.574  12.298 -0.4726 -0.3824  0.3412
 1370TIP3    H125601   3.516   6.597  12.386 -1.2419 -0.0378  0.5286
 1370TIP3    H225602   3.445   6.655  12.265  2.3744  0.4368 -1.5137
 1371TIP3   OH225603   3.260   0.261  11.370 -0.0407  0.5241 -0.1141
 1371TIP3    H125604   3.203   0.201  11.419  1.0967 -0.2320  0.3333
 1371TIP3    H225605   3.309   0.203  11.310  2.2034  0.7487  1.3992
 1372TIP3   OH225606   0.131   4.432  11.034 -0.3370  0.1661 -0.2206
 1372TIP3    H125607   0.112   4.353  10.983  0.9838 -1.3008  1.4353
 1372TIP3    H225608   0.045   4.466  11.057 -0.9368 -0.5159 -1.3628
 1373TIP3   OH225609   1.909   2.666  16.103  0.5981  0.3113  0.1800
 1373TIP3    H125610   1.913   2.633  16.193  0.7526  0.5363  0.2570
 1373TIP3    H225611   1.855   2.602  16.057 -1.0544  1.1640  0.8574
 1374TIP3   OH225612   4.026   0.470   5.633  0.0172  0.3267 -0.2616
 1374TIP3    H125613   3.959   0.500   5.571 -0.0923 -1.2420 -0.9419
 1374TIP3    H225614   3.976   0.428   5.703  0.2275 -2.3220 -1.5510
 1375TIP3   OH225615   2.029   2.717   2.540 -0.0400 -0.6933  0.2182
 1375TIP3    H125616   2.090   2.643   2.549 -0.2320 -0.8398  0.3189
 1375TIP3    H225617   1.943   2.679   2.556 -0.5133 -1.1172 -2.8089
 1376TIP3   OH225618   0.328   0.240   0.123  0.0146 -0.6568 -0.7354
 1376TIP3    H125619   0.300   0.156   0.158  0.8776 -0.6710 -0.0477
 1376TIP3    H225620   0.361   0.220   0.035  0.6663 -1.1270 -0.3958
 1377TIP3   OH225621   2.028   3.698  16.619 -0.1437 -0.3423 -0.4195
 1377TIP3    H125622   1.943   3.728  16.588 -0.6736  1.4137  2.3477
 1377TIP3    H225623   2.078   3.681  16.539 -2.0332  1.6857 -2.1735
 1378TIP3   OH225624   1.510   3.057   5.738  0.3305  0.0109 -0.1243
 1378TIP3    H125625   1.597   3.091   5.758  1.3348 -2.8487  0.8197
 1378TIP3    H225626   1.497   3.076   5.645  2.2086 -0.0329 -0.4204
 1379TIP3   OH225627   4.659   3.148   0.985 -0.2200  0.8652  0.3045
 1379TIP3    H125628   4.590   3.141   0.918 -0.4547 -0.5819  0.6437
 1379TIP3    H225629   4.644   3.071   1.041  0.7933  1.3276  1.2293
 1380TIP3   OH225630   1.783   3.368   4.550  0.4440 -0.2291  0.2691
 1380TIP3    H125631   1.695   3.330   4.559  0.3519 -0.3945 -1.0470
 1380TIP3    H225632   1.836   3.297   4.514  0.4314  0.6428 -1.5903
 1381TIP3   OH225633   6.627   5.369   5.360  0.5169 -0.0821  0.3393
 1381TIP3    H125634   6.714   5.409   5.356 -0.4656  2.1248 -1.5906
 1381TIP3    H225635   6.575   5.432   5.410 -0.6901  0.3443 -1.3490
 1382TIP3   OH225636   1.993   6.777  11.618 -0.3803  0.1365  0.4885
 1382TIP3    H125637   2.006   6.713  11.689 -1.9409 -1.6577 -0.7356
 1382TIP3    H225638   2.076   6.778  11.571 -0.3110 -1.0356  0.5475
 1383TIP3   OH225639   6.104   1.212   2.489 -0.2435  0.1686  0.0388
 1383TIP3    H125640   6.173   1.147   2.478 -1.0435 -0.7256  0.1316
 1383TIP3    H225641   6.142   1.280   2.544  0.6473 -0.1580 -0.1670
 1384TIP3   OH225642   1.817   5.953   3.857 -0.0418 -0.1249 -0.4961
 1384TIP3    H125643   1.852   6.037   3.888 -0.4882 -0.1435  0.0870
 1384TIP3    H225644   1.861   5.937   3.774  0.0566  0.6861 -0.6053
 1385TIP3   OH225645   0.542   3.843   4.564  0.1593  0.4401 -0.0847
 1385TIP3    H125646   0.562   3.750   4.550 -1.4834 -0.1153  1.0478
 1385TIP3    H225647   0.502   3.846   4.651 -3.5717  1.5638 -1.6598
 1386TIP3   OH225648   2.087   4.472  12.659 -0.2270  0.0828  0.1873
 1386TIP3    H125649   2.126   4.547  12.705  0.0373  0.2322 -0.2796
 1386TIP3    H225650   2.106   4.397  12.716  2.5538 -0.1886 -0.9761
 1387TIP3   OH225651   2.418   4.374  12.214 -0.0107 -0.7214 -0.0716
 1387TIP3    H125652   2.467   4.299  12.248 -1.3475 -1.3456  0.5825
 1387TIP3    H225653   2.327   4.357  12.240 -0.6413  0.2264 -1.4974
 1388TIP3   OH225654   5.471   2.095   3.946 -0.3529  0.1216 -0.0867
 1388TIP3    H125655   5.494   2.188   3.946  1.1145 -0.2151 -0.1933
 1388TIP3    H225656   5.492   2.066   4.035  0.2025 -0.3362 -0.3647
 1389TIP3   OH225657   2.958   0.533  16.786 -0.2680 -0.2813 -0.0532
 1389TIP3    H125658   2.917   0.572  16.863  0.2899  0.7164 -0.2501
 1389TIP3    H225659   2.893   0.471  16.753 -0.1434 -1.4573  1.7607
 1390TIP3   OH225660   0.876   2.096  13.596  0.0305  0.5476  0.3294
 1390TIP3    H125661   0.882   2.190  13.613  1.8403  0.9592 -1.9690
 1390TIP3    H225662   0.949   2.058  13.645  0.8151  0.7259 -0.6671
 1391TIP3   OH225663   4.191   5.861  16.184  0.0942 -0.4898  0.4055
 1391TIP3    H125664   4.151   5.798  16.124 -0.7963  0.9243 -0.5647
 1391TIP3    H225665   4.128   5.933  16.189  1.1551  0.4289  1.2840
 1392TIP3   OH225666   1.549   0.289   4.010 -0.3840  0.3032 -0.1985
 1392TIP3    H125667   1.599   0.208   4.008  0.5111  0.8435 -0.8153
 1392TIP3    H225668   1.465   0.266   4.049  0.5813 -0.5061  1.4872
 1393TIP3   OH225669   6.788   5.023  10.723  0.1818 -0.5181  0.1774
 1393TIP3    H125670   6.800   5.087  10.653  0.4268  1.1181  1.6421
 1393TIP3    H225671   6.701   5.040  10.757  0.3275 -0.8416  0.7240
 1394TIP3   OH225672   1.192   0.742  17.127  0.0784  0.1532  0.9339
 1394TIP3    H125673   1.235   0.662  17.097 -0.6878  0.0219  0.1665
 1394TIP3    H225674   1.192   0.735  17.222  1.5290  0.0437  0.9516
 1395TIP3   OH225675   3.826   4.897   5.271 -0.4968 -0.0168  0.4403
 1395TIP3    H125676   3.884   4.843   5.325 -0.8270  0.1016  0.9219
 1395TIP3    H225677   3.825   4.854   5.186 -2.3024 -1.9214  1.3307
 1396TIP3   OH225678   3.209   5.399   4.551 -0.5472 -0.0613 -0.8823
 1396TIP3    H125679   3.298   5.404   4.517 -0.1000 -0.1991  0.2362
 1396TIP3    H225680   3.179   5.311   4.529  0.8063 -1.2416  1.5598
 1397TIP3   OH225681   2.492   1.731  13.444 -0.0192  0.4906 -0.2185
 1397TIP3    H125682   2.492   1.636  13.431 -0.6048  0.4378  0.1472
 1397TIP3    H225683   2.582   1.752  13.468  0.1641  0.0611 -0.5104
 1398TIP3   OH225684   6.270   4.128   3.369 -0.0555  0.5538 -0.2195
 1398TIP3    H125685   6.204   4.130   3.438  0.4341  0.2026  0.2656
 1398TIP3    H225686   6.276   4.218   3.338 -1.5104  0.4220 -1.0008
 1399TIP3   OH225687   1.624   4.236   3.259 -0.1509 -0.5726 -0.4862
 1399TIP3    H125688   1.667   4.276   3.335 -0.8024  0.0447 -0.4318
 1399TIP3    H225689   1.636   4.300   3.189 -2.2085  0.3253 -0.1077
 1400TIP3   OH225690   3.734   6.468   2.142  0.1224  0.2405  0.6254
 1400TIP3    H125691   3.684   6.405   2.090 -0.6605 -0.7400  2.4599
 1400TIP3    H225692   3.825   6.455   2.115 -0.3196  0.2184 -0.9148
 1401TIP3   OH225693   4.435   3.163  14.851  0.6267 -0.1813  0.1003
 1401TIP3    H125694   4.443   3.242  14.798  2.5535  0.3308  1.0564
 1401TIP3    H225695   4.441   3.194  14.941  0.1585 -1.3128  0.5414
 1402TIP3   OH225696   2.371   1.634  15.595  0.1734 -0.5411  0.3394
 1402TIP3    H125697   2.370   1.638  15.499  1.1154  1.6539  0.3517
 1402TIP3    H225698   2.464   1.625  15.618  0.0154 -0.3965  1.0520
 1403TIP3   OH225699   6.633   4.765   1.492 -0.0400 -0.2028 -0.4617
 1403TIP3    H125700   6.628   4.688   1.549 -0.3929 -1.3656 -1.9786
 1403TIP3    H225701   6.544   4.778   1.460 -0.3916  2.0584  1.2295
 1404TIP3   OH225702   2.294   1.108  12.266 -0.1469  0.0583  0.2060
 1404TIP3    H125703   2.254   1.040  12.320  1.0375 -0.5271  0.3877
 1404TIP3    H225704   2.383   1.076  12.249 -0.3556  0.4128 -1.7712
 1405TIP3   OH225705   1.849   3.843   5.874 -0.6655 -0.1032  0.7218
 1405TIP3    H125706   1.849   3.793   5.792 -2.7279 -0.0019  0.6159
 1405TIP3    H225707   1.931   3.892   5.872  0.6460 -2.2012  0.0475
 1406TIP3   OH225708   1.911   6.469   2.627 -0.7781 -0.1392 -0.7501
 1406TIP3    H125709   1.852   6.540   2.652  0.4365  0.7458 -0.2537
 1406TIP3    H225710   1.947   6.438   2.711 -1.2907 -1.3604 -0.9591
 1407TIP3   OH225711   1.388   0.101  16.351 -0.2529 -0.3009 -0.0699
 1407TIP3    H125712   1.370   0.187  16.314  1.4119 -0.1555 -0.6295
 1407TIP3    H225713   1.382   0.041  16.276  0.5024 -0.3804 -0.0780
 1408TIP3   OH225714   5.494   5.221  14.717 -0.3700  0.2066 -0.8261
 1408TIP3    H125715   5.583   5.248  14.698 -0.7338  0.9009 -1.6077
 1408TIP3    H225716   5.454   5.298  14.758  0.1755 -0.9849  2.2769
 1409TIP3   OH225717   1.500   2.204   1.339 -0.5758 -0.5045 -0.1449
 1409TIP3    H125718   1.436   2.270   1.365  0.5103  0.1635  0.9352
 1409TIP3    H225719   1.507   2.145   1.414  0.3309 -0.3645 -0.1117
 1410TIP3   OH225720   0.021   3.232   5.258 -0.1194 -0.1138  0.2400
 1410TIP3    H125721  -0.006   3.247   5.168  0.4693  1.3155  0.2751
 1410TIP3    H225722  -0.031   3.157   5.287 -0.0415 -0.8357 -1.3927
 1411TIP3   OH225723   3.366   0.349  13.454 -0.6680 -0.4402 -0.0513
 1411TIP3    H125724   3.399   0.438  13.443  2.7151 -1.6611 -1.1096
 1411TIP3    H225725   3.326   0.328  13.369  2.1657 -1.1549 -1.3335
 1412TIP3   OH225726   1.996   3.528   1.605  0.1468 -0.0878 -0.0800
 1412TIP3    H125727   2.087   3.531   1.576  0.6515 -0.2355  1.4212
 1412TIP3    H225728   1.978   3.435   1.619  0.0734  0.0263  0.5805
 1413TIP3   OH225729   0.913   3.067   3.011 -0.7248  0.1187 -0.5888
 1413TIP3    H125730   0.928   3.161   3.002  0.1089  0.4791  2.9671
 1413TIP3    H225731   0.999   3.031   3.036 -1.3085 -1.3920 -0.6100
 1414TIP3   OH225732   6.441   5.096  16.369 -0.7226  0.3561  0.1485
 1414TIP3    H125733   6.534   5.084  16.389 -0.7812  0.5565  0.5414
 1414TIP3    H225734   6.396   5.072  16.450 -1.1404 -1.6826 -0.6014
 1415TIP3   OH225735   5.911   1.001   4.798 -0.3701 -0.4954  0.8802
 1415TIP3    H125736   5.996   0.960   4.785 -1.1412 -2.2839  1.1438
 1415TIP3    H225737   5.927   1.094   4.788  0.7794 -0.9716 -3.7492
 1416TIP3   OH225738   0.278   0.285  10.764 -0.1794  0.5938 -0.6447
 1416TIP3    H125739   0.264   0.373  10.728 -0.4921  1.4942  1.5092
 1416TIP3    H225740   0.372   0.271  10.758  0.1854  2.0303  0.9297
 1417TIP3   OH225741   1.836   3.069   3.200  0.0033 -0.0624  0.4527
 1417TIP3    H125742   1.850   2.994   3.259 -1.4277 -1.6450 -1.0991
 1417TIP3    H225743   1.742   3.068   3.183  0.1515  1.3732 -0.5713
 1418TIP3   OH225744   0.274   6.657   0.886 -0.6346  0.2626  0.4335
 1418TIP3    H125745   0.309   6.667   0.974  1.1305 -0.7293 -0.1098
 1418TIP3    H225746   0.185   6.624   0.899 -0.0892 -0.7405  1.8423
 1419TIP3   OH225747   1.479   2.447   5.379  0.0142  0.0678 -0.0753
 1419TIP3    H125748   1.496   2.522   5.323 -1.4943  0.5508  0.0682
 1419TIP3    H225749   1.402   2.472   5.431 -1.3617 -2.0134 -0.9459
 1420TIP3   OH225750   3.078   6.036   6.174 -0.4576  0.4361  0.4950
 1420TIP3    H125751   3.039   5.949   6.162 -0.6301  0.1819  2.5334
 1420TIP3    H225752   3.161   6.031   6.125  0.3801 -1.5243  1.9505
 1421TIP3   OH225753   4.262   2.865   1.998  0.0471  0.0078  0.1012
 1421TIP3    H125754   4.316   2.933   2.037 -2.2072  1.3031  1.1501
 1421TIP3    H225755   4.237   2.808   2.071 -0.7348 -0.0358 -0.1881
 1422TIP3   OH225756   5.128   4.962   4.021  0.2608  0.7723  0.2245
 1422TIP3    H125757   5.171   5.047   4.033 -0.2146  0.8527  1.4707
 1422TIP3    H225758   5.052   4.965   4.079 -0.9329  0.2745 -1.2398
 1423TIP3   OH225759   2.491   2.163  11.155 -0.3758 -0.3172 -0.0187
 1423TIP3    H125760   2.583   2.190  11.159 -0.4052 -0.2992  0.8283
 1423TIP3    H225761   2.460   2.174  11.245 -1.1989 -0.3530 -0.2957
 1424TIP3   OH225762   0.142   3.102   6.440  0.4207 -0.5727  0.2199
 1424TIP3    H125763   0.071   3.039   6.439 -0.3068  0.2188 -1.5779
 1424TIP3    H225764   0.222   3.049   6.439 -0.1427 -1.4526  0.5976
 1425TIP3   OH225765   5.211   1.243   0.004 -0.1245 -0.5705  1.0995
 1425TIP3    H125766   5.243   1.197  -0.073 -0.0416 -1.7704  1.8252
 1425TIP3    H225767   5.117   1.253  -0.010  0.2504  1.5666 -0.3278
 1426TIP3   OH225768   0.584   3.305  15.455  0.2151 -0.3123 -0.0015
 1426TIP3    H125769   0.528   3.232  15.482  0.2876  0.7358  3.6230
 1426TIP3    H225770   0.667   3.264  15.431 -0.3600 -1.5331  0.0171
 1427TIP3   OH225771   5.258   0.176  14.643 -0.5220 -0.7337  0.1752
 1427TIP3    H125772   5.216   0.094  14.669 -2.3259 -0.1878 -0.8186
 1427TIP3    H225773   5.205   0.208  14.569  0.4884  1.0172  0.1406
 1428TIP3   OH225774   2.819   6.522  13.716 -0.0479 -0.4100 -0.1390
 1428TIP3    H125775   2.902   6.559  13.747 -0.0982 -0.3552 -0.0699
 1428TIP3    H225776   2.826   6.525  13.620 -0.2206  0.1712 -0.1412
 1429TIP3   OH225777   2.761   4.386   6.608 -0.1796  0.2006 -0.3145
 1429TIP3    H125778   2.687   4.326   6.598  0.0065 -0.1568  0.3878
 1429TIP3    H225779   2.814   4.348   6.678 -0.0452  1.1680  0.1263
 1430TIP3   OH225780   1.222   3.043  15.340  0.1673 -0.2163  0.5690
 1430TIP3    H125781   1.153   3.108  15.346 -0.1237 -0.5362  0.7037
 1430TIP3    H225782   1.302   3.092  15.360  0.1761  0.4807 -1.0433
 1431TIP3   OH225783   1.023   5.741   3.069 -0.2893  0.4507  0.4044
 1431TIP3    H125784   1.030   5.785   2.984 -0.0583 -0.2884  0.0300
 1431TIP3    H225785   0.963   5.669   3.054  0.7210 -0.4494  0.5227
 1432TIP3   OH225786   1.849   4.582  13.671  0.4761  0.0733  0.4010
 1432TIP3    H125787   1.849   4.611  13.763 -3.9628 -0.9093  0.9614
 1432TIP3    H225788   1.826   4.661  13.622 -2.5332 -0.3385  0.9159
 1433TIP3   OH225789   0.637   0.572   3.317 -0.2688  0.3799 -0.5368
 1433TIP3    H125790   0.651   0.641   3.253 -0.0684 -0.4198 -1.3722
 1433TIP3    H225791   0.587   0.505   3.270  1.6502 -1.1527 -0.5171
 1434TIP3   OH225792   2.343   3.704  13.466  0.3704  0.0121  0.5266
 1434TIP3    H125793   2.404   3.673  13.532  0.4566  0.7173  0.7823
 1434TIP3    H225794   2.294   3.774  13.508  0.7030  0.7491 -0.2647
 1435TIP3   OH225795   4.319   5.450   3.014  0.0459 -0.1212  0.0640
 1435TIP3    H125796   4.397   5.468   2.961 -1.0126  1.1649 -1.1608
 1435TIP3    H225797   4.300   5.357   2.998  0.2552  0.0264 -1.1381
 1436TIP3   OH225798   6.479   2.895  14.272  0.1488  0.4623 -0.0647
 1436TIP3    H125799   6.562   2.848  14.260  0.0076 -0.1240  1.1280
 1436TIP3    H225800   6.419   2.853  14.210  0.0411 -0.9373  0.9283
 1437TIP3   OH225801   3.617   4.336   2.298 -0.3608  0.4106 -0.1378
 1437TIP3    H125802   3.529   4.328   2.262  0.1802 -0.1982 -1.4017
 1437TIP3    H225803   3.670   4.276   2.245  0.7381  0.4545  0.8641
 1438TIP3   OH225804   6.410   4.664  11.620  0.0641  0.3708 -0.3433
 1438TIP3    H125805   6.321   4.646  11.592  0.6365 -0.0159 -1.9838
 1438TIP3    H225806   6.456   4.581  11.613  0.9832  0.9267 -1.2131
 1439TIP3   OH225807   3.988   3.987  16.339  0.0007  0.1137  0.0408
 1439TIP3    H125808   4.036   3.946  16.267  1.0173 -0.2445  0.8863
 1439TIP3    H225809   3.917   3.927  16.359 -1.8306  1.3844 -2.2527
 1440TIP3   OH225810   1.528   2.229  11.427 -0.2299  1.0329 -0.2153
 1440TIP3    H125811   1.499   2.257  11.514 -0.5540  0.4192 -0.1252
 1440TIP3    H225812   1.494   2.140  11.417  0.1853  0.9332 -0.7926
 1441TIP3   OH225813   0.549   6.651   3.905  0.1931 -0.6956 -0.3418
 1441TIP3    H125814   0.527   6.558   3.910 -1.1439 -0.4696 -1.5495
 1441TIP3    H225815   0.632   6.658   3.952 -0.6924 -2.1411  1.6052
 1442TIP3   OH225816   5.992   2.495   0.653 -0.0856  0.4328 -0.6242
 1442TIP3    H125817   6.069   2.516   0.600  0.4176 -1.0898 -0.5512
 1442TIP3    H225818   5.943   2.431   0.601 -0.6605  0.4757 -0.1452
 1443TIP3   OH225819   0.638   4.710   5.406 -0.2726  0.2922  0.4307
 1443TIP3    H125820   0.657   4.616   5.408 -1.1629  0.0692 -0.3929
 1443TIP3    H225821   0.693   4.748   5.474  1.5459 -0.5572 -0.5191
 1444TIP3   OH225822   1.096   3.333   2.858 -0.2029 -1.2269 -0.0959
 1444TIP3    H125823   1.018   3.278   2.847 -0.5972 -0.6740 -0.1498
 1444TIP3    H225824   1.097   3.388   2.779  0.6511 -1.7263 -0.4365
 1445TIP3   OH225825   1.104   5.052  16.044 -0.1315  0.2575 -0.3745
 1445TIP3    H125826   1.144   4.970  16.014  1.1075  0.5678  0.3212
 1445TIP3    H225827   1.027   5.024  16.093 -0.3655 -0.4224 -1.1023
 1446TIP3   OH225828   6.415   6.099  14.412 -0.1131 -0.2560  0.5590
 1446TIP3    H125829   6.386   6.014  14.445 -0.6731 -0.2549  0.1033
 1446TIP3    H225830   6.334   6.141  14.381  0.0411  0.7627  1.4874
 1447TIP3   OH225831   1.348   2.855   5.725  0.0111 -0.4261  0.2280
 1447TIP3    H125832   1.262   2.867   5.767 -0.3593 -1.7290 -0.1150
 1447TIP3    H225833   1.389   2.942   5.730 -0.7704 -0.0928  1.6133
 1448TIP3   OH225834   5.893   4.060   4.162 -0.6287  0.4693  0.1182
 1448TIP3    H125835   5.987   4.044   4.159 -0.7072 -0.1440  0.8860
 1448TIP3    H225836   5.860   4.021   4.081 -0.3714 -0.2578  0.3628
 1449TIP3   OH225837   6.035   6.494   5.931 -0.0255  0.1670  0.2000
 1449TIP3    H125838   6.046   6.471   6.023 -1.6471  2.0999  0.9618
 1449TIP3    H225839   5.941   6.509   5.921  0.2359  0.9145 -1.5352
 1450TIP3   OH225840   0.007   0.310   0.049  1.1537  0.8780  0.5883
 1450TIP3    H125841   0.002   0.216   0.034 -1.2203  1.1069 -0.4493
 1450TIP3    H225842   0.044   0.345  -0.032  1.6168  0.8894  0.8015
 1451TIP3   OH225843   1.369   2.459   4.482  0.3617  0.2038  0.2204
 1451TIP3    H125844   1.442   2.490   4.428  1.0153  0.3267  1.1579
 1451TIP3    H225845   1.400   2.375   4.517 -0.0688  0.1157  0.3908
 1452TIP3   OH225846   4.841   1.925  10.278  0.2590 -0.4307  0.1335
 1452TIP3    H125847   4.902   1.992  10.310  0.1386  0.0434 -0.6034
 1452TIP3    H225848   4.760   1.973  10.259  0.0755 -0.8315 -0.1186
 1453TIP3   OH225849   5.136   0.034  10.908 -0.3193 -0.1651  0.3222
 1453TIP3    H125850   5.186  -0.032  10.861 -0.0959  0.3146 -0.1195
 1453TIP3    H225851   5.189   0.113  10.903 -0.8813  0.2160  0.2950
 1454TIP3   OH225852   1.486   4.697   2.440 -0.1020  0.8157 -0.3154
 1454TIP3    H125853   1.563   4.684   2.385  0.5205 -0.3978  0.8017
 1454TIP3    H225854   1.412   4.683   2.381  0.5244  1.0490 -1.1765
 1455TIP3   OH225855   0.088   4.472  12.724 -0.0522  0.2910 -0.2178
 1455TIP3    H125856   0.120   4.409  12.659 -2.5196  0.5553 -1.8715
 1455TIP3    H225857   0.008   4.432  12.758  1.4334 -0.0789  3.1986
 1456TIP3   OH225858   0.379   0.384   1.071  0.0758  0.7898 -0.5557
 1456TIP3    H125859   0.322   0.413   0.999 -2.0697  0.9912  1.1174
 1456TIP3    H225860   0.397   0.464   1.120  1.1364  0.5799 -0.5857
 1457TIP3   OH225861   3.889   6.642  16.454  0.0017 -0.4977 -0.3669
 1457TIP3    H125862   3.942   6.662  16.376  0.1599 -0.4435 -0.2463
 1457TIP3    H225863   3.799   6.642  16.422 -0.1460  1.9302 -0.0758
 1458TIP3   OH225864   0.134   1.716   0.643  0.3162  0.1492 -0.2035
 1458TIP3    H125865   0.189   1.703   0.721 -1.1725 -1.4051  0.6479
 1458TIP3    H225866   0.183   1.780   0.591  3.0503 -1.2891  0.3822
 1459TIP3   OH225867   1.444   6.857   6.477  0.1910 -0.0414  0.5734
 1459TIP3    H125868   1.410   6.781   6.430 -0.4897 -0.2699  1.4072
 1459TIP3    H225869   1.366   6.909   6.498  0.5796  0.5190  0.6525
 1460TIP3   OH225870   1.655   5.982  13.039  0.0336 -0.5609  0.1429
 1460TIP3    H125871   1.561   5.996  13.047  0.2155  0.8071  0.1674
 1460TIP3    H225872   1.664   5.892  13.007 -1.3539 -0.0276 -1.9106
 1461TIP3   OH225873   4.737   3.229   0.305 -0.0725 -0.2482 -0.2528
 1461TIP3    H125874   4.711   3.320   0.292 -1.5876 -0.7383 -0.8214
 1461TIP3    H225875   4.809   3.234   0.368  0.3649  1.3891 -0.8284
 1462TIP3   OH225876   5.332   3.741  16.665  0.0319  0.1808  0.3113
 1462TIP3    H125877   5.328   3.671  16.601 -0.3244  1.5890 -1.2773
 1462TIP3    H225878   5.243   3.776  16.669  0.2582  0.7230  0.8502
 1463TIP3   OH225879   1.641   3.619   4.862  0.5516  0.1678 -0.0665
 1463TIP3    H125880   1.699   3.686   4.827  1.8886 -1.1316 -0.4339
 1463TIP3    H225881   1.618   3.649   4.950  2.2128  0.4675  0.2924
 1464TIP3   OH225882   1.307   4.745   0.342 -0.1575  0.3060  0.0450
 1464TIP3    H125883   1.301   4.728   0.248  1.7974 -0.9912  0.1015
 1464TIP3    H225884   1.365   4.820   0.350 -2.4096  2.1456  0.1698
 1465TIP3   OH225885   0.248   6.756  16.273 -0.3163 -0.6584  0.3934
 1465TIP3    H125886   0.172   6.698  16.280  0.2429 -1.2990  1.4232
 1465TIP3    H225887   0.321   6.698  16.251 -0.0508 -0.1020 -0.2227
 1466TIP3   OH225888   4.784   1.239   1.150  0.2286  0.3297 -0.0290
 1466TIP3    H125889   4.824   1.193   1.076 -0.2129  0.3029 -0.2543
 1466TIP3    H225890   4.772   1.329   1.118 -0.4839  0.1816 -0.1931
 1467TIP3   OH225891   6.657   6.434   2.114 -0.8340 -0.2519  0.7945
 1467TIP3    H125892   6.663   6.523   2.149  1.1282  0.9146 -2.1381
 1467TIP3    H225893   6.564   6.423   2.092 -1.4105  0.3609  2.6889
 1468TIP3   OH225894   1.472   2.145  15.333 -0.0373  0.0116  0.5157
 1468TIP3    H125895   1.376   2.138  15.335 -0.3013  2.8859  1.4308
 1468TIP3    H225896   1.492   2.184  15.248  0.0652  1.8448  1.3523
 1469TIP3   OH225897   4.252   0.752   0.530  0.2869  0.0595 -0.3867
 1469TIP3    H125898   4.242   0.775   0.437  1.0187  0.2155 -0.4379
 1469TIP3    H225899   4.256   0.656   0.531  1.0519  0.0821 -0.6108
 1470TIP3   OH225900   2.513   0.807  15.760  0.4492 -0.5308  0.2469
 1470TIP3    H125901   2.542   0.737  15.702 -0.1088 -0.1088 -0.5535
 1470TIP3    H225902   2.553   0.786  15.845  0.5930 -1.6041 -0.0766
 1471TIP3   OH225903   4.533   4.764   4.641 -0.6954  0.3043  0.0927
 1471TIP3    H125904   4.472   4.741   4.711  1.7866  0.4255  2.4505
 1471TIP3    H225905   4.566   4.850   4.665 -0.0975  0.5558 -1.5138
 1472TIP3   OH225906   1.267   2.690   0.160 -0.1130 -0.8481  0.6561
 1472TIP3    H125907   1.229   2.744   0.230 -1.5430 -1.3664  0.3118
 1472TIP3    H225908   1.357   2.676   0.188 -0.1819  0.3367  1.5739
 1473TIP3   OH225909   0.930   4.518   6.282 -0.2484 -0.3019  0.3611
 1473TIP3    H125910   0.956   4.429   6.308  0.2875 -0.2909 -0.1458
 1473TIP3    H225911   0.834   4.514   6.278 -0.2724 -0.6592  1.0409
 1474TIP3   OH225912   2.012   1.797  11.449  0.1067  0.2498  0.1369
 1474TIP3    H125913   2.022   1.838  11.363 -1.3152  1.3110  0.4348
 1474TIP3    H225914   2.024   1.704  11.433 -1.9227  0.2039 -1.5833
 1475TIP3   OH225915   5.789   2.279  13.648 -0.0978  0.3019 -0.2373
 1475TIP3    H125916   5.857   2.214  13.633 -1.2846 -1.0673  0.0673
 1475TIP3    H225917   5.729   2.269  13.574 -1.0561 -0.0019  0.5548
 1476TIP3   OH225918   6.407   2.044   0.495 -0.0006  0.0006  0.6442
 1476TIP3    H125919   6.474   1.976   0.506  0.2264  0.4376  2.3231
 1476TIP3    H225920   6.338   2.020   0.557 -1.7847 -0.7995 -1.5126
 1477TIP3   OH225921   3.974   1.027   0.241 -0.5708 -0.2023  0.4098
 1477TIP3    H125922   3.932   0.951   0.202 -0.6030  0.3588 -0.7004
 1477TIP3    H225923   3.901   1.078   0.277 -0.5333 -0.7718  1.2990
 1478TIP3   OH225924   6.114   5.247  15.071 -0.4438  0.3825 -0.2754
 1478TIP3    H125925   6.054   5.312  15.108  0.2928  0.6856  0.4421
 1478TIP3    H225926   6.070   5.163  15.085 -0.6421  0.5853  0.3704
 1479TIP3   OH225927   4.311   6.243  16.262 -0.3368 -0.0259  0.2320
 1479TIP3    H125928   4.346   6.270  16.177 -0.8904 -2.0591 -0.7037
 1479TIP3    H225929   4.216   6.245  16.251 -0.4175 -2.4463  0.0097
 1480TIP3   OH225930   1.381   1.084   3.417 -0.4209  0.4126  0.9170
 1480TIP3    H125931   1.374   1.015   3.482 -0.8081 -1.0422 -0.5870
 1480TIP3    H225932   1.390   1.165   3.467 -1.9847 -0.5004  2.7841
 1481TIP3   OH225933   1.010   3.461  12.547 -0.2240 -0.2354  0.2952
 1481TIP3    H125934   1.056   3.475  12.464 -1.0706  0.2403 -0.1101
 1481TIP3    H225935   1.024   3.369  12.568 -1.6328 -0.9023 -1.4143
 1482TIP3   OH225936   0.210   0.705   3.044 -0.6631 -0.2815  0.5934
 1482TIP3    H125937   0.196   0.792   3.006  0.9327  0.0054  0.5832
 1482TIP3    H225938   0.259   0.722   3.124 -0.3498 -1.1812  0.6038
 1483TIP3   OH225939   3.459   6.489  17.039  0.3934  0.2366 -0.4429
 1483TIP3    H125940   3.466   6.436  17.118  0.0920  1.0103  0.1154
 1483TIP3    H225941   3.409   6.567  17.066 -0.8717 -0.0840 -1.6967
 1484TIP3   OH225942   4.144   0.109   3.905  0.0086 -0.0596 -0.0323
 1484TIP3    H125943   4.086   0.169   3.952  0.6502  0.6989 -0.1915
 1484TIP3    H225944   4.087   0.064   3.843 -0.5389  0.1560  0.3128
 1485TIP3   OH225945   4.747   4.699  11.407  0.1015 -0.4480 -0.2044
 1485TIP3    H125946   4.823   4.713  11.463 -0.6302  0.6232  0.5852
 1485TIP3    H225947   4.700   4.627  11.449  0.1528 -0.4154 -0.0880
 1486TIP3   OH225948   2.163   2.370   0.893 -0.0548  0.1188 -0.2419
 1486TIP3    H125949   2.194   2.344   0.806 -0.2903  2.1994 -1.0284
 1486TIP3    H225950   2.071   2.344   0.894 -0.0941  0.2277 -0.6978
 1487TIP3   OH225951   4.469   1.552  13.585  0.0672 -0.4862 -0.4793
 1487TIP3    H125952   4.502   1.544  13.495 -0.2988  0.8708 -0.7621
 1487TIP3    H225953   4.548   1.557  13.638  0.3161 -0.0298 -0.8739
 1488TIP3   OH225954   5.122   1.064  10.160 -0.1847 -0.2599  0.1716
 1488TIP3    H125955   5.053   1.014  10.205 -0.0441  0.1478  0.8543
 1488TIP3    H225956   5.074   1.130  10.110 -0.4580 -1.8513 -1.7879
 1489TIP3   OH225957   5.732   0.641   1.065  0.1526  0.2247  0.1089
 1489TIP3    H125958   5.799   0.669   1.127 -0.4396  0.6502  0.5643
 1489TIP3    H225959   5.684   0.572   1.111 -0.3329  0.5887  0.1585
 1490TIP3   OH225960   3.298   5.414   2.215  0.3853 -0.3880 -0.1887
 1490TIP3    H125961   3.272   5.506   2.210  1.2215 -0.1414 -0.1773
 1490TIP3    H225962   3.343   5.396   2.133  0.5429 -0.6868 -0.0408
 1491TIP3   OH225963   4.639   4.094  17.115 -0.1579 -0.4114  0.4701
 1491TIP3    H125964   4.637   4.059  17.204 -1.8503 -2.4025 -0.2790
 1491TIP3    H225965   4.712   4.156  17.116  1.5326 -2.2422  2.5570
 1492TIP3   OH225966   5.860   0.388  12.911 -0.2213 -0.3462  0.3322
 1492TIP3    H125967   5.808   0.335  12.851  0.8613  0.7649 -1.6726
 1492TIP3    H225968   5.815   0.472  12.914 -1.2871 -0.8843  2.6156
 1493TIP3   OH225969   3.414   1.713   3.075 -0.2189 -0.0912 -0.0261
 1493TIP3    H125970   3.450   1.655   3.142  0.9063 -0.1628 -0.6595
 1493TIP3    H225971   3.384   1.653   3.006  0.0026  0.0413 -0.2373
 1494TIP3   OH225972   1.103   2.257  15.037  0.2707 -0.3155 -0.2517
 1494TIP3    H125973   1.148   2.330  14.994 -1.4743  0.7063 -0.4565
 1494TIP3    H225974   1.041   2.299  15.097 -0.4251 -1.6386 -0.0090
 1495TIP3   OH225975   0.968   3.967  15.780  0.0101 -0.3075  0.1731
 1495TIP3    H125976   1.024   3.955  15.856  0.2603  0.3418  0.0991
 1495TIP3    H225977   0.884   3.995  15.816 -0.5388 -2.0330  0.3365
 1496TIP3   OH225978   3.612   2.867  15.997 -0.1326 -0.3029 -0.1413
 1496TIP3    H125979   3.705   2.846  16.008 -0.4590 -1.3659  0.7252
 1496TIP3    H225980   3.609   2.922  15.919  1.2653  0.0229  0.0085
 1497TIP3   OH225981   1.675   5.276  12.107 -0.0194 -0.3736  0.0149
 1497TIP3    H125982   1.665   5.189  12.146 -0.3833 -0.0879  0.5771
 1497TIP3    H225983   1.682   5.259  12.013 -0.6149 -0.9746  0.0669
 1498TIP3   OH225984   6.605   4.812  16.558  0.2973  0.1822 -0.1503
 1498TIP3    H125985   6.633   4.903  16.566 -1.0611  0.5720  0.6298
 1498TIP3    H225986   6.680   4.761  16.587  1.0865  1.0438 -0.6096
 1499TIP3   OH225987   1.533   1.168   4.459 -0.0284 -0.2049 -0.6380
 1499TIP3    H125988   1.442   1.169   4.488 -0.1831  0.7383 -1.0999
 1499TIP3    H225989   1.535   1.230   4.386  0.6642 -1.3392 -1.6336
 1500TIP3   OH225990   3.646   3.895  16.857  0.0143 -0.0483 -0.0750
 1500TIP3    H125991   3.736   3.863  16.861  0.3254  0.4046 -2.2422
 1500TIP3    H225992   3.639   3.937  16.771 -2.0016  0.7550  0.4170
 1501TIP3   OH225993   6.011   3.550   0.643 -0.8574 -0.0137  0.9808
 1501TIP3    H125994   6.097   3.527   0.608 -0.3762  0.0276  2.1078
 1501TIP3    H225995   6.026   3.629   0.696 -1.7865  0.6201  0.3387
 1502TIP3   OH225996   6.044   6.172   5.287 -0.1543 -0.0351 -0.4077
 1502TIP3    H125997   6.056   6.077   5.289 -0.2006 -0.0367 -0.1657
 1502TIP3    H225998   6.072   6.201   5.373  0.4804  0.2481 -0.7006
 1503TIP3   OH225999   4.074   5.996   3.771  0.4351 -0.0608  0.2652
 1503TIP3    H126000   4.161   6.027   3.795  0.6871 -0.5450 -0.0135
 1503TIP3    H226001   4.087   5.946   3.691 -0.1132 -0.0646  0.1723
 1504TIP3   OH226002   4.962   3.202   1.962  0.8729  0.2487 -0.5226
 1504TIP3    H126003   5.050   3.204   2.000  0.5475  0.6289  0.2336
 1504TIP3    H226004   4.957   3.116   1.919  0.6509 -0.9870  1.8216
 1505TIP3   OH226005   1.083   6.518   5.738  0.1134 -0.1524 -0.2250
 1505TIP3    H126006   1.000   6.482   5.769  0.1815 -0.3732 -0.2973
 1505TIP3    H226007   1.093   6.484   5.649  0.4884 -0.4757 -0.0623
 1506TIP3   OH226008   4.364   3.096  11.299  0.1316 -0.1586  0.1841
 1506TIP3    H126009   4.459   3.081  11.297  0.0111 -1.0866  0.7343
 1506TIP3    H226010   4.338   3.098  11.207  0.8356  1.2192 -0.0138
 1507TIP3   OH226011   1.519   3.797   1.378  0.3494 -0.3764  0.4113
 1507TIP3    H126012   1.602   3.844   1.371  0.8443 -1.2476  0.2871
 1507TIP3    H226013   1.460   3.843   1.318  0.2601  1.2064  1.6292
 1508TIP3   OH226014   2.829   2.677  11.058 -0.2673 -0.6039  0.0790
 1508TIP3    H126015   2.797   2.650  11.144 -0.3506 -0.8087 -0.0160
 1508TIP3    H226016   2.760   2.733  11.023  0.3977  0.6811  0.7526
 1509TIP3   OH226017   2.522   6.811  12.590  0.0098 -0.2032  0.0300
 1509TIP3    H126018   2.576   6.737  12.616  0.3571  0.1279  0.2685
 1509TIP3    H226019   2.514   6.864  12.670 -0.0840  0.1070 -0.1820
 1510TIP3   OH226020   6.243   4.780  14.300 -0.5132 -0.2299 -0.2707
 1510TIP3    H126021   6.314   4.840  14.280 -1.5940  1.3403  0.3926
 1510TIP3    H226022   6.230   4.729  14.220  0.9479 -0.1527 -0.5803
 1511TIP3   OH226023   3.933   6.715  11.293 -0.6494 -0.2104 -0.0940
 1511TIP3    H126024   3.939   6.649  11.362  2.0084  1.5184  1.5124
 1511TIP3    H226025   3.877   6.675  11.227 -0.9374 -3.1592  1.7335
 1512TIP3   OH226026   6.179   4.624  13.764 -0.6014 -0.2166 -0.6165
 1512TIP3    H126027   6.111   4.613  13.698 -0.5937 -0.7241 -0.5417
 1512TIP3    H226028   6.261   4.616  13.716 -0.5948 -0.8284 -0.5127
 1513TIP3   OH226029   1.524   5.525  10.774 -0.3208  0.0032  0.2240
 1513TIP3    H126030   1.541   5.557  10.685  0.2993 -0.7642  0.0594
 1513TIP3    H226031   1.609   5.531  10.818 -0.3621 -0.7053  0.4126
 1514TIP3   OH226032   5.924   6.633  16.074  0.5694  0.3728  0.3864
 1514TIP3    H126033   5.952   6.554  16.121  0.1711 -0.1963 -0.3118
 1514TIP3    H226034   5.904   6.602  15.986  0.8374  1.3410 -0.0253
 1515TIP3   OH226035   3.864   1.235  11.106 -0.0532  0.1393 -0.1377
 1515TIP3    H126036   3.947   1.251  11.061 -0.1976 -0.4729 -0.6301
 1515TIP3    H226037   3.837   1.322  11.136  1.6891  0.1331  1.7165
 1516TIP3   OH226038   4.456   6.464  15.046  0.5400 -0.0824  0.2695
 1516TIP3    H126039   4.440   6.422  14.961 -1.3528 -0.4701  0.7822
 1516TIP3    H226040   4.512   6.539  15.026 -0.9352  0.6046 -1.5246
 1517TIP3   OH226041   5.717   5.814   4.060  0.2319 -0.1210 -0.7490
 1517TIP3    H126042   5.689   5.805   4.151  0.7687  1.7036 -0.3632
 1517TIP3    H226043   5.812   5.804   4.063  0.2048 -0.5486 -1.1888
 1518TIP3   OH226044   1.205   6.134   3.900 -0.1288  0.3448  0.0122
 1518TIP3    H126045   1.140   6.188   3.944 -0.5288 -0.6829  0.7307
 1518TIP3    H226046   1.166   6.046   3.899  0.1455  0.1868 -1.8140
 1519TIP3   OH226047   2.456   3.994  13.428  0.6852  0.2096 -0.2410
 1519TIP3    H126048   2.532   3.936  13.425  1.3387  0.9786  0.8525
 1519TIP3    H226049   2.482   4.071  13.378  0.3292  0.1396 -0.5359
 1520TIP3   OH226050   5.917   1.141   4.291  0.1774 -0.8221  0.4955
 1520TIP3    H126051   5.911   1.068   4.354  1.0900 -2.2396 -0.9672
 1520TIP3    H226052   5.992   1.118   4.236  0.2642  1.0847 -0.2466
 1521TIP3   OH226053   1.743   2.175  15.782  0.6818  0.2915 -0.5061
 1521TIP3    H126054   1.708   2.092  15.748 -0.4205  0.1144  0.9489
 1521TIP3    H226055   1.744   2.233  15.707  0.4430 -0.7264 -1.3260
 1522TIP3   OH226056   6.416   5.145   0.173  0.2868  0.5333 -0.7601
 1522TIP3    H126057   6.452   5.057   0.158 -0.5910  0.2336 -1.1876
 1522TIP3    H226058   6.469   5.181   0.244  1.1622 -0.0438 -1.1034
 1523TIP3   OH226059   1.856   3.079   1.014  0.0187 -0.3574  0.0365
 1523TIP3    H126060   1.799   3.154   1.027  0.1190 -0.2497 -0.1493
 1523TIP3    H226061   1.797   3.005   1.001 -0.0779 -0.1194 -0.9100
 1524TIP3   OH226062   5.479   3.044   0.666  0.1269 -0.1146 -0.5626
 1524TIP3    H126063   5.489   2.951   0.686 -1.9664 -0.1595  0.5770
 1524TIP3    H226064   5.565   3.081   0.682  0.7454 -1.6803 -0.0036
 1525TIP3   OH226065   1.415   6.132  11.825  0.2971 -0.3196 -0.7417
 1525TIP3    H126066   1.330   6.091  11.841  0.2610  0.2967  0.9332
 1525TIP3    H226067   1.459   6.074  11.763 -1.0381 -1.0591 -1.0398
 1526TIP3   OH226068   2.939   1.282   3.613 -0.2620  0.5440 -0.0875
 1526TIP3    H126069   3.011   1.233   3.575  0.8355  1.8121  0.2650
 1526TIP3    H226070   2.915   1.346   3.546 -1.8032 -0.5321 -0.6225
 1527TIP3   OH226071   6.401   3.349  16.639 -0.0492 -0.0153  0.2833
 1527TIP3    H126072   6.306   3.341  16.631 -0.2887  1.2738  1.4861
 1527TIP3    H226073   6.415   3.391  16.723  1.7239 -1.9883  1.0617
 1528TIP3   OH226074   1.201   4.646   4.994  0.2912  0.4256 -0.2456
 1528TIP3    H126075   1.144   4.686   4.927 -1.7390 -1.7700  0.0558
 1528TIP3    H226076   1.148   4.647   5.074  0.5169 -1.8814 -0.0062
 1529TIP3   OH226077   5.207   3.432   4.256 -0.4157  0.0496  0.8118
 1529TIP3    H126078   5.164   3.517   4.247 -0.8670 -0.1274  1.2944
 1529TIP3    H226079   5.221   3.421   4.350 -0.7729 -0.6155  0.7954
 1530TIP3   OH226080   6.477   6.358  11.270 -0.6531 -0.3986  0.1500
 1530TIP3    H126081   6.511   6.390  11.353 -1.4838 -0.8888  0.6999
 1530TIP3    H226082   6.555   6.344  11.215 -0.0982 -0.0866  0.8477
 1531TIP3   OH226083   2.120   4.027   4.080 -0.2364 -0.4430 -0.3182
 1531TIP3    H126084   2.026   4.046   4.078 -0.5712 -1.9889 -0.2002
 1531TIP3    H226085   2.140   4.015   4.173  0.2105  0.4091 -0.2916
 1532TIP3   OH226086   4.643   0.718  12.856  0.2077 -0.1101  0.5346
 1532TIP3    H126087   4.647   0.685  12.946  1.0173  1.7166  1.2202
 1532TIP3    H226088   4.721   0.681  12.814  0.6407  0.2117  1.0367
 1533TIP3   OH226089   1.235   5.055  15.224 -0.2144 -0.2109 -0.0382
 1533TIP3    H126090   1.314   5.033  15.175  0.2890 -1.4783  1.2722
 1533TIP3    H226091   1.265   5.065  15.314 -1.6337 -1.2833  0.5821
 1534TIP3   OH226092   2.001   0.434   5.632  0.0313 -0.4436 -0.0874
 1534TIP3    H126093   2.078   0.490   5.624  1.1925 -2.0184 -0.3165
 1534TIP3    H226094   1.995   0.389   5.548 -0.8164 -0.7601  0.1308
 1535TIP3   OH226095   1.741   6.220   3.988  0.2063 -0.2168 -0.2835
 1535TIP3    H126096   1.797   6.289   4.022  0.0958 -1.3426  2.4409
 1535TIP3    H226097   1.668   6.266   3.946  1.0235  1.2620 -0.1373
 1536TIP3   OH226098   5.763   1.356   3.984 -0.0065 -0.0546 -0.1329
 1536TIP3    H126099   5.838   1.313   3.944  0.6697  0.4289  0.5906
 1536TIP3    H226100   5.773   1.448   3.962 -0.4953 -0.0092 -0.1871
 1537TIP3   OH226101   6.221   2.429  15.448 -0.1579 -0.1725 -0.2090
 1537TIP3    H126102   6.295   2.462  15.397 -0.1076 -2.1239 -1.5004
 1537TIP3    H226103   6.247   2.440  15.539  1.0350  0.5999 -0.6176
 1538TIP3   OH226104   3.035   6.638   0.108 -0.2312 -0.3414  0.4466
 1538TIP3    H126105   3.040   6.721   0.155  0.1772 -0.1292  0.0420
 1538TIP3    H226106   3.118   6.633   0.061 -0.6891 -0.4699 -0.3693
 1539TIP3   OH226107   3.418   3.110  12.521  0.1373  0.6125  0.0751
 1539TIP3    H126108   3.336   3.115  12.472 -0.1580  1.0223  0.6107
 1539TIP3    H226109   3.480   3.073  12.458 -0.5130  0.0520 -0.2520
 1540TIP3   OH226110   3.642   2.087   0.986 -0.2532  0.3698 -0.0660
 1540TIP3    H126111   3.658   1.994   0.969 -0.0794  0.2416  0.7317
 1540TIP3    H226112   3.729   2.123   1.006 -0.5219  0.3309  1.2820
 1541TIP3   OH226113   4.591   0.397   5.306  0.0870  0.7217  0.6782
 1541TIP3    H126114   4.496   0.386   5.316  0.5061 -1.3425  3.7576
 1541TIP3    H226115   4.625   0.308   5.303  1.9581  1.4308 -0.6798
 1542TIP3   OH226116   4.060   4.365  12.655  0.2556 -0.9266 -0.6278
 1542TIP3    H126117   4.110   4.445  12.670  0.8242 -1.0976 -1.5104
 1542TIP3    H226118   3.973   4.384  12.689  0.9500 -0.6902  1.1117
 1543TIP3   OH226119   4.517   0.609  10.312 -0.7808  0.1414 -0.2177
 1543TIP3    H126120   4.431   0.652  10.316 -0.1848  1.3054  0.9568
 1543TIP3    H226121   4.499   0.524  10.273 -2.6712 -0.1075  1.0213
 1544TIP3   OH226122   3.807   2.237   6.204 -0.2335 -0.1384 -0.1736
 1544TIP3    H126123   3.794   2.234   6.299  1.8997  1.1962  0.2295
 1544TIP3    H226124   3.751   2.168   6.170 -2.5625  0.6157  1.8549
 1545TIP3   OH226125   6.525   3.401  16.868  0.1260 -0.3606  0.1320
 1545TIP3    H126126   6.560   3.313  16.884 -0.1160 -0.5737 -0.5014
 1545TIP3    H226127   6.501   3.433  16.955 -2.5592 -2.0591  0.1401
 1546TIP3   OH226128   0.199   1.507   1.062 -0.2039 -0.6776 -0.2103
 1546TIP3    H126129   0.193   1.414   1.086  1.5321 -0.9788 -0.7876
 1546TIP3    H226130   0.223   1.551   1.144  0.7067 -1.0021 -0.2865
 1547TIP3   OH226131   2.842   4.112   4.281 -0.1614 -0.5941 -0.3640
 1547TIP3    H126132   2.881   4.157   4.356 -0.5366 -0.7390 -0.0777
 1547TIP3    H226133   2.839   4.178   4.212  0.9413 -0.6883 -0.5209
 1548TIP3   OH226134   4.540   0.751   1.347  0.0674 -0.1913  0.1555
 1548TIP3    H126135   4.623   0.738   1.391  0.0223 -0.5976  0.1310
 1548TIP3    H226136   4.553   0.712   1.260 -0.1908 -0.3842  0.2024
 1549TIP3   OH226137   6.067   6.670   2.052  0.2117  0.3509  0.7289
 1549TIP3    H126138   6.126   6.598   2.073  1.4830  1.2706  0.4021
 1549TIP3    H226139   6.024   6.690   2.136 -0.0289 -0.6514  0.8609
 1550TIP3   OH226140   3.046   5.978   2.285 -0.4850  0.2002 -0.1028
 1550TIP3    H126141   2.989   5.902   2.284  0.3702 -0.4651  0.4125
 1550TIP3    H226142   3.018   6.028   2.362 -0.6122  0.0778 -0.0695
 1551TIP3   OH226143   5.814   3.317   0.589 -0.8739  0.0753  0.0025
 1551TIP3    H126144   5.754   3.335   0.516 -1.2632  1.3102  0.6009
 1551TIP3    H226145   5.850   3.403   0.611  1.0297 -0.6166 -0.2429
 1552TIP3   OH226146   1.809   4.411   5.227  0.1439 -0.1592 -0.3231
 1552TIP3    H126147   1.885   4.440   5.277  0.3531 -0.5919 -0.3817
 1552TIP3    H226148   1.737   4.467   5.256  0.3957 -0.0176  0.0275
 1553TIP3   OH226149   6.393   4.901  13.755 -0.9412  0.4108 -0.0662
 1553TIP3    H126150   6.334   4.919  13.828  0.2041  0.1864  0.9520
 1553TIP3    H226151   6.396   4.806  13.750 -0.8008  0.4240 -0.2300
 1554TIP3   OH226152   2.837   1.430  13.236 -0.3535 -0.2787 -0.1573
 1554TIP3    H126153   2.887   1.361  13.194 -0.2770 -1.1740  1.3520
 1554TIP3    H226154   2.751   1.427  13.194 -0.3949 -1.3982 -0.0020
 1555TIP3   OH226155   0.546   2.405   0.672  0.4276 -0.1561  0.0139
 1555TIP3    H126156   0.555   2.364   0.587 -0.6648 -0.9720  0.2742
 1555TIP3    H226157   0.632   2.396   0.713  0.1335 -2.6254  0.2401
 1556TIP3   OH226158   5.775   0.419  12.432 -0.0127  0.1701 -0.0848
 1556TIP3    H126159   5.687   0.421  12.393  1.5359  1.2234 -4.0037
 1556TIP3    H226160   5.821   0.350  12.385  2.1824  1.9022 -0.6668
 1557TIP3   OH226161   0.655   1.103   2.316  0.1941 -0.3184 -0.1379
 1557TIP3    H126162   0.642   1.125   2.408  0.3295 -1.7301  0.2358
 1557TIP3    H226163   0.729   1.043   2.316 -0.7750 -1.5609 -0.9860
 1558TIP3   OH226164   3.004   6.756   4.547  0.1132 -0.3684 -0.4497
 1558TIP3    H126165   2.914   6.727   4.561  0.7611 -2.1501  0.3946
 1558TIP3    H226166   2.999   6.851   4.540 -1.6186 -0.2947  1.2920
 1559TIP3   OH226167   3.466   3.597  15.531  0.4957  0.0324 -0.7253
 1559TIP3    H126168   3.399   3.619  15.466  1.1002  0.5006 -1.1995
 1559TIP3    H226169   3.538   3.560  15.480  1.3443  1.2228 -0.4521
 1560TIP3   OH226170   6.766   6.633  12.385 -0.0049 -0.0725 -0.0267
 1560TIP3    H126171   6.725   6.639  12.471 -0.6286  1.1121 -0.3916
 1560TIP3    H226172   6.725   6.556  12.345  0.5823 -0.8783  0.8603
 1561TIP3   OH226173   4.619   5.197  15.300 -0.3574  0.8541 -0.9760
 1561TIP3    H126174   4.546   5.144  15.268  0.3252 -1.3181  0.8213
 1561TIP3    H226175   4.577   5.270  15.345 -1.4604 -0.4304  0.1522
 1562TIP3   OH226176   0.887   5.866  11.665  0.0439 -0.0469 -0.3091
 1562TIP3    H126177   0.915   5.776  11.678 -2.4302 -0.7901  0.3905
 1562TIP3    H226178   0.967   5.913  11.641  1.5675 -2.2075  0.2733
 1563TIP3   OH226179   1.676   6.289  14.329  0.2886 -0.5583  0.9988
 1563TIP3    H126180   1.651   6.381  14.334  1.0850 -0.0227 -2.3856
 1563TIP3    H226181   1.597   6.244  14.300  0.3893 -0.6039  0.7899
 1564TIP3   OH226182   3.776   2.562  15.311 -0.0037 -0.0792 -0.5002
 1564TIP3    H126183   3.829   2.640  15.292  0.9171 -0.6762 -0.4080
 1564TIP3    H226184   3.689   2.597  15.330  0.6396  1.0131  0.5392
 1565TIP3   OH226185   1.546   6.541  14.113 -0.3293 -0.2057  0.1360
 1565TIP3    H126186   1.553   6.615  14.054  0.0178  0.4482  0.9693
 1565TIP3    H226187   1.621   6.486  14.093  0.2567  0.4390  0.5269
 1566TIP3   OH226188   5.453   3.602  16.321  0.2912  0.3872  0.2339
 1566TIP3    H126189   5.466   3.561  16.235  1.6767 -0.0784  0.6338
 1566TIP3    H226190   5.458   3.696  16.304  0.6285  0.2975 -0.1884
 1567TIP3   OH226191   0.035   2.217  12.252  0.6078 -0.2185  0.0185
 1567TIP3    H126192   0.072   2.299  12.287 -0.7420  0.2838  0.3294
 1567TIP3    H226193   0.111   2.161  12.237  1.3674  0.1301  2.2630
 1568TIP3   OH226194   3.101   1.140   5.002 -0.0404  0.5873 -0.2979
 1568TIP3    H126195   3.143   1.198   4.938  0.3794 -1.0207 -1.5333
 1568TIP3    H226196   3.153   1.153   5.082  1.9596 -0.2558 -1.3840
 1569TIP3   OH226197   5.116   4.634  16.589  0.0574  0.4176 -0.3221
 1569TIP3    H126198   5.196   4.684  16.606  0.8325 -0.2519 -1.8225
 1569TIP3    H226199   5.135   4.546  16.621 -1.1940  0.9305  2.0332
 1570TIP3   OH226200   3.270   3.883  15.072  0.3254  0.2826 -0.6613
 1570TIP3    H126201   3.211   3.899  15.146 -1.4332 -0.9460 -1.7353
 1570TIP3    H226202   3.348   3.934  15.093 -0.3641  0.4857  1.7237
 1571TIP3   OH226203   5.087   2.910  12.498 -0.1629 -0.0529 -0.2021
 1571TIP3    H126204   5.056   2.890  12.411 -2.5441  1.8128  0.1056
 1571TIP3    H226205   5.078   2.829  12.547  0.5197 -0.9203 -1.4613
 1572TIP3   OH226206   1.163   6.839  12.201 -0.2295  0.1639 -0.0692
 1572TIP3    H126207   1.189   6.766  12.258  0.9734 -0.4988 -1.4036
 1572TIP3    H226208   1.101   6.889  12.254  0.2354 -0.8507  1.5289
 1573TIP3   OH226209   4.553   1.566  12.357  0.3360  0.4547 -0.2233
 1573TIP3    H126210   4.513   1.589  12.442  1.1034  2.1123 -0.2877
 1573TIP3    H226211   4.607   1.490  12.377 -1.2268 -0.5872  0.2852
 1574TIP3   OH226212   1.745   3.523   2.354 -0.7752  0.0321 -0.2507
 1574TIP3    H126213   1.657   3.545   2.323 -0.6414 -0.6125 -1.1053
 1574TIP3    H226214   1.757   3.578   2.432 -2.9927 -1.8141  1.5452
 1575TIP3   OH226215   6.319   5.236   2.601  0.2912  0.2208 -0.3204
 1575TIP3    H126216   6.295   5.328   2.607 -0.8658 -0.0128 -0.9477
 1575TIP3    H226217   6.345   5.224   2.509  0.5391 -0.0535 -0.2174
 1576TIP3   OH226218   2.465   4.610  11.370  0.1821 -0.0462 -0.0941
 1576TIP3    H126219   2.390   4.621  11.429 -0.4860  0.6440 -1.0499
 1576TIP3    H226220   2.466   4.517  11.349 -0.1296 -0.1373  0.2761
 1577TIP3   OH226221   6.380   6.259   2.541  0.3883  0.3726  0.4826
 1577TIP3    H126222   6.352   6.184   2.593 -0.0056  0.1492 -0.0388
 1577TIP3    H226223   6.384   6.226   2.451 -2.0595  1.5174 -0.1498
 1578TIP3   OH226224   6.296   5.218   4.513 -0.1563 -0.4489  0.2446
 1578TIP3    H126225   6.232   5.150   4.532  0.7346 -1.2161  0.5607
 1578TIP3    H226226   6.282   5.284   4.581 -0.3940 -0.7619  0.5005
 1579TIP3   OH226227   6.838   1.213  16.365 -0.2822 -0.4651 -0.0329
 1579TIP3    H126228   6.775   1.180  16.429  0.2031  0.5151  0.9861
 1579TIP3    H226229   6.784   1.247  16.294 -0.8882 -0.3773  0.4560
 1580TIP3   OH226230   3.102   1.249  13.911 -0.0427 -0.0521 -0.1913
 1580TIP3    H126231   3.191   1.232  13.880  0.1807 -2.8445  1.5830
 1580TIP3    H226232   3.047   1.235  13.834  0.9589  0.9139 -1.1212
 1581TIP3   OH226233   5.133   6.301  15.887  0.4483  0.5609 -0.2433
 1581TIP3    H126234   5.081   6.337  15.959  0.7157  0.2594  0.1070
 1581TIP3    H226235   5.137   6.371  15.822  0.5981  1.0060  0.2417
 1582TIP3   OH226236   6.585   6.102  11.042  0.2871 -0.6784 -0.0619
 1582TIP3    H126237   6.661   6.058  11.003 -0.0552 -1.2171 -0.1219
 1582TIP3    H226238   6.622   6.180  11.083  0.8322 -0.7706 -0.3673
 1583TIP3   OH226239   1.752   4.073  13.364  0.3371  0.0749 -0.0314
 1583TIP3    H126240   1.822   4.067  13.300  2.1295 -0.2349  1.8330
 1583TIP3    H226241   1.714   4.160  13.352  2.3014  0.9872  0.1002
 1584TIP3   OH226242   4.835   6.208  15.614  0.1869  0.3207  0.1757
 1584TIP3    H126243   4.839   6.202  15.709  2.2529 -0.4240  0.0740
 1584TIP3    H226244   4.779   6.284  15.597 -0.4594  0.2751  1.9605
 1585TIP3   OH226245   4.576   4.964   0.120 -0.2339 -0.2928  0.3104
 1585TIP3    H126246   4.590   4.874   0.150 -0.1678 -0.1689  0.6553
 1585TIP3    H226247   4.489   4.964   0.082 -1.0209 -0.0708  2.0071
 1586TIP3   OH226248   6.303   1.871  14.979  0.2176  0.1052 -0.5433
 1586TIP3    H126249   6.295   1.853  15.073 -2.5557  3.7376  0.1366
 1586TIP3    H226250   6.391   1.907  14.969 -0.7529  3.5906  1.6698
 1587TIP3   OH226251   1.964   3.434   3.017  0.6398 -0.1550  0.1591
 1587TIP3    H126252   1.917   3.493   3.075  1.5131  1.0392 -0.3120
 1587TIP3    H226253   1.962   3.349   3.062  0.8496  0.6115  1.6812
 1588TIP3   OH226254   5.747   4.414   1.372  0.3233 -0.0380 -0.1637
 1588TIP3    H126255   5.714   4.496   1.335 -0.0492  0.3360  0.9372
 1588TIP3    H226256   5.680   4.387   1.434  0.2305 -1.4389 -0.8396
 1589TIP3   OH226257   3.111   1.516  10.986  0.0672  0.3020  0.1198
 1589TIP3    H126258   3.165   1.592  11.008 -0.3708  0.9323 -0.8935
 1589TIP3    H226259   3.173   1.454  10.947  0.4206  0.1497  0.9092
 1590TIP3   OH226260   1.767   6.585  14.758  0.3521  0.1736  0.7954
 1590TIP3    H126261   1.777   6.680  14.755  0.2363  0.2315  1.9914
 1590TIP3    H226262   1.739   6.566  14.847 -0.5095 -0.9096  0.3161
 1591TIP3   OH226263   1.411   6.321  15.171 -0.1979  0.5015  0.1830
 1591TIP3    H126264   1.494   6.347  15.211 -0.5876  2.2270 -0.0567
 1591TIP3    H226265   1.365   6.403  15.155 -0.8392 -0.2453 -2.1696
 1592TIP3   OH226266   6.213   2.104   1.711  0.0378  0.6089  0.6144
 1592TIP3    H126267   6.176   2.165   1.647  2.0394 -0.1316 -1.3723
 1592TIP3    H226268   6.268   2.045   1.660 -1.7997 -3.0012  2.4057
 1593TIP3   OH226269   5.552   1.014   3.884  0.0005  0.0406 -0.0980
 1593TIP3    H126270   5.502   0.940   3.917 -0.3516  1.0385  1.7196
 1593TIP3    H226271   5.600   1.047   3.959  0.8013  1.1557 -1.0580
 1594TIP3   OH226272   0.142   3.040   3.453  0.2512  0.8918 -0.1190
 1594TIP3    H126273   0.138   3.053   3.359 -0.5588 -0.4570 -0.2989
 1594TIP3    H226274   0.058   3.075   3.485  0.3137  0.8924  0.0455
 1595TIP3   OH226275   0.369   0.448   1.427 -0.2096 -0.0289 -0.1477
 1595TIP3    H126276   0.448   0.424   1.379  1.0977  2.5649  0.5077
 1595TIP3    H226277   0.319   0.501   1.366 -0.5879 -0.2020  0.0114
 1596TIP3   OH226278   2.962   6.595  12.226  0.2406  0.3248 -0.2811
 1596TIP3    H126279   3.029   6.539  12.188 -0.1937 -1.5217  1.5270
 1596TIP3    H226280   2.881   6.572  12.180 -0.0697 -1.0950  0.9196
 1597TIP3   OH226281   6.057   6.474   1.348  0.4201 -0.0237 -0.3123
 1597TIP3    H126282   6.141   6.439   1.320  0.6117  0.8043 -0.7823
 1597TIP3    H226283   6.069   6.494   1.441  1.2061  1.4289 -0.7019
 1598TIP3   OH226284   0.809   6.453   5.788  0.0620  0.0812  0.1670
 1598TIP3    H126285   0.817   6.401   5.708 -0.9355  2.2969 -1.4639
 1598TIP3    H226286   0.732   6.417   5.832  1.1002 -1.7035  0.6414
 1599TIP3   OH226287   6.068   6.060  12.207 -0.5977 -0.2314  0.1586
 1599TIP3    H126288   6.033   5.992  12.265  0.0704 -2.0131 -1.4293
 1599TIP3    H226289   6.141   6.098  12.255 -0.1614 -1.5501  0.5756
 1600TIP3   OH226290   4.473   4.280   2.495 -0.3172  0.6405  0.7662
 1600TIP3    H126291   4.565   4.303   2.509 -0.5972  2.1119  0.4088
 1600TIP3    H226292   4.475   4.204   2.438  0.6884  1.6742 -0.6402
 1601TIP3   OH226293   3.519   6.048   3.781  0.4771  0.0906  0.4238
 1601TIP3    H126294   3.437   6.075   3.739  0.2962 -1.9100 -0.6698
 1601TIP3    H226295   3.496   6.036   3.873 -0.2016  0.5294  0.3191
 1602TIP3   OH226296   2.055   4.489  14.496  0.0889 -0.6592  0.2137
 1602TIP3    H126297   2.054   4.414  14.556 -0.2855  0.4529  1.6507
 1602TIP3    H226298   2.000   4.462  14.422 -0.4539 -1.6163  0.9501
 1603TIP3   OH226299   2.169   2.014   3.827 -0.7297  0.2019  0.6411
 1603TIP3    H126300   2.108   2.031   3.898  0.4810 -0.5974  1.9371
 1603TIP3    H226301   2.245   2.068   3.847  1.0064 -2.4908  1.9193
 1604TIP3   OH226302   2.430   4.308   0.595 -0.2308  0.8342 -0.2918
 1604TIP3    H126303   2.464   4.348   0.515 -1.1067  1.6173 -0.2963
 1604TIP3    H226304   2.357   4.365   0.621 -0.9542 -0.2796  0.2021
 1605TIP3   OH226305   4.336   5.312   3.609  0.1541  0.0530  0.8618
 1605TIP3    H126306   4.308   5.354   3.527 -0.1043 -0.9200  0.4438
 1605TIP3    H226307   4.281   5.353   3.676 -2.6320 -2.0032  0.0346
 1606TIP3   OH226308   3.167   2.792  10.503 -1.5493 -0.5975 -0.1044
 1606TIP3    H126309   3.205   2.781  10.415 -1.6923 -1.0902 -0.1089
 1606TIP3    H226310   3.200   2.717  10.552 -1.1044 -0.0858  0.4011
 1607TIP3   OH226311   1.038   2.869  13.275 -0.0772  0.1429  0.2284
 1607TIP3    H126312   1.127   2.900  13.264 -0.5285  1.1646 -0.7152
 1607TIP3    H226313   1.047   2.779  13.305  1.2596  0.0514 -0.4102
 1608TIP3   OH226314   6.407   5.880   1.411  0.5722 -0.7216  0.0336
 1608TIP3    H126315   6.460   5.826   1.469 -0.3528 -1.2101  0.4409
 1608TIP3    H226316   6.320   5.842   1.416 -0.2281  1.1283  0.7243
 1609TIP3   OH226317   4.692   1.620   5.926 -0.2955  0.0186 -0.8757
 1609TIP3    H126318   4.656   1.704   5.956 -1.1446  0.0496 -1.9152
 1609TIP3    H226319   4.652   1.606   5.840  1.2606 -0.5582 -1.5515
 1610TIP3   OH226320   6.505   2.194   0.782  0.3334  0.1916 -0.1629
 1610TIP3    H126321   6.560   2.271   0.764 -0.5342  0.4310 -2.1059
 1610TIP3    H226322   6.428   2.207   0.727 -0.6280 -1.2582  0.7711
 1611TIP3   OH226323   1.912   3.747   2.736  0.4537  0.3195  0.7887
 1611TIP3    H126324   1.837   3.704   2.696 -0.1986  2.3397 -0.2949
 1611TIP3    H226325   1.881   3.778   2.820  0.3726  0.2764  0.7741
 1612TIP3   OH226326   6.593   0.791   1.162  0.2224 -0.3755 -0.2017
 1612TIP3    H126327   6.596   0.696   1.175  0.6881 -0.6429 -1.9570
 1612TIP3    H226328   6.556   0.801   1.074 -3.0251  1.2097  1.1926
 1613TIP3   OH226329   0.024   3.190  10.475  0.2876 -0.4315  0.2822
 1613TIP3    H126330   0.081   3.136  10.421  0.0665 -1.0489  0.6524
 1613TIP3    H226331   0.041   3.279  10.446  0.1759 -0.7458 -0.8025
 1614TIP3   OH226332   2.075   5.167  15.783 -0.0944 -0.6302 -0.9312
 1614TIP3    H126333   2.053   5.093  15.726  1.3195 -1.0376 -0.9853
 1614TIP3    H226334   2.155   5.139  15.828 -1.1448 -0.3081  1.2543
 1615TIP3   OH226335   6.610   0.323  14.598 -0.1213  0.7042  0.0282
 1615TIP3    H126336   6.615   0.389  14.667 -0.2940  0.4569  0.2779
 1615TIP3    H226337   6.531   0.274  14.617 -0.4871  1.0016 -0.6849
 1616TIP3   OH226338   6.091   1.987   2.994  0.2699  0.1625 -0.3702
 1616TIP3    H126339   6.144   2.066   2.999  1.3314 -0.4058 -1.7244
 1616TIP3    H226340   6.133   1.934   2.925 -1.1902 -0.9784 -0.4532
 1617TIP3   OH226341   2.557   0.651  11.674 -0.3732  0.0764  0.0707
 1617TIP3    H126342   2.516   0.664  11.760  1.1690  2.6890  0.5472
 1617TIP3    H226343   2.490   0.609  11.621 -1.7629 -0.6039  2.2278
 1618TIP3   OH226344   0.423   4.753   4.807 -0.6139 -0.4987  0.0783
 1618TIP3    H126345   0.339   4.746   4.762 -0.9639  0.2546  0.5871
 1618TIP3    H226346   0.432   4.671   4.855 -1.0161 -0.6121 -0.0383
 1619TIP3   OH226347   5.441   6.185  11.305  0.7491 -0.1774  0.1606
 1619TIP3    H126348   5.469   6.217  11.391 -1.4666  1.8451  0.2229
 1619TIP3    H226349   5.463   6.255  11.244 -0.3754 -0.3201 -0.4303
 1620TIP3   OH226350   2.983   4.889  16.732 -0.2270  0.5491  0.4635
 1620TIP3    H126351   3.002   4.883  16.826  1.8368 -2.2333 -0.0099
 1620TIP3    H226352   2.951   4.801  16.709 -0.0372  0.9726 -1.5542
 1621TIP3   OH226353   3.044   2.267  14.065  0.1978  0.3792  0.0560
 1621TIP3    H126354   3.009   2.253  14.153  1.3139  2.5151  0.9214
 1621TIP3    H226355   2.983   2.329  14.025  0.6290  0.7885  0.0127
 1622TIP3   OH226356   3.595   3.418   2.765 -0.5834 -0.6624  0.1173
 1622TIP3    H126357   3.527   3.361   2.729  0.7870 -1.2087 -1.7143
 1622TIP3    H226358   3.593   3.400   2.859 -0.7777 -3.1440 -0.2914
 1623TIP3   OH226359   2.465   2.973   2.623 -0.6480  0.2882 -0.4915
 1623TIP3    H126360   2.560   2.974   2.636 -0.5413 -2.3447 -0.6694
 1623TIP3    H226361   2.430   2.947   2.708 -1.1462  0.1093 -0.7523
 1624TIP3   OH226362   2.185   5.099   3.865 -0.5219 -0.5358  0.2245
 1624TIP3    H126363   2.133   5.035   3.817 -0.8207 -1.2037  1.3973
 1624TIP3    H226364   2.126   5.131   3.933 -0.6896  1.7169 -0.9019
 1625TIP3   OH226365   3.156   1.156  15.287  0.1153  0.1696 -0.1228
 1625TIP3    H126366   3.148   1.211  15.210 -1.7524 -0.8001 -0.6867
 1625TIP3    H226367   3.162   1.217  15.361 -0.5793  1.1321 -0.8389
 1626TIP3   OH226368   6.418   0.079   5.996 -0.5912  0.0357 -0.6112
 1626TIP3    H126369   6.483   0.056   6.063  0.7575  0.8916 -1.5936
 1626TIP3    H226370   6.376   0.158   6.030 -0.1834  0.2480 -0.5989
 1627TIP3   OH226371   3.837   0.881   2.946 -0.2442 -0.6268 -0.1751
 1627TIP3    H126372   3.896   0.956   2.939 -0.8240 -0.2477 -1.2046
 1627TIP3    H226373   3.799   0.888   3.033  0.1212 -0.0417 -0.0566
 1628TIP3   OH226374   0.465   3.849   4.955  0.2781  0.5156  0.5708
 1628TIP3    H126375   0.553   3.873   4.925  0.6595  0.4887  1.6448
 1628TIP3    H226376   0.406   3.897   4.896  1.0046  0.5702 -0.1307
 1629TIP3   OH226377   2.680   6.305  17.059  0.0596 -0.3593 -0.0576
 1629TIP3    H126378   2.695   6.211  17.063  0.1148 -0.3165  1.5347
 1629TIP3    H226379   2.767   6.343  17.049  0.3357 -0.4146  1.7276
 1630TIP3   OH226380   1.596   3.260  14.425 -0.2168  0.3088  0.1102
 1630TIP3    H126381   1.558   3.223  14.504  0.0513  0.4708  0.3143
 1630TIP3    H226382   1.529   3.321  14.393 -0.6685 -0.3572 -0.2394
 1631TIP3   OH226383   5.724   6.519   3.658  0.1392  0.9876  0.6697
 1631TIP3    H126384   5.702   6.500   3.749  0.6924  1.8106  0.9772
 1631TIP3    H226385   5.657   6.472   3.607 -0.8507  1.4488  1.5251
 1632TIP3   OH226386   6.430   6.407  13.682 -0.2273  0.1439 -0.2903
 1632TIP3    H126387   6.478   6.341  13.631 -0.2015 -0.9894  1.1439
 1632TIP3    H226388   6.489   6.430  13.754 -0.4568  1.3522 -0.4610
 1633TIP3   OH226389   0.343   4.940  11.199  0.0396 -0.1692  0.0211
 1633TIP3    H126390   0.359   4.994  11.276  0.6929  1.2279 -1.0561
 1633TIP3    H226391   0.420   4.883  11.193  0.5675  0.5498 -0.2433
 1634TIP3   OH226392   0.109   4.951  12.753  0.0438 -0.2342  0.3144
 1634TIP3    H126393   0.103   4.974  12.846  1.3297 -3.4810  1.3354
 1634TIP3    H226394   0.121   4.856  12.752 -0.7529 -0.4508 -3.2540
 1635TIP3   OH226395   6.249   1.941   0.697  0.2114 -0.1217 -0.1337
 1635TIP3    H126396   6.274   1.866   0.751  0.9745 -0.9727 -1.5832
 1635TIP3    H226397   6.178   1.983   0.745  0.9982 -0.6916  1.6139
 1636TIP3   OH226398   6.617   1.918   5.125  0.4589 -0.0678  0.2125
 1636TIP3    H126399   6.556   1.961   5.186 -0.8303 -0.1136 -0.9803
 1636TIP3    H226400   6.629   1.981   5.054  1.8972 -0.0324  0.4651
 1637TIP3   OH226401   2.355   2.198  16.318 -0.2733 -0.4866  0.1903
 1637TIP3    H126402   2.295   2.124  16.304 -1.2756  0.5405 -1.2961
 1637TIP3    H226403   2.341   2.223  16.410 -1.2839 -1.0078  0.1936
 1638TIP3   OH226404   3.316   0.750  10.762  0.0856  0.1247  0.3376
 1638TIP3    H126405   3.252   0.803  10.716  0.2961  0.2324  0.1698
 1638TIP3    H226406   3.326   0.793  10.847  0.2582  0.3511  0.2012
 1639TIP3   OH226407   6.308   1.684   3.666 -0.7978  0.2983 -0.0936
 1639TIP3    H126408   6.342   1.739   3.737 -1.0772  0.2136  0.1071
 1639TIP3    H226409   6.296   1.744   3.593  2.0845 -0.0701 -0.9810
 1640TIP3   OH226410   5.155   2.211  11.466  0.7254 -0.1036 -0.5311
 1640TIP3    H126411   5.170   2.142  11.402 -0.4275  0.8534 -1.8791
 1640TIP3    H226412   5.163   2.292  11.417  1.6597  0.7434  0.9456
 1641TIP3   OH226413   2.823   3.298   1.167  0.6092 -0.1913  0.1584
 1641TIP3    H126414   2.745   3.326   1.215  0.8686 -0.9606  1.0732
 1641TIP3    H226415   2.866   3.236   1.226 -0.4850 -3.3887 -2.0954
 1642TIP3   OH226416   2.234   2.288  11.822  0.0589 -0.2569 -1.0628
 1642TIP3    H126417   2.188   2.205  11.836 -1.2787  0.5036 -0.7211
 1642TIP3    H226418   2.322   2.262  11.794  0.5286 -1.8104  1.5405
 1643TIP3   OH226419   5.653   0.393  11.803  0.1591 -0.1712  0.2610
 1643TIP3    H126420   5.719   0.460  11.783 -0.0517 -0.5142 -1.7005
 1643TIP3    H226421   5.569   0.437  11.789 -0.0086 -0.3411  0.7087
 1644TIP3   OH226422   3.839   0.474   2.718  0.0870  0.3469  0.0246
 1644TIP3    H126423   3.872   0.561   2.742  0.5372 -0.1514  1.3240
 1644TIP3    H226424   3.745   0.487   2.707 -0.0209  0.8114  1.2793
 1645TIP3   OH226425   4.874   0.648   5.725  0.3530 -0.5532 -0.6921
 1645TIP3    H126426   4.854   0.741   5.715 -0.2216 -0.7748 -1.6404
 1645TIP3    H226427   4.816   0.603   5.663  3.1336 -1.2874 -2.9888
 1646TIP3   OH226428   4.582   4.201   0.698  0.5102 -0.1372  0.6815
 1646TIP3    H126429   4.574   4.200   0.602 -0.3955  1.1294  0.7210
 1646TIP3    H226430   4.659   4.256   0.715 -1.2814  2.5197  0.7180
 1647TIP3   OH226431   0.988   1.459  15.882  0.3940  0.3486  0.2668
 1647TIP3    H126432   0.933   1.531  15.912 -1.7744 -0.0308 -2.3972
 1647TIP3    H226433   1.050   1.445  15.954 -1.6129  2.2215  2.5669
 1648TIP3   OH226434   3.387   0.416  13.953 -0.0001 -0.0053 -0.1823
 1648TIP3    H126435   3.348   0.329  13.957 -0.4011  0.2003  0.5483
 1648TIP3    H226436   3.376   0.444  13.863 -0.4070 -0.4656 -0.2759
 1649TIP3   OH226437   1.121   5.684   1.248 -0.7461  0.0513 -0.1844
 1649TIP3    H126438   1.130   5.590   1.229  1.4393  0.4166 -1.3417
 1649TIP3    H226439   1.041   5.710   1.203  0.0849 -0.7623 -2.2618
 1650TIP3   OH226440   4.442   1.197  13.600 -0.0939  0.2910 -0.2494
 1650TIP3    H126441   4.359   1.156  13.627 -0.0819 -0.9296 -1.9156
 1650TIP3    H226442   4.419   1.289  13.585 -0.6328  0.4615  1.3754
 1651TIP3   OH226443   6.047   3.351   2.081  0.2441  0.5323 -0.0824
 1651TIP3    H126444   6.133   3.376   2.048 -0.3904  0.5913 -1.7745
 1651TIP3    H226445   6.066   3.292   2.154  1.7622 -1.3498 -1.8748
 1652TIP3   OH226446   5.323   1.909   0.192  0.3567  0.0367  0.0705
 1652TIP3    H126447   5.384   1.845   0.156 -0.0765 -1.2669  1.5281
 1652TIP3    H226448   5.370   1.992   0.187  1.7625 -0.7210  0.0469
 1653TIP3   OH226449   5.632   3.195  16.338 -0.6438  0.1466  0.0681
 1653TIP3    H126450   5.553   3.239  16.368 -1.2332 -0.6976 -0.2001
 1653TIP3    H226451   5.667   3.252  16.270  0.2669  1.6742  1.7381
 1654TIP3   OH226452   6.630   2.220  12.144 -0.5337 -0.1717  0.3511
 1654TIP3    H126453   6.585   2.210  12.228 -0.0837  0.1972  0.6435
 1654TIP3    H226454   6.722   2.237  12.168 -0.4896  0.4267 -0.1949
 1655TIP3   OH226455   6.086   5.036   4.500  0.3110  0.3036 -0.2999
 1655TIP3    H126456   6.039   5.020   4.418  1.2994 -0.5228 -0.7386
 1655TIP3    H226457   6.022   5.076   4.558 -0.6560  0.0654 -1.1831
 1656TIP3   OH226458   5.496   3.093   1.111 -0.2982  0.0629 -0.3471
 1656TIP3    H126459   5.478   3.177   1.069  1.7262  0.4053 -0.6430
 1656TIP3    H226460   5.536   3.116   1.195 -0.1099 -0.5991 -0.2465
 1657TIP3   OH226461   1.700   6.089   5.852 -0.5722 -0.2922 -0.1681
 1657TIP3    H126462   1.728   6.074   5.942  2.3545  0.5550 -0.8009
 1657TIP3    H226463   1.651   6.171   5.855 -1.6627 -0.9639  0.8142
 1658TIP3   OH226464   2.025   5.497  16.983 -0.2024  0.2430  0.2391
 1658TIP3    H126465   1.993   5.506  17.073  3.8543  1.2083  1.8254
 1658TIP3    H226466   2.038   5.587  16.953 -0.3470 -0.0927 -0.8910
 1659TIP3   OH226467   5.992   2.901  13.853  0.0226  0.2725  0.0969
 1659TIP3    H126468   5.956   2.981  13.892  1.2242  0.0618  1.7711
 1659TIP3    H226469   5.947   2.830  13.898  1.1202  0.0196  0.8221
 1660TIP3   OH226470   2.591   3.113  15.392 -0.0099  0.0795 -0.4939
 1660TIP3    H126471   2.555   3.068  15.468  0.3470  0.0019 -0.3692
 1660TIP3    H226472   2.540   3.080  15.318 -0.7520  0.5883 -0.2266
 1661TIP3   OH226473   0.752   4.146  12.450 -0.1018  0.2781  0.4256
 1661TIP3    H126474   0.723   4.226  12.494  0.9900  1.6755 -1.2335
 1661TIP3    H226475   0.829   4.118  12.499  0.1651  0.9019  0.3812
 1662TIP3   OH226476   3.280   2.555  15.095 -0.2528 -0.3712 -0.0120
 1662TIP3    H126477   3.279   2.622  15.026  0.2858 -0.0913  0.2471
 1662TIP3    H226478   3.218   2.588  15.161  0.4672  0.1817  0.3986
 1663TIP3   OH226479   4.364   5.640   3.733 -0.0903 -0.1275 -0.2817
 1663TIP3    H126480   4.319   5.556   3.731  1.7721 -1.2630  1.3052
 1663TIP3    H226481   4.378   5.663   3.641 -1.2499 -1.1831 -0.7396
 1664TIP3   OH226482   3.148   1.540  17.098 -0.0320 -0.2188  0.5389
 1664TIP3    H126483   3.163   1.558  17.191  0.5894  1.0122  0.2278
 1664TIP3    H226484   3.219   1.481  17.073 -0.4389 -0.8770  0.9406
 1665TIP3   OH226485   2.466   3.774  16.685  0.0311 -0.1755 -0.0752
 1665TIP3    H126486   2.393   3.728  16.643  0.4110 -0.4929 -0.3892
 1665TIP3    H226487   2.516   3.811  16.612  0.9542 -1.1099  0.0622
 1666TIP3   OH226488   0.160   2.432   1.602 -0.0510  0.0797  0.1175
 1666TIP3    H126489   0.157   2.412   1.509  1.1216  1.8497 -0.3476
 1666TIP3    H226490   0.123   2.354   1.645  1.0336 -1.5277 -1.7077
 1667TIP3   OH226491   5.961   2.416  16.144  0.5151 -0.5577  0.1958
 1667TIP3    H126492   5.938   2.478  16.075 -0.5207 -0.5228  0.5527
 1667TIP3    H226493   5.951   2.465  16.225 -1.9245 -1.5851  0.5940
 1668TIP3   OH226494   3.641   0.156   2.959 -0.2380 -0.1435 -0.3206
 1668TIP3    H126495   3.595   0.153   3.043  1.0893 -0.2295  0.4390
 1668TIP3    H226496   3.576   0.128   2.895 -0.8298 -1.7057  0.8979
 1669TIP3   OH226497   2.344   4.952  16.311 -0.2092  0.7203 -0.4112
 1669TIP3    H126498   2.431   4.959  16.273  0.1547  1.5319  0.5153
 1669TIP3    H226499   2.355   4.899  16.390 -0.5941  0.6412 -0.4041
 1670TIP3   OH226500   6.169   1.687  16.451  0.4196 -0.1233  0.2504
 1670TIP3    H126501   6.174   1.757  16.516  1.6821  1.5599 -1.5191
 1670TIP3    H226502   6.217   1.614  16.490 -1.8141 -0.4509  2.5769
 1671TIP3   OH226503   0.817   4.936   0.314  0.3667  0.3754 -0.0320
 1671TIP3    H126504   0.860   4.851   0.320 -1.4511 -0.6281 -0.3225
 1671TIP3    H226505   0.804   4.963   0.405 -0.5839 -0.5160  0.1194
 1672TIP3   OH226506   3.287   5.264   1.209  0.0519  0.3355 -0.2589
 1672TIP3    H126507   3.338   5.317   1.149 -0.4691 -0.9043 -1.8620
 1672TIP3    H226508   3.304   5.174   1.183 -0.7048 -0.2160  1.0390
 1673TIP3   OH226509   0.333   4.347   2.314  0.1194  0.4037  0.3368
 1673TIP3    H126510   0.401   4.404   2.349  0.9275 -0.9776  1.0745
 1673TIP3    H226511   0.327   4.275   2.376 -0.5712 -0.5422 -0.7878
 1674TIP3   OH226512   1.600   3.468   2.867 -0.0158 -0.0596  0.4930
 1674TIP3    H126513   1.613   3.518   2.947 -0.2960  0.2729  0.3327
 1674TIP3    H226514   1.645   3.385   2.883  0.0999  0.0831  0.9161
 1675TIP3   OH226515   0.066   0.345   4.410  0.1259  0.3026  0.4049
 1675TIP3    H126516  -0.015   0.388   4.382  0.3445  0.7801  0.4884
 1675TIP3    H226517   0.038   0.261   4.446 -0.3529  0.5362  0.5841
 1676TIP3   OH226518   6.102   1.089   2.797 -0.2903  0.6858  0.0514
 1676TIP3    H126519   6.103   1.041   2.714  0.5135  3.1113 -1.4479
 1676TIP3    H226520   6.192   1.088   2.827 -0.6012 -0.2887  1.0045
 1677TIP3   OH226521   5.096   4.875   3.570 -0.1781 -0.6688  1.0072
 1677TIP3    H126522   5.128   4.826   3.494 -1.1070 -2.1456  1.5152
 1677TIP3    H226523   5.150   4.845   3.643 -0.2437 -0.3501  1.1890
 1678TIP3   OH226524   6.182   0.758  12.055 -0.2073  0.4518 -0.1487
 1678TIP3    H126525   6.226   0.692  12.108  1.2924  0.1066 -1.7288
 1678TIP3    H226526   6.219   0.841  12.085  1.1706  0.2082 -1.0540
 1679TIP3   OH226527   2.978   0.274  15.424 -0.0785 -0.0517  0.1793
 1679TIP3    H126528   2.888   0.305  15.410 -0.9233 -1.5876  1.7889
 1679TIP3    H226529   2.973   0.223  15.505  1.5620 -2.7725 -1.2845
 1680TIP3   OH226530   2.415   0.822  15.385  0.4263  0.2338 -0.1416
 1680TIP3    H126531   2.493   0.831  15.440  0.6115 -1.2544 -0.1092
 1680TIP3    H226532   2.416   0.730  15.358 -2.1948 -0.2886  1.2262
 1681TIP3   OH226533   5.204   6.649   1.982  0.2626 -0.2369  0.1349
 1681TIP3    H126534   5.153   6.728   1.965  1.3913  0.2179 -1.3099
 1681TIP3    H226535   5.172   6.618   2.067 -0.1592  1.7945  0.7754
 1682TIP3   OH226536   4.725   1.402  13.186  0.2516  0.3786 -0.1923
 1682TIP3    H126537   4.750   1.465  13.118 -2.6406  1.1120 -0.7191
 1682TIP3    H226538   4.757   1.318  13.153 -2.3471  0.4335 -3.3612
 1683TIP3   OH226539   0.752   1.174  11.629 -0.0998  0.5497  0.4033
 1683TIP3    H126540   0.669   1.207  11.593 -0.4737  0.8316  1.4867
 1683TIP3    H226541   0.807   1.159  11.552 -1.3215 -0.1234 -0.3687
 1684TIP3   OH226542   1.017   4.044   3.426 -0.0776  0.0277 -0.3451
 1684TIP3    H126543   0.993   4.036   3.519 -1.2131  0.3440 -0.6053
 1684TIP3    H226544   1.111   4.027   3.425  0.2222  1.3940  1.0529
 1685TIP3   OH226545   5.088   3.500   1.825 -0.3917 -0.6373 -0.3465
 1685TIP3    H126546   5.100   3.487   1.731 -1.3446  4.1883 -1.3727
 1685TIP3    H226547   5.009   3.554   1.832 -0.6527 -1.2612  3.3353
 1686TIP3   OH226548   6.487   4.502   5.968  0.2875 -0.0548  0.1897
 1686TIP3    H126549   6.402   4.548   5.972  0.2312 -0.1820  0.4428
 1686TIP3    H226550   6.525   4.514   6.055  1.5770  1.9810 -0.5708
 1687TIP3   OH226551   5.839   2.248   1.939 -0.6431 -0.2862  0.7366
 1687TIP3    H126552   5.913   2.298   1.905 -2.2163  2.2832  0.8004
 1687TIP3    H226553   5.845   2.163   1.897  2.1081 -0.0464  0.4805
 1688TIP3   OH226554   6.744   2.966  13.331 -0.5772  0.4908  0.6208
 1688TIP3    H126555   6.666   2.929  13.371 -0.7023  1.5195  1.3835
 1688TIP3    H226556   6.753   2.920  13.248 -0.4011 -1.5966  1.7444
 1689TIP3   OH226557   0.639   0.983  10.856 -0.8314 -0.6468 -0.2279
 1689TIP3    H126558   0.711   0.976  10.919  0.3093 -0.4771 -1.4706
 1689TIP3    H226559   0.579   1.046  10.896 -0.1497 -0.5594  0.6961
 1690TIP3   OH226560   0.625   1.816  11.530  0.1755 -0.0577 -0.4742
 1690TIP3    H126561   0.657   1.785  11.446  1.2194  0.8345 -0.4211
 1690TIP3    H226562   0.627   1.738  11.587 -0.4595 -0.6433 -1.2218
 1691TIP3   OH226563   1.394   5.484  13.440 -0.0684  0.3901  0.0206
 1691TIP3    H126564   1.452   5.535  13.496 -1.7241  1.7390  0.5807
 1691TIP3    H226565   1.324   5.454  13.497 -0.3811 -0.5030 -0.7988
 1692TIP3   OH226566   2.268   0.388  16.628 -0.3304  0.0857 -0.6237
 1692TIP3    H126567   2.313   0.343  16.556 -0.7996  0.1407 -0.9586
 1692TIP3    H226568   2.230   0.466  16.587  1.7015  1.6132  0.2286
 1693TIP3   OH226569   0.910   0.627  12.124 -0.4421 -0.5501 -0.1381
 1693TIP3    H126570   0.963   0.678  12.062 -0.5236 -0.6165 -0.2618
 1693TIP3    H226571   0.867   0.693  12.179 -1.5119 -0.4313 -1.0758
 1694TIP3   OH226572   4.133   3.618  14.799  0.1886 -0.9623 -0.0356
 1694TIP3    H126573   4.048   3.634  14.759  0.8184 -1.5340 -1.6995
 1694TIP3    H226574   4.128   3.528  14.831  0.3529 -1.2119 -0.6896
 1695TIP3   OH226575   0.048   5.534   6.381  0.3438 -0.1840 -0.2620
 1695TIP3    H126576   0.049   5.611   6.323 -0.5375  0.1624  0.1826
 1695TIP3    H226577   0.140   5.523   6.406  0.5716  0.3435 -0.8334
 1696TIP3   OH226578   0.271   5.920   2.408  0.2673 -0.1689 -0.0964
 1696TIP3    H126579   0.181   5.928   2.375  0.1546 -0.2007  0.2009
 1696TIP3    H226580   0.262   5.921   2.503  0.6082  0.1080 -0.0646
 1697TIP3   OH226581   0.350   4.010  15.111  0.0164 -0.2010 -0.2870
 1697TIP3    H126582   0.313   3.923  15.128  1.4912 -0.7431  0.2636
 1697TIP3    H226583   0.275   4.062  15.082 -1.1526 -1.2918  0.6616
 1698TIP3   OH226584   6.116   3.837  14.078 -0.7488  0.1432 -0.0239
 1698TIP3    H126585   6.205   3.821  14.047 -0.0428  1.9720  0.9643
 1698TIP3    H226586   6.061   3.821  14.001  0.6047  0.8923 -1.1786
 1699TIP3   OH226587   6.361   2.040  11.025  0.6197 -1.3158  0.1368
 1699TIP3    H126588   6.348   2.115  11.083  2.3717 -1.4966  0.8315
 1699TIP3    H226589   6.355   2.076  10.937 -2.0380 -1.0257  0.3405
 1700TIP3   OH226590   0.964   6.455   3.400 -0.0339  0.4053 -0.2477
 1700TIP3    H126591   0.880   6.447   3.354  0.6932 -0.5877 -1.4827
 1700TIP3    H226592   0.996   6.541   3.376 -1.3542  1.4446  1.4681
 1701TIP3   OH226593   1.387   1.841   3.308  0.3762 -0.6051 -1.0533
 1701TIP3    H126594   1.301   1.853   3.267 -0.6303 -0.9136  0.8385
 1701TIP3    H226595   1.414   1.930   3.332 -0.3848 -0.6725  0.1384
 1702TIP3   OH226596   0.076   3.968   5.314 -0.5778 -0.5697 -0.1372
 1702TIP3    H126597   0.134   3.915   5.259 -0.5221  1.2195 -1.9122
 1702TIP3    H226598   0.100   4.058   5.293 -3.7332  0.2370 -0.6689
 1703TIP3   OH226599   5.007   3.454  17.046  0.5920  0.0860  0.1606
 1703TIP3    H126600   5.059   3.524  17.005 -0.4523  1.3934  0.9981
 1703TIP3    H226601   4.997   3.482  17.137 -2.5402  0.5129 -0.2114
 1704TIP3   OH226602   3.565   5.868   5.051 -0.2105  0.0897  0.0607
 1704TIP3    H126603   3.476   5.904   5.061 -0.5427  0.2389 -2.6418
 1704TIP3    H226604   3.611   5.935   5.000  1.9314  0.6110  2.4689
 1705TIP3   OH226605   6.094   3.799   3.578  0.1348 -0.3393 -0.4333
 1705TIP3    H126606   6.065   3.737   3.511 -0.6351 -2.0396  1.3651
 1705TIP3    H226607   6.020   3.804   3.639  0.9536  0.8427  0.5137
 1706TIP3   OH226608   5.402   4.477  11.418 -0.0810 -0.0161 -0.9404
 1706TIP3    H126609   5.367   4.397  11.379  0.7708 -0.4016 -0.9346
 1706TIP3    H226610   5.483   4.494  11.369  1.1788 -0.6598  0.7843
 1707TIP3   OH226611   2.955   1.358   6.026 -0.1421  0.1436 -0.0538
 1707TIP3    H126612   2.890   1.420   6.062  1.3619  2.0795 -0.5260
 1707TIP3    H226613   3.035   1.378   6.074  0.0061 -2.8568  1.1924
 1708TIP3   OH226614   4.444   0.234  13.786  0.0747 -0.0619 -0.3112
 1708TIP3    H126615   4.477   0.289  13.857 -1.4924 -0.4584  0.7862
 1708TIP3    H226616   4.376   0.180  13.827 -0.5661 -0.6295 -2.0223
 1709TIP3   OH226617   6.056   3.041  15.229  0.3528 -0.1563 -0.3645
 1709TIP3    H126618   6.141   3.012  15.261  0.2634  0.1836  0.1845
 1709TIP3    H226619   6.064   3.136  15.220 -0.2162 -0.0227  0.4622
 1710TIP3   OH226620   5.647   2.230  12.114 -0.1610  0.0334 -0.4421
 1710TIP3    H126621   5.674   2.139  12.127 -0.8560 -0.2006 -0.5552
 1710TIP3    H226622   5.560   2.223  12.074 -0.1097  0.7502 -0.6876
 1711TIP3   OH226623   5.879   4.908   3.930  0.3486  0.4180  0.4249
 1711TIP3    H126624   5.955   4.958   3.961  0.1619  0.8546  0.1818
 1711TIP3    H226625   5.804   4.950   3.972 -0.0057  1.6031 -1.2935
 1712TIP3   OH226626   5.413   6.179   3.359  0.1647 -0.0981  0.0821
 1712TIP3    H126627   5.427   6.087   3.381 -1.6520 -0.4939 -0.2514
 1712TIP3    H226628   5.483   6.225   3.405 -0.1478 -1.4421  2.0357
 1713TIP3   OH226629   0.050   3.830   3.211 -0.5619  0.7249  0.1331
 1713TIP3    H126630   0.059   3.917   3.250 -1.0925  1.3151 -1.0334
 1713TIP3    H226631   0.003   3.845   3.129 -3.0486 -0.9668  1.1432
 1714TIP3   OH226632   4.296   5.464  12.168 -0.5816 -0.0787  0.1217
 1714TIP3    H126633   4.388   5.439  12.155 -0.9128 -0.4660 -1.7071
 1714TIP3    H226634   4.246   5.392  12.130 -1.6640 -0.0509  1.4388
 1715TIP3   OH226635   0.460   5.306  16.430  0.8339 -0.1329  0.6135
 1715TIP3    H126636   0.474   5.400  16.422  2.1405 -0.4139 -1.3791
 1715TIP3    H226637   0.520   5.268  16.365 -0.6405 -2.2587  0.3959
 1716TIP3   OH226638   3.293   6.136  11.131  0.0156 -0.3812  0.2572
 1716TIP3    H126639   3.284   6.057  11.077  2.8251 -0.8720  0.3301
 1716TIP3    H226640   3.375   6.175  11.102 -0.0738  1.1803  1.9349
 1717TIP3   OH226641   6.527   5.470  16.692  0.8598 -0.1024  0.0855
 1717TIP3    H126642   6.572   5.389  16.715 -0.0088 -1.0263 -1.3217
 1717TIP3    H226643   6.436   5.456  16.719  0.7626  0.5337  0.1114
 1718TIP3   OH226644   0.596   5.319  15.735 -0.5205  0.5811  0.0194
 1718TIP3    H126645   0.567   5.310  15.826 -0.5748  2.6067  0.2534
 1718TIP3    H226646   0.609   5.413  15.723 -0.5900  0.3730 -2.1071
 1719TIP3   OH226647   2.481   2.162  14.005 -0.2412  0.2410 -0.3523
 1719TIP3    H126648   2.540   2.128  13.937  1.1489 -0.3018  1.0647
 1719TIP3    H226649   2.508   2.253  14.017  0.3844 -0.0274  0.3459
 1720TIP3   OH226650   5.052   3.122  16.567  0.6248 -0.3290  0.1587
 1720TIP3    H126651   5.107   3.044  16.568 -0.6413 -1.2666 -0.6109
 1720TIP3    H226652   5.034   3.137  16.474  1.1475  1.1139  0.2668
 1721TIP3   OH226653   1.635   1.932   5.279 -0.3831 -0.3732 -0.2245
 1721TIP3    H126654   1.658   1.971   5.363 -2.2611  0.8103 -0.2046
 1721TIP3    H226655   1.551   1.972   5.256  1.9798  3.0016 -4.8078
 1722TIP3   OH226656   5.522   3.195  14.136  0.0076  0.4155  0.0731
 1722TIP3    H126657   5.520   3.130  14.066 -0.2268  0.5573 -0.0509
 1722TIP3    H226658   5.474   3.154  14.208 -0.3511  0.5474 -0.0890
 1723TIP3   OH226659   1.863   0.305   3.193  0.1571  0.1117  0.3490
 1723TIP3    H126660   1.786   0.362   3.198 -0.6320 -0.7552 -1.1371
 1723TIP3    H226661   1.875   0.290   3.099 -1.1641 -4.0961  0.6706
 1724TIP3   OH226662   4.837   2.646   5.073 -0.5468 -0.4935 -0.6493
 1724TIP3    H126663   4.895   2.702   5.021 -0.3569 -1.0023 -0.9977
 1724TIP3    H226664   4.784   2.707   5.124  0.2526 -0.0139 -0.3753
 1725TIP3   OH226665   4.510   0.892  14.465 -0.0776 -0.2860  0.5835
 1725TIP3    H126666   4.425   0.848  14.464  0.2815 -1.0186 -1.1959
 1725TIP3    H226667   4.567   0.834  14.516 -0.0728 -1.0107 -0.2144
 1726TIP3   OH226668   3.681   3.468  13.283  0.0175 -0.1196 -0.0394
 1726TIP3    H126669   3.717   3.430  13.363 -0.2544  0.6392  0.4547
 1726TIP3    H226670   3.716   3.557  13.280  0.7694 -0.4258 -1.2603
 1727TIP3   OH226671   5.935   1.326   2.766  0.0739  0.3061  0.5571
 1727TIP3    H126672   5.856   1.282   2.737  0.8422 -0.5948 -0.2459
 1727TIP3    H226673   6.006   1.265   2.745  1.0352  1.3063  0.7745
 1728TIP3   OH226674   0.020   6.099   5.123  1.0336  0.7185  0.1809
 1728TIP3    H126675  -0.054   6.070   5.176  0.1021  0.3193 -1.2892
 1728TIP3    H226676   0.026   6.193   5.139  0.7966  0.5978  1.0053
 1729TIP3   OH226677   2.536   5.786   0.190  0.2521 -0.1477  0.7894
 1729TIP3    H126678   2.561   5.875   0.165  0.7477 -0.4286  0.2438
 1729TIP3    H226679   2.458   5.797   0.244 -0.4503  0.5357 -0.3169
 1730TIP3   OH226680   0.935   6.774  13.926 -0.4479 -0.3777  0.0388
 1730TIP3    H126681   0.873   6.846  13.933  0.3701  0.2943  0.5903
 1730TIP3    H226682   0.975   6.785  13.840  0.1119  0.2019  0.3653
 1731TIP3   OH226683   0.388   5.672  14.292  0.4673 -0.6503 -0.6166
 1731TIP3    H126684   0.368   5.598  14.350  1.6624  1.0445  2.1783
 1731TIP3    H226685   0.364   5.750  14.343  1.2372  0.9695 -2.5895
 1732TIP3   OH226686   1.896   2.599  11.817  0.1525 -0.0994 -0.4282
 1732TIP3    H126687   1.974   2.612  11.762  0.6729 -0.4621  0.2061
 1732TIP3    H226688   1.831   2.659  11.781  0.4814 -0.3327 -1.4402
 1733TIP3   OH226689   2.320   5.630  12.263 -0.0133  0.1950  0.3598
 1733TIP3    H126690   2.406   5.602  12.294 -0.4556 -2.1909 -0.3595
 1733TIP3    H226691   2.337   5.681  12.184  0.7722  0.5960  0.7815
 1734TIP3   OH226692   1.951   0.667   1.558 -0.5279  0.4813  0.2354
 1734TIP3    H126693   1.971   0.575   1.578  0.8547  0.6878 -0.1036
 1734TIP3    H226694   1.871   0.685   1.607  0.0182 -0.4646  1.5416
 1735TIP3   OH226695   6.339   6.727   4.383 -0.4985  0.6806  0.0259
 1735TIP3    H126696   6.310   6.671   4.455 -0.2797  2.2043  1.3526
 1735TIP3    H226697   6.426   6.693   4.359 -0.5923  0.1413  0.4462
 1736TIP3   OH226698   4.879   5.239   5.681  0.2125  0.7578  0.1094
 1736TIP3    H126699   4.788   5.211   5.672  0.4765 -0.1145  0.0071
 1736TIP3    H226700   4.922   5.204   5.603  1.3656 -1.9933  1.8049
 1737TIP3   OH226701   6.069   3.757  14.695 -0.1034  0.1211  0.8806
 1737TIP3    H126702   6.064   3.678  14.748 -2.9980 -0.4132 -0.0175
 1737TIP3    H226703   6.014   3.820  14.741  0.6065  0.9816  0.5770
 1738TIP3   OH226704   1.951   1.934   3.093 -0.2101 -0.4030  0.5058
 1738TIP3    H126705   2.041   1.918   3.122  0.2076  1.3301  0.2857
 1738TIP3    H226706   1.954   1.926   2.998 -0.2558 -0.2382  0.4892
 1739TIP3   OH226707   1.057   2.133  14.169  0.2594  0.3930  0.1340
 1739TIP3    H126708   1.096   2.052  14.204 -0.2889 -0.0949 -0.3640
 1739TIP3    H226709   1.006   2.104  14.094 -0.5359  1.1127  0.3876
 1740TIP3   OH226710   6.206   4.864   0.686 -0.4153  0.4765 -0.1775
 1740TIP3    H126711   6.135   4.907   0.733 -0.0320  1.1580 -0.2019
 1740TIP3    H226712   6.166   4.833   0.605 -1.0710 -0.6759  0.5572
 1741TIP3   OH226713   3.391   4.661  16.791  0.1429  0.1668 -0.6577
 1741TIP3    H126714   3.397   4.684  16.884  0.6907  2.1882 -1.1595
 1741TIP3    H226715   3.398   4.565  16.790 -1.3137 -0.0236  1.4800
 1742TIP3   OH226716   0.301   5.569   0.670  0.0606 -0.2249  0.3830
 1742TIP3    H126717   0.286   5.582   0.764  0.5589 -1.3348  0.6303
 1742TIP3    H226718   0.391   5.538   0.664 -0.5029 -1.8550 -0.2872
 1743TIP3   OH226719   4.914   0.220  15.663 -0.3941  0.1395  0.2307
 1743TIP3    H126720   4.972   0.268  15.722 -0.6351  0.6730  0.0413
 1743TIP3    H226721   4.955   0.227  15.577 -0.2765 -0.2521  0.2524
 1744TIP3   OH226722   2.629   2.628   3.598 -0.7952 -0.7811  0.1193
 1744TIP3    H126723   2.708   2.649   3.549 -1.5770 -0.5980 -1.1121
 1744TIP3    H226724   2.656   2.632   3.689 -0.2284  3.1034 -0.0200
 1745TIP3   OH226725   4.083   0.164  11.584 -0.5077  0.0983  0.0450
 1745TIP3    H126726   4.078   0.162  11.489 -1.0218  2.6190 -0.0611
 1745TIP3    H226727   4.062   0.075  11.612 -0.8948 -0.5506 -2.1714
 1746TIP3   OH226728   5.851   5.123  13.345 -0.2627  0.6680  0.3056
 1746TIP3    H126729   5.791   5.054  13.374 -0.3899  0.3225 -0.7294
 1746TIP3    H226730   5.916   5.077  13.292  0.3198  1.1908  0.5575
 1747TIP3   OH226731   3.589   0.273   3.548  0.2380 -0.1561  1.2095
 1747TIP3    H126732   3.510   0.250   3.598  0.5906 -0.3403  1.6876
 1747TIP3    H226733   3.556   0.295   3.461 -0.4128  0.3977  1.5839
 1748TIP3   OH226734   2.917   1.510  16.176  0.3722  0.0141  0.0172
 1748TIP3    H126735   2.847   1.574  16.184 -1.0210 -1.3430 -0.6137
 1748TIP3    H226736   2.907   1.453  16.252  2.4600  1.2625  1.3220
 1749TIP3   OH226737   4.624   2.752  10.906  0.1279  0.2785  0.6898
 1749TIP3    H126738   4.646   2.671  10.952 -2.3558 -1.0558 -0.3035
 1749TIP3    H226739   4.592   2.723  10.821  0.8929  2.4534 -0.4020
 1750TIP3   OH226740   2.050   0.003  12.746  0.2839  0.2214 -0.0149
 1750TIP3    H126741   2.118   0.070  12.735  0.6784 -0.2370 -0.3996
 1750TIP3    H226742   2.090  -0.078  12.715 -0.3281 -0.1233  0.0692
 1751TIP3   OH226743   6.389   6.060  15.533  0.4425 -0.1463  0.7698
 1751TIP3    H126744   6.367   6.044  15.625 -0.0027 -0.4740  0.6132
 1751TIP3    H226745   6.482   6.080  15.534 -0.0246  2.3319  1.6004
 1752TIP3   OH226746   6.724   1.633  12.654 -0.6484 -0.2908  0.1550
 1752TIP3    H126747   6.689   1.682  12.579  1.7367  1.4362  0.0484
 1752TIP3    H226748   6.703   1.687  12.730 -2.6505 -1.8115  0.7494
 1753TIP3   OH226749   5.404   4.266   5.911 -0.4334  0.2564  0.0035
 1753TIP3    H126750   5.462   4.272   5.834 -0.9134  0.1557 -0.3733
 1753TIP3    H226751   5.402   4.355   5.946  0.1219  0.2146  0.1504
 1754TIP3   OH226752   1.711   3.963   2.624 -0.7546  0.0040 -0.3852
 1754TIP3    H126753   1.796   3.970   2.581  0.0128  1.2405  1.2496
 1754TIP3    H226754   1.686   3.871   2.612  0.5254 -0.2427 -1.4024
 1755TIP3   OH226755   0.961   5.261  12.243  0.2012 -0.1082 -0.6107
 1755TIP3    H126756   0.921   5.263  12.156 -0.7916 -0.9456 -0.1883
 1755TIP3    H226757   0.901   5.311  12.299 -0.5094 -1.6839  0.1032
 1756TIP3   OH226758   6.545   6.579  15.744 -0.1451 -0.8422 -0.8856
 1756TIP3    H126759   6.488   6.653  15.764  0.8696 -0.0619 -0.7921
 1756TIP3    H226760   6.491   6.521  15.691 -2.3781 -2.1291  2.4633
 1757TIP3   OH226761   4.662   6.522  14.538  0.0354 -0.2350  0.8226
 1757TIP3    H126762   4.718   6.522  14.615 -1.3412 -0.1096  1.8588
 1757TIP3    H226763   4.576   6.497  14.571 -0.7570  0.5683 -0.5456
 1758TIP3   OH226764   1.241   5.050  14.605 -0.3383  0.2519  0.2444
 1758TIP3    H126765   1.233   5.006  14.521  0.7376 -0.6716  0.5972
 1758TIP3    H226766   1.187   4.999  14.665 -1.0477  0.8670  0.1358
 1759TIP3   OH226767   0.787   4.526  11.134 -0.0010 -0.2417 -0.3566
 1759TIP3    H126768   0.803   4.441  11.093  0.2777  0.4253 -1.6749
 1759TIP3    H226769   0.730   4.572  11.072  2.8379  1.9360 -1.5842
 1760TIP3   OH226770   6.633   6.603   4.283 -0.2617  0.7992 -0.3116
 1760TIP3    H126771   6.700   6.668   4.305  0.5561 -0.6715  1.8702
 1760TIP3    H226772   6.666   6.560   4.204  0.6467  1.0685 -0.0866
 1761TIP3   OH226773   3.241   5.464  15.569  0.0579 -0.4105  0.5909
 1761TIP3    H126774   3.255   5.531  15.636 -0.7743  0.1304  0.2450
 1761TIP3    H226775   3.309   5.481  15.504  1.0150 -1.0823  1.3817
 1762TIP3   OH226776   2.758   4.541   6.190 -0.3436 -0.1535  0.0367
 1762TIP3    H126777   2.816   4.487   6.135 -1.6149 -0.1105 -1.3920
 1762TIP3    H226778   2.673   4.537   6.147 -0.9248  1.4829  0.9492
 1763TIP3   OH226779   0.881   1.304  15.436 -0.1065 -0.1236  0.1715
 1763TIP3    H126780   0.832   1.222  15.445  1.0764 -0.9642 -0.6466
 1763TIP3    H226781   0.950   1.298  15.502  0.0650  0.1339  0.0179
 1764TIP3   OH226782   1.296   6.044  15.858  0.4096  0.2893 -0.1856
 1764TIP3    H126783   1.242   6.098  15.800  0.5946  0.5212 -0.1402
 1764TIP3    H226784   1.260   5.955  15.848  1.1059  0.1235 -1.4696
 1765TIP3   OH226785   1.360   6.468   5.514  0.6016 -0.1650  0.4123
 1765TIP3    H126786   1.379   6.463   5.608  0.6988 -2.2409  0.3286
 1765TIP3    H226787   1.380   6.381   5.481 -1.9395 -0.3090 -1.0579
 1766TIP3   OH226788   0.601   0.457  13.862 -0.4657 -0.7210  0.0061
 1766TIP3    H126789   0.638   0.378  13.821 -0.6393  0.2510 -2.1676
 1766TIP3    H226790   0.526   0.425  13.912 -0.8378 -1.8938 -1.2464
 1767TIP3   OH226791   3.425   4.574  12.964  0.4544  0.2595  0.2422
 1767TIP3    H126792   3.380   4.526  13.034  1.3498 -1.2419 -0.1653
 1767TIP3    H226793   3.448   4.659  13.004 -0.9115  0.2625  1.0748
 1768TIP3   OH226794   2.115   6.400  15.061 -0.1339  0.5238  0.2190
 1768TIP3    H126795   2.095   6.307  15.053  1.0432  0.2346  0.4854
 1768TIP3    H226796   2.116   6.433  14.971  1.3898 -0.1584 -0.0366
 1769TIP3   OH226797   1.994   3.167  10.874  0.1612  0.0858  0.6139
 1769TIP3    H126798   2.066   3.175  10.936  1.6557  0.7975 -1.1308
 1769TIP3    H226799   2.036   3.160  10.789 -1.8118 -0.9958 -0.3549
 1770TIP3   OH226800   2.161   1.434  14.034  0.3908  0.1955  0.1496
 1770TIP3    H126801   2.070   1.419  14.010  0.9218 -0.5397 -1.5898
 1770TIP3    H226802   2.159   1.513  14.088 -1.2874  0.0187  0.4013
 1771TIP3   OH226803   2.227   3.551   2.959 -0.2504  0.1788  0.8047
 1771TIP3    H126804   2.139   3.523   2.984 -0.7416 -1.7295 -2.5287
 1771TIP3    H226805   2.218   3.644   2.940 -2.3752 -0.4843 -2.1009
 1772TIP3   OH226806   2.375   3.469  12.427 -0.6682 -0.3546  0.4022
 1772TIP3    H126807   2.432   3.393  12.433  0.7271  0.6512  0.2740
 1772TIP3    H226808   2.396   3.509  12.343  1.4715  2.2887  2.0211
 1773TIP3   OH226809   3.299   6.274   3.274 -0.2159  0.5013  0.3945
 1773TIP3    H126810   3.210   6.268   3.309 -0.5601  0.7061 -0.4171
 1773TIP3    H226811   3.287   6.277   3.179  0.4526  3.5271  0.3041
 1774TIP3   OH226812   4.702   2.756  11.262 -0.4996 -0.1389 -0.2106
 1774TIP3    H126813   4.659   2.790  11.340  1.0481  0.9435  0.2342
 1774TIP3    H226814   4.694   2.826  11.197  2.5179  1.1637  0.6366
 1775TIP3   OH226815   1.665   4.514  16.854 -0.2293  0.0399 -0.1689
 1775TIP3    H126816   1.598   4.511  16.786 -1.2010 -0.7948  0.7954
 1775TIP3    H226817   1.685   4.423  16.873 -0.2497  0.2428  0.9105
 1776TIP3   OH226818   0.219   3.791  15.869  0.8461 -0.0107  0.4049
 1776TIP3    H126819   0.190   3.763  15.955 -1.4458  1.7526  0.2770
 1776TIP3    H226820   0.231   3.709  15.820 -1.3879 -0.9588  1.3217
 1777TIP3   OH226821   5.101   2.747   2.186  0.6098  0.2911 -0.5204
 1777TIP3    H126822   5.196   2.753   2.178  0.6637  0.5940  0.2127
 1777TIP3    H226823   5.070   2.837   2.185  0.3985  0.2297 -0.1156
 1778TIP3   OH226824   3.222   5.650  14.207  0.0576  0.1622 -0.3493
 1778TIP3    H126825   3.210   5.735  14.166 -0.8929  0.3559  0.3207
 1778TIP3    H226826   3.299   5.614  14.163 -0.3073  0.8011 -1.5632
 1779TIP3   OH226827   0.938   1.490   4.102  0.2568  0.0814  0.2345
 1779TIP3    H126828   0.875   1.433   4.145  0.4415  0.5654  1.1532
 1779TIP3    H226829   0.894   1.574   4.093  0.6323  0.3138  0.5348
 1780TIP3   OH226830   4.283   1.008  13.316 -0.0290  0.3997 -0.0233
 1780TIP3    H126831   4.282   0.924  13.362  0.1837  0.6069  0.3694
 1780TIP3    H226832   4.239   1.068  13.376 -1.3106  0.3001 -0.8467
 1781TIP3   OH226833   3.888   3.976   3.075 -0.2468 -0.1435 -0.3374
 1781TIP3    H126834   3.981   3.998   3.077  0.1299 -1.3113 -2.0895
 1781TIP3    H226835   3.867   3.951   3.165  0.6327  1.8987  0.4874
 1782TIP3   OH226836   3.796   3.366   4.692 -0.7243  0.0158  0.2883
 1782TIP3    H126837   3.886   3.392   4.710 -1.2641  1.6969  0.7911
 1782TIP3    H226838   3.799   3.271   4.680  1.2668  0.1793 -0.7760
 1783TIP3   OH226839   4.149   5.040   4.658 -0.2655 -0.1356 -0.3480
 1783TIP3    H126840   4.180   4.988   4.584  0.1767  0.8232 -0.8514
 1783TIP3    H226841   4.211   5.113   4.664 -1.7106  1.1520 -0.5871
 1784TIP3   OH226842   6.209   5.567  15.680  0.4813 -0.1502  0.5780
 1784TIP3    H126843   6.228   5.482  15.721 -1.6912  0.0407  2.1625
 1784TIP3    H226844   6.187   5.624  15.753  0.2645  1.3454 -0.6081
 1785TIP3   OH226845   6.103   0.471   5.819 -0.0088 -0.2277 -0.9198
 1785TIP3    H126846   6.191   0.502   5.842  0.1339 -1.1179 -0.2606
 1785TIP3    H226847   6.044   0.518   5.879  0.2232 -1.3132  0.1938
 1786TIP3   OH226848   3.026   5.019   5.079 -0.0352  0.5572 -0.7403
 1786TIP3    H126849   3.074   5.091   5.039  0.5955  0.3673 -0.3491
 1786TIP3    H226850   3.042   5.028   5.173  0.0414 -0.0786 -0.6847
 1787TIP3   OH226851   4.057   0.333  16.316  0.0331 -0.5617 -0.4472
 1787TIP3    H126852   4.045   0.358  16.407  0.7770 -0.9920 -0.2257
 1787TIP3    H226853   4.148   0.306  16.309 -0.3484 -1.8320 -1.0008
 1788TIP3   OH226854   3.474   2.084   3.920  0.0164 -0.2228 -0.1551
 1788TIP3    H126855   3.414   2.051   3.987  1.6784 -0.3155  1.3745
 1788TIP3    H226856   3.494   2.007   3.866 -0.0798 -0.5331  0.2458
 1789TIP3   OH226857   0.787   1.434   3.207  0.8112 -0.2066 -0.4711
 1789TIP3    H126858   0.759   1.467   3.293 -2.8531 -1.6503 -0.9354
 1789TIP3    H226859   0.833   1.352   3.227  0.3139 -0.3436  0.1484
 1790TIP3   OH226860   1.069   1.046  13.054  0.0626  0.3555  0.2508
 1790TIP3    H126861   1.129   1.120  13.051 -0.1427  0.5189  0.0833
 1790TIP3    H226862   1.125   0.969  13.061  0.2944  0.5049  0.0495
 1791TIP3   OH226863   1.578   3.103   3.924 -0.3656 -0.5151 -0.3165
 1791TIP3    H126864   1.653   3.164   3.922  0.1012 -1.0722 -0.1826
 1791TIP3    H226865   1.539   3.111   3.837  0.2401 -0.6806 -0.6168
 1792TIP3   OH226866   5.709   1.836   2.238  0.2145  0.0618 -0.1744
 1792TIP3    H126867   5.779   1.802   2.181  1.7903  1.0312  1.0822
 1792TIP3    H226868   5.713   1.931   2.226  0.1377  0.2298  1.0212
 1793TIP3   OH226869   2.555   5.106  14.385  0.3969 -0.3617  0.0121
 1793TIP3    H126870   2.459   5.101  14.380  0.1927  2.5904 -1.7118
 1793TIP3    H226871   2.586   5.023  14.348 -1.5136 -0.6879 -0.9871
 1794TIP3   OH226872   6.101   4.506   4.849 -0.4095  1.1694  0.0691
 1794TIP3    H126873   6.155   4.488   4.926 -1.0708 -0.9796  0.1107
 1794TIP3    H226874   6.027   4.446   4.859  0.5240 -0.7688 -3.2821
 1795TIP3   OH226875   5.488   4.804   2.813 -0.0181 -0.1045 -0.1308
 1795TIP3    H126876   5.526   4.891   2.826  0.7905 -0.3765 -0.6079
 1795TIP3    H226877   5.447   4.809   2.727  0.6032 -0.3792 -0.4553
 1796TIP3   OH226878   5.906   6.563   0.629  0.4856  0.7278  0.2727
 1796TIP3    H126879   5.835   6.525   0.681  1.7367  0.1761  1.6398
 1796TIP3    H226880   5.981   6.505   0.644  0.6446 -0.1451 -3.1122
 1797TIP3   OH226881   0.362   5.523  11.840 -0.3378 -0.5525 -0.3726
 1797TIP3    H126882   0.385   5.457  11.774 -0.0059  0.5668 -1.4214
 1797TIP3    H226883   0.441   5.575  11.851 -0.9287  0.3994 -0.4553
 1798TIP3   OH226884   4.110   1.614   4.995 -0.6023 -0.0789  0.4967
 1798TIP3    H126885   4.123   1.519   4.985 -0.0541  0.0696 -0.2402
 1798TIP3    H226886   4.175   1.641   5.060 -0.1459 -0.0585  0.0328
 1799TIP3   OH226887   0.227   0.310   4.193  0.6746  0.3562 -0.3607
 1799TIP3    H126888   0.308   0.329   4.240  1.3478  0.5527 -1.5520
 1799TIP3    H226889   0.159   0.310   4.261  1.8932 -1.6756  0.9916
 1800TIP3   OH226890   1.839   0.011  16.698  0.3229 -0.2580 -0.8473
 1800TIP3    H126891   1.878  -0.011  16.783  0.9268  2.4489 -0.3471
 1800TIP3    H226892   1.910  -0.001  16.635  0.6547  0.3099 -0.5837
 1801TIP3   OH226893   2.716   5.290   1.187 -0.2704  0.3454 -0.8220
 1801TIP3    H126894   2.710   5.206   1.233 -1.6612  0.2128 -1.1950
 1801TIP3    H226895   2.809   5.300   1.167  0.1226 -0.3901  0.5293
 1802TIP3   OH226896   1.642   3.400  15.459  0.0537 -0.8422  0.6488
 1802TIP3    H126897   1.591   3.450  15.395 -0.5721  0.2268  1.9349
 1802TIP3    H226898   1.705   3.463  15.493  0.1581 -1.3092  1.3183
 1803TIP3   OH226899   1.014   3.276  11.556 -0.3147 -0.1348 -0.3291
 1803TIP3    H126900   1.056   3.289  11.641  0.2987  1.5287 -0.8419
 1803TIP3    H226901   0.933   3.229  11.575 -1.2346  2.0124  1.4576
 1804TIP3   OH226902   1.900   1.871   1.491 -0.3311 -0.3570  0.7530
 1804TIP3    H126903   1.863   1.786   1.468  0.7254 -0.4395 -0.7549
 1804TIP3    H226904   1.928   1.909   1.408  1.6844  0.2815  1.6633
 1805TIP3   OH226905   3.180   3.388   3.834 -0.1204  0.1855 -0.4478
 1805TIP3    H126906   3.246   3.437   3.785  1.2131 -0.3883  0.6971
 1805TIP3    H226907   3.227   3.310   3.865 -1.4647 -0.4588  0.0380
 1806TIP3   OH226908   1.076   3.272  14.677  0.4194 -0.9585 -0.2687
 1806TIP3    H126909   1.040   3.184  14.679 -1.8299 -0.1571 -1.4956
 1806TIP3    H226910   1.009   3.327  14.716  1.7601  0.2509  0.4533
 1807TIP3   OH226911   3.203   6.270   2.324  0.3948 -0.0102 -0.0850
 1807TIP3    H126912   3.114   6.290   2.292 -0.1889 -0.2709  1.2954
 1807TIP3    H226913   3.254   6.348   2.303  0.0428 -0.1612 -1.5940
 1808TIP3   OH226914   0.551   1.556  13.594  0.0527 -0.0081  0.1017
 1808TIP3    H126915   0.626   1.614  13.603 -0.0956  0.6513 -2.3037
 1808TIP3    H226916   0.589   1.468  13.595  0.4625  0.1410  1.9915
 1809TIP3   OH226917   6.111   4.683  14.535  0.4868 -0.0034  0.1357
 1809TIP3    H126918   6.172   4.725  14.474  2.0675 -1.6972  0.4433
 1809TIP3    H226919   6.026   4.688  14.491  1.6753 -1.9172 -2.7029
 1810TIP3   OH226920   1.824   5.906   1.444 -0.7005  0.2259  0.0087
 1810TIP3    H126921   1.743   5.894   1.494 -2.0307  0.3421 -2.0032
 1810TIP3    H226922   1.881   5.835   1.472 -2.1368 -0.8510  0.3081
 1811TIP3   OH226923   2.938   1.958  11.542 -0.4302 -0.5923 -0.1083
 1811TIP3    H126924   2.860   1.925  11.497 -0.5622 -2.4120  1.3394
 1811TIP3    H226925   2.905   2.021  11.605 -0.5368 -0.1597 -0.5855
 1812TIP3   OH226926   3.852   1.066  12.092  0.0839  0.4511  0.6167
 1812TIP3    H126927   3.835   0.973  12.107  0.0663  0.2765 -0.4297
 1812TIP3    H226928   3.784   1.093  12.030 -1.4086  1.7590  2.6941
 1813TIP3   OH226929   4.100   2.432  15.735  0.0595  0.1812  0.7034
 1813TIP3    H126930   4.191   2.439  15.760 -0.3118  1.6398  1.7762
 1813TIP3    H226931   4.085   2.507  15.678  0.0334 -1.2426 -1.2977
 1814TIP3   OH226932   0.748   5.008   0.593 -0.6844 -0.4123  0.2099
 1814TIP3    H126933   0.707   5.017   0.680  0.7931  1.1393  0.7925
 1814TIP3    H226934   0.735   5.093   0.551  3.0538  0.7102  0.9962
 1815TIP3   OH226935   6.790   0.678   4.507 -0.3391  0.1558  0.4612
 1815TIP3    H126936   6.734   0.721   4.443 -1.4531 -0.7609  0.7622
 1815TIP3    H226937   6.836   0.749   4.552  0.2607  0.8187 -1.1522
 1816TIP3   OH226938   6.454   6.527   0.043  0.3117  0.8450  0.3113
 1816TIP3    H126939   6.428   6.579   0.120 -1.8708  1.1324 -0.5598
 1816TIP3    H226940   6.457   6.590  -0.029 -0.8099  0.0740 -0.4442
 1817TIP3   OH226941   0.293   4.446  16.637  0.3068  0.1955  0.1743
 1817TIP3    H126942   0.261   4.357  16.648 -1.4144  0.9035  1.5184
 1817TIP3    H226943   0.292   4.461  16.543  0.3064 -1.0789 -0.0419
 1818TIP3   OH226944   2.737   5.448  12.138 -0.5324 -0.5090 -0.0686
 1818TIP3    H126945   2.795   5.388  12.185  0.0901 -0.4669 -0.7579
 1818TIP3    H226946   2.659   5.395  12.117 -0.0915 -1.0163 -0.4655
 1819TIP3   OH226947   5.082   4.136   2.234  0.3731  0.1078  0.6903
 1819TIP3    H126948   5.033   4.091   2.303 -0.3385  0.9085  0.7247
 1819TIP3    H226949   5.136   4.068   2.195 -0.1995 -0.6408  1.1671
 1820TIP3   OH226950   3.350   1.646   4.259 -0.1708 -0.2336 -0.1021
 1820TIP3    H126951   3.402   1.617   4.183 -0.7369  0.4573 -0.7717
 1820TIP3    H226952   3.276   1.693   4.221  0.9162  2.5069  0.8945
 1821TIP3   OH226953   0.309   2.516   2.364  0.0135 -0.1215 -0.0857
 1821TIP3    H126954   0.223   2.492   2.330  0.5946 -0.4581 -1.3935
 1821TIP3    H226955   0.291   2.553   2.450 -1.4487 -0.0918 -0.3701
 1822TIP3   OH226956   6.817   6.398   1.718 -0.7642  0.3046 -0.6071
 1822TIP3    H126957   6.874   6.398   1.796  0.3537 -0.3502 -1.3903
 1822TIP3    H226958   6.744   6.340   1.741 -0.6277  0.4033  0.0852
 1823TIP3   OH226959   1.917   5.875   6.606 -0.0120  0.1522 -0.4406
 1823TIP3    H126960   1.896   5.891   6.514 -0.7521  0.6308 -0.2017
 1823TIP3    H226961   1.937   5.962   6.641  0.6321 -0.0732 -0.2307
 1824TIP3   OH226962   6.157   5.435  10.963 -0.2445 -0.1207  0.2781
 1824TIP3    H126963   6.175   5.497  10.891  0.3598 -0.0917  0.4510
 1824TIP3    H226964   6.213   5.360  10.945  1.3163  0.6447  1.7024
 1825TIP3   OH226965   5.230   1.449   1.776  0.2499 -0.1349  0.2153
 1825TIP3    H126966   5.268   1.374   1.728  1.9416  0.8058 -0.0018
 1825TIP3    H226967   5.138   1.427   1.785  0.4529 -1.6818 -0.9528
 1826TIP3   OH226968   3.671   2.328   0.017 -0.2463 -0.0218 -0.6417
 1826TIP3    H126969   3.636   2.397  -0.038  0.0798  3.5896  3.1656
 1826TIP3    H226970   3.760   2.313  -0.016 -1.0625 -0.3231 -2.8538
 1827TIP3   OH226971   0.780   4.799  16.923  0.0921 -0.8320  0.6739
 1827TIP3    H126972   0.780   4.882  16.876 -2.4097 -0.5363  1.0616
 1827TIP3    H226973   0.808   4.822  17.012 -0.3352 -0.4538  0.7126
 1828TIP3   OH226974   0.460   4.779  16.978 -0.2643  0.1214  0.1984
 1828TIP3    H126975   0.486   4.857  16.930  0.0827  0.7858  1.4202
 1828TIP3    H226976   0.401   4.732  16.919 -0.3892  1.2446 -0.5876
 1829TIP3   OH226977   2.860   3.042  15.974  0.1313 -0.0500  0.7022
 1829TIP3    H126978   2.859   3.127  16.018 -0.4062  0.0902  0.4334
 1829TIP3    H226979   2.866   3.064  15.881  2.2083 -0.3607  0.7219
 1830TIP3   OH226980   5.209   6.809  13.164 -0.3609 -0.2070 -0.3680
 1830TIP3    H126981   5.268   6.877  13.133 -1.8191  2.0938  1.5550
 1830TIP3    H226982   5.125   6.828  13.122 -0.8251 -0.6966  0.3121
 1831TIP3   OH226983   1.098   0.265   5.134 -0.4386 -0.6628  0.2221
 1831TIP3    H126984   1.133   0.230   5.216 -1.2656 -1.0307  0.4266
 1831TIP3    H226985   1.129   0.205   5.066 -1.4131 -1.5003  0.5075
 1832TIP3   OH226986   4.062   4.483   4.084  0.3178  0.0118  0.3207
 1832TIP3    H126987   4.106   4.508   4.002  0.3749  1.2960  0.7261
 1832TIP3    H226988   4.068   4.388   4.086 -0.7510 -0.1693 -1.7818
 1833TIP3   OH226989   1.914   1.366   4.455 -0.4692 -0.1740  0.4130
 1833TIP3    H126990   1.988   1.322   4.495  0.1947  1.8254  1.5314
 1833TIP3    H226991   1.938   1.374   4.362  2.6508  3.6785  1.2561
 1834TIP3   OH226992   4.304   0.126  16.763 -0.4094  0.3140 -0.6716
 1834TIP3    H126993   4.393   0.155  16.745  0.1892  0.0237  1.4658
 1834TIP3    H226994   4.281   0.070  16.689  1.0665  0.6543 -1.4115
 1835TIP3   OH226995   5.664   3.498   2.562  0.1087 -0.2653  0.2584
 1835TIP3    H126996   5.758   3.507   2.577  0.2811  0.0676 -0.8746
 1835TIP3    H226997   5.623   3.527   2.643  0.9940 -0.9702  0.9773
 1836TIP3   OH226998   4.311   6.745  13.095 -0.3998 -0.1125 -0.3914
 1836TIP3    H126999   4.268   6.805  13.034 -3.8410 -1.7687  0.1541
 1836TIP3    H227000   4.266   6.761  13.179  2.8237  0.7119  1.3365
 1837TIP3   OH227001   2.635   4.637  16.670  0.2547 -0.3664 -0.2519
 1837TIP3    H127002   2.553   4.589  16.682 -0.7494  1.1285 -0.7996
 1837TIP3    H227003   2.609   4.717  16.625  1.7971  0.8365  0.8732
 1838TIP3   OH227004   4.699   2.170  13.385  0.4475  0.2465  0.3829
 1838TIP3    H127005   4.635   2.140  13.321 -1.0101  0.1847  1.8080
 1838TIP3    H227006   4.757   2.095  13.397  0.5430  0.1460 -0.5972
 1839TIP3   OH227007   0.470   6.316   4.519  0.1547 -0.0272  0.0618
 1839TIP3    H127008   0.393   6.274   4.481 -0.7464  0.0209  1.7389
 1839TIP3    H227009   0.436   6.364   4.595  1.7002  0.7667  0.2880
 1840TIP3   OH227010   2.070   4.552  16.217 -0.0017  0.1642  0.5813
 1840TIP3    H127011   2.097   4.601  16.139  0.6904  0.9155  1.2798
 1840TIP3    H227012   2.066   4.461  16.188  0.8763  0.3508 -0.1736
 1841TIP3   OH227013   0.672   4.608  10.880 -0.1912  0.0439  0.1952
 1841TIP3    H127014   0.712   4.688  10.846 -0.4652  0.1409  0.0934
 1841TIP3    H227015   0.633   4.567  10.804 -0.8232  0.2705  0.3896
 1842TIP3   OH227016   6.500   0.622  16.767 -0.1578  0.3551  0.5675
 1842TIP3    H127017   6.528   0.574  16.845  0.5311 -0.2427 -0.0332
 1842TIP3    H227018   6.489   0.554  16.701  0.3721  0.9794 -0.1706
 1843TIP3   OH227019   1.076   4.904  14.866 -0.3691  0.1226  0.0870
 1843TIP3    H127020   1.091   4.836  14.932  0.4390  1.0000  0.8327
 1843TIP3    H227021   1.078   4.857  14.782 -0.8701 -0.9216  0.6475
 1844TIP3   OH227022   5.388   0.330   4.207 -1.3512  0.2351 -0.4442
 1844TIP3    H127023   5.393   0.387   4.285 -0.7165 -0.6424  0.1717
 1844TIP3    H227024   5.304   0.352   4.168 -2.1360  0.0286  1.0330
 1845TIP3   OH227025   0.332   5.938   0.844 -0.0732  0.4885  0.1530
 1845TIP3    H127026   0.312   5.912   0.934 -0.3927  1.1886  0.2965
 1845TIP3    H227027   0.388   5.868   0.810 -1.4173 -0.6813  0.2924
 1846TIP3   OH227028   4.801   1.800  15.125  0.2015  0.0371  0.3245
 1846TIP3    H127029   4.822   1.887  15.089  0.3425  0.4995  1.4956
 1846TIP3    H227030   4.712   1.783  15.095  0.2232  0.5164 -0.0341
 1847TIP3   OH227031   2.400   2.159   3.873 -0.0405 -0.6255  0.2728
 1847TIP3    H127032   2.407   2.083   3.931 -1.7406  0.2932  1.7811
 1847TIP3    H227033   2.463   2.222   3.908  2.3279 -1.7286 -1.7623
 1848TIP3   OH227034   2.043   3.718   6.800 -0.5928 -0.0974  0.2623
 1848TIP3    H127035   2.076   3.739   6.712 -0.7685  0.0854  0.2410
 1848TIP3    H227036   1.950   3.741   6.797 -0.3205  1.1854  0.9144
 1849TIP3   OH227037   2.599   3.442  16.018 -0.6294 -0.2430 -0.5767
 1849TIP3    H127038   2.530   3.466  15.956 -1.7412  1.2607  1.1329
 1849TIP3    H227039   2.671   3.501  15.996 -1.7458  1.7340  0.7464
 1850TIP3   OH227040   2.031   5.803  13.503  0.1087 -0.4662 -0.5301
 1850TIP3    H127041   1.986   5.886  13.519 -0.6608 -0.9973  0.1258
 1850TIP3    H227042   2.094   5.823  13.434  1.0765  1.0544  0.7376
 1851TIP3   OH227043   4.232   0.552   6.186 -0.0746  0.5648  0.0888
 1851TIP3    H127044   4.283   0.628   6.157  2.3822 -1.2454 -0.6670
 1851TIP3    H227045   4.244   0.550   6.281  1.3809  0.1287 -0.0856
 1852TIP3   OH227046   5.467   6.778   3.602  0.1454 -0.1333  0.1681
 1852TIP3    H127047   5.478   6.856   3.547  1.0778 -0.9455 -0.8485
 1852TIP3    H227048   5.464   6.812   3.691 -2.5678  1.3323 -0.3848
 1853TIP3   OH227049   1.484   6.365  16.523  0.2903  0.0516 -0.2766
 1853TIP3    H127050   1.450   6.435  16.468 -0.1321  0.8328  0.9405
 1853TIP3    H227051   1.409   6.308  16.539  0.3006  0.0688 -0.1602
 1854TIP3   OH227052   0.843   0.902   2.586 -0.1232 -0.9301  0.0894
 1854TIP3    H127053   0.879   0.911   2.674 -0.2875  0.2655  0.0535
 1854TIP3    H227054   0.758   0.861   2.600 -0.8846  0.7488  0.6890
 1855TIP3   OH227055   6.087   2.206  15.515  0.7167  0.0305  0.4445
 1855TIP3    H127056   6.102   2.292  15.476  2.6610 -0.4105  0.1470
 1855TIP3    H227057   6.097   2.221  15.609 -0.0122  0.3225  0.4813
 1856TIP3   OH227058   0.161   5.252  11.244 -0.6104 -0.0179  0.4120
 1856TIP3    H127059   0.069   5.262  11.269 -1.4241 -3.1106 -0.9663
 1856TIP3    H227060   0.165   5.287  11.155 -0.9641 -1.7500 -0.3059
 1857TIP3   OH227061   4.373   3.782  13.964  0.6107  0.2516  0.3988
 1857TIP3    H127062   4.372   3.794  14.058 -0.8665 -0.3032  0.4748
 1857TIP3    H227063   4.300   3.834  13.931 -0.6534 -1.7315 -0.1095
 1858TIP3   OH227064   6.444   5.847  15.135  0.0713 -0.0583  0.3231
 1858TIP3    H127065   6.419   5.787  15.205  2.7562 -0.6386  0.8724
 1858TIP3    H227066   6.536   5.866  15.151  0.6556  0.1928 -2.7554
 1859TIP3   OH227067   6.567   6.816   3.961  0.6988  0.0970 -0.0625
 1859TIP3    H127068   6.576   6.779   3.874  1.9910 -0.0729  0.1247
 1859TIP3    H227069   6.654   6.850   3.982  0.6593 -0.6636  1.5133
 1860TIP3   OH227070   6.748   2.675   4.713 -0.0405 -0.3392  0.0633
 1860TIP3    H127071   6.836   2.653   4.681  0.0576  1.7261 -1.3431
 1860TIP3    H227072   6.763   2.721   4.795  0.3562  1.1532 -0.8020
 1861TIP3   OH227073   5.376   2.658   2.141  0.4381 -0.1092 -0.1158
 1861TIP3    H127074   5.423   2.740   2.153  0.1796 -0.1141  1.1538
 1861TIP3    H227075   5.402   2.605   2.217  0.0127 -0.9050 -0.5162
 1862TIP3   OH227076   6.324   1.768   5.127 -0.6031 -0.6042 -0.1552
 1862TIP3    H127077   6.416   1.743   5.130 -1.2790 -3.4809  0.0330
 1862TIP3    H227078   6.317   1.823   5.050  1.1449 -1.0195 -0.6631
 1863TIP3   OH227079   3.047   4.960  15.079  0.0507 -0.1598 -0.0672
 1863TIP3    H127080   3.096   5.039  15.102  1.2775 -1.0832  0.6606
 1863TIP3    H227081   2.989   4.986  15.007  1.0330  1.1842 -0.3932
 1864TIP3   OH227082   3.968   0.908   1.704  0.2118 -0.0191  0.2781
 1864TIP3    H127083   4.046   0.888   1.653  0.8256  2.4201  0.1310
 1864TIP3    H227084   3.916   0.964   1.647 -1.1832 -0.7671  0.7718
 1865TIP3   OH227085   6.778   2.147  13.673 -0.0245 -0.1350 -0.0984
 1865TIP3    H127086   6.782   2.058  13.640  1.4870  0.2113 -0.9313
 1865TIP3    H227087   6.686   2.159  13.699 -0.0516 -2.2522  1.0102
 1866TIP3   OH227088   6.189   3.928   5.602  0.5704 -0.6666  0.4880
 1866TIP3    H127089   6.183   3.903   5.694  0.3136 -0.1510  0.6203
 1866TIP3    H227090   6.133   3.866   5.556  1.5736 -1.6186  0.5306
 1867TIP3   OH227091   0.177   1.251   9.881  0.6327 -0.2279  0.4922
 1867TIP3    H127092   0.243   1.263   9.813 -1.6006  0.9227 -1.6504
 1867TIP3    H227093   0.213   1.295   9.958  1.7380  1.7771 -1.0641
 1868TIP3   OH227094   3.225   5.158  13.398  0.3517 -0.1810 -0.6701
 1868TIP3    H127095   3.150   5.099  13.389 -0.8403  1.1401  0.0947
 1868TIP3    H227096   3.270   5.127  13.476 -2.3717  1.9481  2.0194
 1869TIP3   OH227097   0.485   6.213   1.951 -0.4173  0.0770  0.3832
 1869TIP3    H127098   0.460   6.285   2.009 -0.4558  1.6176 -1.4608
 1869TIP3    H227099   0.577   6.227   1.932 -0.4783 -0.2221 -0.1658
 1870TIP3   OH227100   5.962   0.647   1.195  0.4236  0.5163 -0.9333
 1870TIP3    H127101   5.945   0.605   1.280 -2.3638 -0.3036 -1.7742
 1870TIP3    H227102   5.988   0.736   1.218  1.3472 -0.1449  0.7957
 1871TIP3   OH227103   2.083   0.714   2.353  0.3252 -0.2702  0.0736
 1871TIP3    H127104   2.167   0.679   2.382  0.1387 -1.6025 -0.9099
 1871TIP3    H227105   2.105   0.788   2.296  0.9073 -1.5636 -1.4212
 1872TIP3   OH227106   3.941   3.021  12.042 -0.0793  0.5969 -0.3145
 1872TIP3    H127107   3.895   3.074  12.108  1.6962  1.1952  0.5155
 1872TIP3    H227108   4.034   3.031  12.064  0.4043 -1.6304 -1.0954
 1873TIP3   OH227109   0.336   5.124  11.442 -0.0605 -0.7586  0.1198
 1873TIP3    H127110   0.285   5.189  11.394  1.3285 -2.3411 -3.9294
 1873TIP3    H227111   0.271   5.065  11.480 -1.2916 -0.2007 -1.0287
 1874TIP3   OH227112   4.455   2.344   3.919 -0.3634  0.0645  0.5552
 1874TIP3    H127113   4.425   2.389   3.840 -0.7626  0.1638  0.7581
 1874TIP3    H227114   4.518   2.404   3.959 -2.0031  1.1647  1.6245
 1875TIP3   OH227115   5.857   2.828   3.199 -0.2313  0.1438  0.1138
 1875TIP3    H127116   5.838   2.739   3.172  2.0185 -0.8135  1.4607
 1875TIP3    H227117   5.809   2.839   3.282 -0.2922  0.1124  0.0826
 1876TIP3   OH227118   6.494   4.359  14.245  0.7511  0.0539  0.0792
 1876TIP3    H127119   6.432   4.426  14.273  0.8113 -0.3448  1.2064
 1876TIP3    H227120   6.440   4.280  14.232  0.9151 -0.1035  0.3529
 1877TIP3   OH227121   0.507   6.027  15.947 -0.7814 -0.2546 -0.4191
 1877TIP3    H127122   0.524   5.950  16.001 -0.8033  0.1176  0.1371
 1877TIP3    H227123   0.415   6.048  15.965 -0.4367  0.6176  0.3887
 1878TIP3   OH227124   1.947   1.286  13.802  0.0579 -0.5876 -0.6926
 1878TIP3    H127125   1.852   1.281  13.816  0.1373  1.0645  0.7418
 1878TIP3    H227126   1.957   1.344  13.727 -0.0455 -0.8279 -0.8967
 1879TIP3   OH227127   5.679   0.402  14.010 -0.1467  0.0036  0.3768
 1879TIP3    H127128   5.684   0.485  13.963  2.8244  1.1156  2.3556
 1879TIP3    H227129   5.735   0.343  13.960  0.5704  0.2857  0.8262
 1880TIP3   OH227130   2.728   5.395  11.812  0.2456  0.2714 -0.2103
 1880TIP3    H127131   2.782   5.474  11.820  1.8107 -0.6611 -1.0016
 1880TIP3    H227132   2.685   5.405  11.727  1.3890 -0.2289 -0.8828
 1881TIP3   OH227133   1.175   3.098   1.861 -0.2998  0.2432 -0.7189
 1881TIP3    H127134   1.226   3.167   1.904  0.1971 -0.3097 -0.4147
 1881TIP3    H227135   1.111   3.146   1.808 -2.5160  0.9980  2.4043
 1882TIP3   OH227136   0.283   4.551   5.829 -0.3564 -0.0670  0.3433
 1882TIP3    H127137   0.353   4.490   5.804 -1.5404 -1.6197  0.6418
 1882TIP3    H227138   0.255   4.521   5.915 -1.2231  0.6828  0.3386
 1883TIP3   OH227139   4.983   2.720   0.053  0.5363  0.3795  0.2184
 1883TIP3    H127140   5.015   2.634   0.027  1.9667  1.0442 -0.3237
 1883TIP3    H227141   5.040   2.746   0.126 -0.0705  0.7553  0.5679
 1884TIP3   OH227142   2.154   5.895   4.656 -0.3905 -0.0587 -0.4711
 1884TIP3    H127143   2.166   5.937   4.741 -0.4911  0.4169 -0.6852
 1884TIP3    H227144   2.063   5.912   4.633  0.3067  2.2762 -1.9243
 1885TIP3   OH227145   0.883   0.065   5.341 -0.3828 -0.5277 -0.3923
 1885TIP3    H127146   0.806   0.073   5.284 -0.2494  0.8797 -0.4106
 1885TIP3    H227147   0.903   0.155   5.367  0.6689 -0.9708  0.4119
 1886TIP3   OH227148   3.313   1.483   5.629 -0.0127 -0.1176  0.0158
 1886TIP3    H127149   3.344   1.406   5.583  0.1291 -1.7448  2.6522
 1886TIP3    H227150   3.392   1.526   5.661 -0.1631 -0.1933  0.5070
 1887TIP3   OH227151   0.163   2.954  12.158 -0.0182  0.4725 -0.7556
 1887TIP3    H127152   0.174   2.953  12.254 -0.5155  2.0606 -0.6579
 1887TIP3    H227153   0.083   2.905  12.143  1.2513 -1.7853 -0.5863
 1888TIP3   OH227154   4.398   5.181  11.416 -0.0453  0.0242  0.3154
 1888TIP3    H127155   4.308   5.159  11.443 -0.2257 -0.2990 -0.4956
 1888TIP3    H227156   4.446   5.098  11.425 -0.2038 -0.1939 -0.6876
 1889TIP3   OH227157   2.618   5.087  17.143 -0.3993  0.1486 -0.6456
 1889TIP3    H127158   2.599   5.102  17.050 -1.0051 -0.0329 -0.5549
 1889TIP3    H227159   2.686   5.020  17.143  0.2405  0.7824 -0.9753
 1890TIP3   OH227160   5.115   1.773   0.304  0.3134  0.3977  0.8761
 1890TIP3    H127161   5.192   1.825   0.326  0.4997  0.5596 -0.1290
 1890TIP3    H227162   5.150   1.693   0.265 -0.0032  1.8796 -2.7673
 1891TIP3   OH227163   2.606   1.557   5.638  0.1580 -0.2391  0.4252
 1891TIP3    H127164   2.617   1.624   5.571  0.7861 -1.0904 -0.3506
 1891TIP3    H227165   2.672   1.578   5.705  0.0022  0.2111  0.4371
 1892TIP3   OH227166   3.095   6.710   5.129 -0.1906 -0.5440 -0.0441
 1892TIP3    H127167   3.035   6.756   5.187 -1.1665 -0.6147 -0.9665
 1892TIP3    H227168   3.060   6.621   5.124 -0.1252 -0.5394 -0.7222
 1893TIP3   OH227169   0.409   3.706  13.127  0.1710 -0.3110  0.1084
 1893TIP3    H127170   0.329   3.717  13.178  0.5523  0.8469  0.4907
 1893TIP3    H227171   0.479   3.706  13.192  0.5820  0.0300 -0.3269
 1894TIP3   OH227172   3.334   5.360  12.283 -0.0797  0.1290 -0.0327
 1894TIP3    H127173   3.420   5.371  12.242  0.0249 -1.3815 -0.2670
 1894TIP3    H227174   3.303   5.275  12.252 -0.5518 -0.5036  1.9994
 1895TIP3   OH227175   2.283   0.793   5.281 -0.5580 -0.6090  0.0637
 1895TIP3    H127176   2.265   0.868   5.338 -0.1806 -1.8303  1.8482
 1895TIP3    H227177   2.371   0.765   5.305 -0.2940 -1.0378 -1.3032
 1896TIP3   OH227178   1.141   1.159   0.583 -0.6534 -0.1539 -0.1933
 1896TIP3    H127179   1.088   1.227   0.540 -3.5718 -1.9203  0.3591
 1896TIP3    H227180   1.162   1.197   0.669 -2.0766  0.2062  0.0314
 1897TIP3   OH227181   3.180   5.130  13.011 -0.5330  0.8578  0.2568
 1897TIP3    H127182   3.251   5.084  12.966 -1.1611  0.2672 -0.1437
 1897TIP3    H227183   3.222   5.170  13.088 -0.0720 -0.8083  0.8971
 1898TIP3   OH227184   2.211   6.609   5.906  0.7101  0.4644  0.2387
 1898TIP3    H127185   2.256   6.525   5.907 -0.7045 -0.3369 -0.4163
 1898TIP3    H227186   2.273   6.669   5.863  1.3186 -0.4945 -0.2488
 1899TIP3   OH227187   6.352   5.227  12.833 -0.1825 -0.4691 -0.4322
 1899TIP3    H127188   6.410   5.245  12.907 -1.2572 -2.2470  0.9433
 1899TIP3    H227189   6.343   5.131  12.833  0.4022 -0.6231 -3.4018
 1900TIP3   OH227190   1.534   0.110   2.118  0.5045  0.0950 -0.2567
 1900TIP3    H127191   1.620   0.122   2.157  0.9229  2.7286 -1.8139
 1900TIP3    H227192   1.515   0.192   2.074 -1.9285 -1.1309 -1.7193
 1901TIP3   OH227193   3.462   5.383   4.448 -0.3869  0.0232  0.4781
 1901TIP3    H127194   3.467   5.308   4.388  0.2223  0.0133  0.5273
 1901TIP3    H227195   3.452   5.458   4.390 -1.9825 -0.1689  0.4734
 1902TIP3   OH227196   4.265   2.083   2.951 -0.7760 -0.7855 -0.5237
 1902TIP3    H127197   4.170   2.090   2.942 -0.5127  0.7430 -3.5790
 1902TIP3    H227198   4.295   2.173   2.956  0.6077 -1.1097 -2.0167
 1903TIP3   OH227199   2.793   0.737  15.247 -0.1709  0.1509  0.3973
 1903TIP3    H127200   2.768   0.820  15.206 -0.6325 -0.2325 -0.1200
 1903TIP3    H227201   2.732   0.673  15.210 -0.5605 -0.2309  1.6448
 1904TIP3   OH227202   2.258   2.422  11.529 -0.1378  0.2177  0.2731
 1904TIP3    H127203   2.248   2.414  11.434 -0.4083  0.1517  0.3062
 1904TIP3    H227204   2.353   2.429  11.543  0.0227 -1.3245  0.1159
 1905TIP3   OH227205   4.977   0.240   5.555 -0.0301  0.4697 -0.2662
 1905TIP3    H127206   4.906   0.198   5.604  0.5595  0.9155  0.9968
 1905TIP3    H227207   5.055   0.225   5.608  0.7184  0.5253 -1.3361
 1906TIP3   OH227208   5.355   1.789  13.101  0.2776  0.1635 -0.4032
 1906TIP3    H127209   5.390   1.867  13.058  0.4116 -0.6079 -1.7498
 1906TIP3    H227210   5.432   1.734  13.117  0.0383 -0.2396 -0.6214
 1907TIP3   OH227211   4.611   2.100  15.851  0.3967 -0.3898  0.2083
 1907TIP3    H127212   4.526   2.134  15.880 -0.6389 -1.4023 -1.4833
 1907TIP3    H227213   4.599   2.005  15.853  1.4032 -0.5312 -0.3517
 1908TIP3   OH227214   1.742   4.018  12.081 -0.3083  0.7155 -0.5014
 1908TIP3    H127215   1.836   4.030  12.062  0.8486 -0.2343  3.6081
 1908TIP3    H227216   1.730   3.923  12.084 -1.2838  0.8314 -0.4372
 1909TIP3   OH227217   5.780   0.138  16.761  0.3323  0.6693 -0.2575
 1909TIP3    H127218   5.814   0.086  16.833 -1.4359  0.5071  0.5011
 1909TIP3    H227219   5.853   0.195  16.736  1.3623 -0.1324  0.8233
 1910TIP3   OH227220   3.421   4.586  14.355  0.0259 -0.8384 -0.1282
 1910TIP3    H127221   3.366   4.508  14.363  0.2563 -1.1387 -1.3380
 1910TIP3    H227222   3.421   4.606  14.261  0.4603  0.2607  0.0931
 1911TIP3   OH227223   4.884   6.537   5.794 -0.2100  0.3758 -0.1408
 1911TIP3    H127224   4.914   6.446   5.787 -0.7112  0.2588 -0.8418
 1911TIP3    H227225   4.793   6.531   5.821 -0.6383  0.6223 -1.4725
 1912TIP3   OH227226   1.515   5.819  14.180  0.7317 -0.3201 -0.5052
 1912TIP3    H127227   1.451   5.798  14.248  1.0498 -2.1198 -0.7301
 1912TIP3    H227228   1.470   5.800  14.098 -0.0011  2.7619 -0.9514
 1913TIP3   OH227229   4.771   0.447   2.684 -0.0723  0.2819 -0.2541
 1913TIP3    H127230   4.677   0.431   2.674 -0.0140 -0.7083  0.5520
 1913TIP3    H227231   4.780   0.542   2.680 -1.0873  0.3817 -0.5142
 1914TIP3   OH227232   6.739   6.222  15.996  0.6902  0.5704  0.1269
 1914TIP3    H127233   6.708   6.262  15.915  0.8749 -1.8137 -1.2091
 1914TIP3    H227234   6.759   6.131  15.972  0.6043 -0.2692  2.8904
 1915TIP3   OH227235   0.545   1.128  15.791 -0.2373  0.2918 -0.3223
 1915TIP3    H127236   0.590   1.212  15.796 -3.0343  1.8753  1.1219
 1915TIP3    H227237   0.579   1.077  15.865 -1.2469  1.7459  1.2051
 1916TIP3   OH227238   4.008   5.770  12.769 -0.0136  0.0894  0.0826
 1916TIP3    H127239   3.986   5.743  12.680  3.2189  2.2331 -1.5417
 1916TIP3    H227240   3.937   5.829  12.794  0.1812  1.3253 -2.0775
 1917TIP3   OH227241   0.874   3.738  14.474 -0.5300 -0.3379 -0.1651
 1917TIP3    H127242   0.837   3.711  14.390  2.3520  0.6596 -1.8785
 1917TIP3    H227243   0.959   3.696  14.478 -1.1175 -1.5237  3.0220
 1918TIP3   OH227244   2.357   1.037   4.745  0.0673  0.2487  0.0224
 1918TIP3    H127245   2.428   1.049   4.681 -0.2832  2.0977 -0.0679
 1918TIP3    H227246   2.402   1.013   4.826  0.7597  0.8541 -0.1677
 1919TIP3   OH227247   4.658   2.706  13.319 -0.3776  0.4673 -0.3742
 1919TIP3    H127248   4.679   2.739  13.406  0.4091 -1.8026  0.3609
 1919TIP3    H227249   4.571   2.666  13.328 -1.5221  2.5752 -1.3597
 1920TIP3   OH227250   0.907   5.633  16.265 -0.1651  0.2276 -0.1818
 1920TIP3    H127251   0.958   5.711  16.244 -0.0489  0.6041  1.3771
 1920TIP3    H227252   0.971   5.562  16.272 -0.2328  0.0504 -1.2758
 1921TIP3   OH227253   5.550   3.758   1.361  0.0612  0.5396  0.2298
 1921TIP3    H127254   5.608   3.685   1.382 -0.9441 -0.2067  0.5501
 1921TIP3    H227255   5.597   3.836   1.391  0.5136 -0.1235  1.3051
 1922TIP3   OH227256   1.286   2.319  15.545  0.0960 -0.1936  0.6369
 1922TIP3    H127257   1.265   2.226  15.537  0.4849 -0.2068 -0.3900
 1922TIP3    H227258   1.351   2.323  15.615  0.7090 -0.8185  0.1303
 1923TIP3   OH227259   4.291   1.372   0.131 -0.2040 -0.3937  0.3852
 1923TIP3    H127260   4.310   1.461   0.100  1.1026 -1.3881 -1.9730
 1923TIP3    H227261   4.370   1.346   0.178 -0.0032 -0.7768 -0.1531
 1924TIP3   OH227262   1.951   3.641   4.283 -0.9507 -0.3005 -0.0686
 1924TIP3    H127263   1.966   3.735   4.285 -0.5621 -0.3653  1.9246
 1924TIP3    H227264   1.951   3.615   4.375  1.7087 -2.6926 -0.6410
 1925TIP3   OH227265   6.428   4.166  11.452  0.1073 -0.4843 -0.4698
 1925TIP3    H127266   6.404   4.108  11.524 -0.8238 -0.9780 -1.1432
 1925TIP3    H227267   6.424   4.254  11.489 -1.5051 -0.6398 -0.1685
 1926TIP3   OH227268   5.539   4.333  14.504  0.2071  0.4199  0.2161
 1926TIP3    H127269   5.472   4.381  14.455  0.5531  1.7265  0.9620
 1926TIP3    H227270   5.496   4.307  14.585  0.4814  0.9803  0.5542
 1927TIP3   OH227271   4.641   5.122   0.376  0.1744 -0.6540 -0.1418
 1927TIP3    H127272   4.574   5.118   0.308  0.0294 -2.2233  0.0581
 1927TIP3    H227273   4.694   5.044   0.362  0.3691 -0.8032  1.3280
 1928TIP3   OH227274   4.307   0.583  16.236  0.0004  0.6483  0.0617
 1928TIP3    H127275   4.307   0.666  16.284 -1.3755  1.1204 -0.7215
 1928TIP3    H227276   4.215   0.556  16.235  0.2308 -0.1379 -0.9829
 1929TIP3   OH227277   5.741   4.782   2.604 -0.0811  0.2993 -0.0122
 1929TIP3    H127278   5.717   4.693   2.632  0.2103 -0.0897 -0.9651
 1929TIP3    H227279   5.832   4.774   2.575  0.4416  1.2473  1.3052
 1930TIP3   OH227280   4.069   1.502   2.811 -0.1385  0.1784  0.8248
 1930TIP3    H127281   4.154   1.545   2.815 -0.0923  0.2378 -0.4598
 1930TIP3    H227282   4.011   1.568   2.772 -0.4014 -0.3981  0.2199
 1931TIP3   OH227283   2.226   4.915   5.256 -0.7563  0.2189 -0.1680
 1931TIP3    H127284   2.286   4.926   5.182  1.1830  0.9358  1.3996
 1931TIP3    H227285   2.201   5.004   5.280 -0.5226  0.0765  0.6554
 1932TIP3   OH227286   6.543   0.121  12.270 -0.4358 -0.2331 -0.2659
 1932TIP3    H127287   6.532   0.049  12.208  0.3259 -1.5518  1.0816
 1932TIP3    H227288   6.596   0.085  12.341 -0.8780  1.3597  0.9499
 1933TIP3   OH227289   1.301   2.279   3.585 -0.1148 -0.0415  0.2648
 1933TIP3    H127290   1.386   2.249   3.616 -1.6929 -1.0657  4.2761
 1933TIP3    H227291   1.308   2.375   3.584  0.5361  0.0102  2.7560
 1934TIP3   OH227292   6.230   2.852   3.272  0.3429 -0.2607 -0.6318
 1934TIP3    H127293   6.209   2.924   3.331  1.9024  0.5979 -1.0865
 1934TIP3    H227294   6.311   2.815   3.307  0.0615 -1.2220 -0.9480
 1935TIP3   OH227295   5.070   2.031   0.636  0.3900  0.1719 -0.4589
 1935TIP3    H127296   5.099   2.087   0.565  1.1710  0.0459 -0.2454
 1935TIP3    H227297   5.023   1.959   0.594  0.4835  0.3221 -0.8156
 1936TIP3   OH227298   0.302   0.346  12.524  0.4077  0.4670 -0.0453
 1936TIP3    H127299   0.393   0.372  12.509  1.1212 -1.5831  0.3288
 1936TIP3    H227300   0.283   0.376  12.613  0.2232  2.0804 -0.5961
 1937TIP3   OH227301   4.041   3.000   4.353 -0.2958 -1.1720 -0.0464
 1937TIP3    H127302   3.978   2.957   4.411 -0.0849  0.6010  1.6018
 1937TIP3    H227303   4.118   3.015   4.408  0.2231 -0.1658 -1.0044
 1938TIP3   OH227304   6.631   1.658  13.770 -0.1945  0.1852 -0.3517
 1938TIP3    H127305   6.725   1.647  13.760 -0.1146  0.5699 -0.0503
 1938TIP3    H227306   6.621   1.715  13.846 -0.6723  0.1265 -0.3639
 1939TIP3   OH227307   6.714   6.160  16.937  0.7022  0.5071  0.2415
 1939TIP3    H127308   6.642   6.198  16.987 -0.6462 -0.2626 -1.0214
 1939TIP3    H227309   6.780   6.137  17.002  0.0962  1.8413  1.3658
 1940TIP3   OH227310   0.163   5.516  14.878  0.3295 -0.4199 -0.1105
 1940TIP3    H127311   0.241   5.565  14.904 -0.6650  1.2500 -0.1327
 1940TIP3    H227312   0.100   5.532  14.949 -1.0394  0.8728 -1.5379
 1941TIP3   OH227313   4.912   6.788   3.092 -0.4901  0.7401 -0.0416
 1941TIP3    H127314   4.826   6.827   3.111 -0.7060  0.3239 -0.1636
 1941TIP3    H227315   4.919   6.792   2.997 -0.6911  0.1082 -0.0866
 1942TIP3   OH227316   0.178   4.706  12.842  0.0648 -0.2439 -0.1964
 1942TIP3    H127317   0.263   4.709  12.797 -0.1639 -3.6410 -1.1406
 1942TIP3    H227318   0.141   4.621  12.818 -2.8564  0.3580  1.6239
 1943TIP3   OH227319   1.744   6.377  14.012 -0.1173  0.1449  0.3670
 1943TIP3    H127320   1.756   6.395  13.919  0.6271 -1.5713  0.0923
 1943TIP3    H227321   1.765   6.284  14.021  0.8364  0.5055  2.4089
 1944TIP3   OH227322   2.442   0.889  14.528  0.1143 -0.7509 -0.0114
 1944TIP3    H127323   2.379   0.819  14.546  1.3222 -2.2222 -1.2150
 1944TIP3    H227324   2.501   0.888  14.603 -0.9754  0.3345  0.9065
 1945TIP3   OH227325   5.673   3.259   2.131  0.2318 -0.3267  0.1983
 1945TIP3    H127326   5.725   3.182   2.154  1.1021  0.3597  0.5707
 1945TIP3    H227327   5.712   3.331   2.181  1.6475  1.0796 -2.6888
 1946TIP3   OH227328   5.759   1.255   5.020  0.0041 -0.1349 -0.5402
 1946TIP3    H127329   5.797   1.216   4.941 -0.7239 -2.8838  0.3293
 1946TIP3    H227330   5.685   1.307   4.988  0.6733  0.1024 -1.7585
 1947TIP3   OH227331   0.596   0.177   3.643  0.6993  0.5440 -0.5459
 1947TIP3    H127332   0.518   0.129   3.671 -0.0460  2.7287  1.5248
 1947TIP3    H227333   0.563   0.264   3.620  2.4250  1.2913 -0.3176
 1948TIP3   OH227334   3.346   3.513   2.575 -0.9032  0.6443  1.1350
 1948TIP3    H127335   3.327   3.479   2.487 -3.0841  0.5273  1.6022
 1948TIP3    H227336   3.389   3.597   2.558 -1.0797  0.5237 -0.0497
 1949TIP3   OH227337   4.618   3.612  14.738  0.0477 -0.5025  0.5181
 1949TIP3    H127338   4.578   3.688  14.696 -0.2975 -0.3699  1.0704
 1949TIP3    H227339   4.545   3.567  14.780  0.5266  0.0407  2.0105
 1950TIP3   OH227340   6.211   1.473  10.975 -0.0263 -0.5341  0.3084
 1950TIP3    H127341   6.155   1.453  10.900 -0.4864 -1.4111  0.8682
 1950TIP3    H227342   6.255   1.390  10.994  1.8760  0.2513 -0.4381
 1951TIP3   OH227343   6.692   5.903  16.838 -0.2438 -0.3657 -0.0049
 1951TIP3    H127344   6.763   5.885  16.777  0.7351 -0.4972  1.1367
 1951TIP3    H227345   6.666   5.993  16.818  0.1217 -0.3757 -0.5485
 1952TIP3   OH227346   1.725   4.162   6.627 -0.3931 -0.0130  0.2864
 1952TIP3    H127347   1.814   4.127   6.632  0.1852  1.1383 -1.0754
 1952TIP3    H227348   1.675   4.111   6.690  1.0584 -1.2194  0.5140
 1953TIP3   OH227349   3.191   2.896  13.985 -0.3827  0.1284 -0.4486
 1953TIP3    H127350   3.287   2.904  13.988 -0.5034  1.9971 -0.5395
 1953TIP3    H227351   3.176   2.821  13.928  1.0289  0.9955 -2.0671
 1954TIP3   OH227352   2.673   3.179   3.615  0.3502 -0.3197 -0.0607
 1954TIP3    H127353   2.618   3.164   3.692 -0.8713  0.3713 -0.7779
 1954TIP3    H227354   2.687   3.274   3.614  0.8850 -0.3994 -0.3516
 1955TIP3   OH227355   1.286   1.148  12.765 -0.2611  0.0544  0.0934
 1955TIP3    H127356   1.335   1.134  12.684  0.3591  0.3614  0.4096
 1955TIP3    H227357   1.247   1.063  12.784 -0.4244 -0.0175 -0.5331
 1956TIP3   OH227358   5.618   1.368  15.474 -0.3209 -0.2723  0.3125
 1956TIP3    H127359   5.585   1.369  15.384  0.3115  1.9037  0.0413
 1956TIP3    H227360   5.579   1.290  15.513 -1.3829 -0.7444 -1.5568
 1957TIP3   OH227361   6.003   2.677  15.014 -0.0765 -0.1920 -0.6114
 1957TIP3    H127362   5.982   2.704  15.103 -1.3326  0.2811 -1.0314
 1957TIP3    H227363   6.000   2.581  15.017 -2.4350 -0.1861 -0.6184
 1958TIP3   OH227364   4.806   5.220   3.914 -0.3245 -0.2365 -0.2802
 1958TIP3    H127365   4.751   5.283   3.866  2.3103  0.2615 -3.0127
 1958TIP3    H227366   4.846   5.272   3.984 -2.1235 -0.2393  0.7812
 1959TIP3   OH227367   1.776   5.629  10.848 -0.0714  0.3158  0.0257
 1959TIP3    H127368   1.830   5.669  10.780 -0.4002  0.6529 -0.0339
 1959TIP3    H227369   1.835   5.565  10.890  0.6874  1.3625  0.6048
 1960TIP3   OH227370   4.905   1.311   5.552 -0.5060  0.0509 -0.1482
 1960TIP3    H127371   4.950   1.251   5.492  0.1196 -0.7406  1.0492
 1960TIP3    H227372   4.959   1.309   5.631 -2.4472 -0.6615  1.2441
 1961TIP3   OH227373   1.797   0.387   1.826 -0.6766  0.0796 -0.8581
 1961TIP3    H127374   1.885   0.402   1.792  0.1311  1.5773  1.6706
 1961TIP3    H227375   1.745   0.459   1.790 -0.8189 -0.5572 -1.9917
 1962TIP3   OH227376   0.664   1.927  13.925  0.5887  0.0928 -0.7837
 1962TIP3    H127377   0.588   1.971  13.962  1.0431 -0.3546  0.7286
 1962TIP3    H227378   0.633   1.839  13.904 -0.1200  0.8212 -3.1274
 1963TIP3   OH227379   2.426   2.273   2.992 -0.3941 -0.1075 -0.6833
 1963TIP3    H127380   2.491   2.321   2.941 -0.6901  1.5522  0.4213
 1963TIP3    H227381   2.354   2.335   3.004 -0.0809 -0.1403  2.2617
 1964TIP3   OH227382   1.479   0.138  14.412  0.0761 -0.5571  1.0223
 1964TIP3    H127383   1.397   0.188  14.402 -0.2752 -1.2264  0.4545
 1964TIP3    H227384   1.482   0.082  14.335  0.3183 -1.6178  1.7831
 1965TIP3   OH227385   2.539   2.331   1.885  0.3568 -0.7010  0.2487
 1965TIP3    H127386   2.568   2.241   1.872 -1.9545 -1.3904 -0.6453
 1965TIP3    H227387   2.469   2.325   1.950  0.1059  0.4098  0.0988
 1966TIP3   OH227388   6.676   2.909  15.379 -0.3413 -0.1750 -0.3192
 1966TIP3    H127389   6.633   2.921  15.464 -1.2049  0.1913 -0.7993
 1966TIP3    H227390   6.606   2.880  15.321  0.2764 -0.5657 -0.8797
 1967TIP3   OH227391   2.642   1.449   1.668 -0.1360 -0.1389 -0.4850
 1967TIP3    H127392   2.645   1.537   1.630 -2.1220  0.5584  0.8363
 1967TIP3    H227393   2.726   1.410   1.643  0.8321  2.1322 -1.0577
 1968TIP3   OH227394   6.232   4.398  15.956  0.1045 -0.3410 -0.8517
 1968TIP3    H127395   6.314   4.439  15.982  1.2931 -1.5742 -2.4166
 1968TIP3    H227396   6.193   4.368  16.037  1.5224 -0.2839 -0.1222
 1969TIP3   OH227397   5.387   5.152   6.201 -0.0274  0.0963  0.3757
 1969TIP3    H127398   5.422   5.063   6.205  1.9400  0.8423  2.2695
 1969TIP3    H227399   5.448   5.204   6.255 -1.3920  2.4916 -0.2257
 1970TIP3   OH227400   1.088   1.818  16.583  0.4304  0.7006 -0.3421
 1970TIP3    H127401   1.142   1.755  16.535 -1.4372 -0.1638 -1.4527
 1970TIP3    H227402   1.060   1.772  16.662  2.4039  1.6529  0.9840
 1971TIP3   OH227403   2.776   2.034   2.452  0.1709 -0.2704  0.6970
 1971TIP3    H127404   2.718   1.969   2.413 -1.6456  0.5588  1.8838
 1971TIP3    H227405   2.766   2.021   2.546  1.6823  0.1300  0.9333
 1972TIP3   OH227406   4.655   2.178  13.849  0.2273 -0.3343 -0.0193
 1972TIP3    H127407   4.629   2.201  13.759  1.6173 -0.9179 -0.5874
 1972TIP3    H227408   4.737   2.225  13.863 -2.0532  3.4451  2.6120
 1973TIP3   OH227409   1.730   3.881   4.479  0.1210 -0.5090 -0.0799
 1973TIP3    H127410   1.658   3.908   4.422  0.6038 -0.3299 -0.6220
 1973TIP3    H227411   1.808   3.895   4.426  0.6329  0.1996  0.8424
 1974TIP3   OH227412   2.040   4.848  11.614  0.1115 -0.9994 -0.4123
 1974TIP3    H127413   1.974   4.822  11.677  0.6337 -2.5833 -0.4564
 1974TIP3    H227414   2.119   4.863  11.666  0.1545 -0.8001 -0.5326
 1975TIP3   OH227415   1.963   0.555   3.327 -0.1735 -0.3196 -0.3527
 1975TIP3    H127416   1.875   0.521   3.341  0.6337 -1.4848  2.7842
 1975TIP3    H227417   1.953   0.650   3.333 -1.0630 -0.4822  1.6164
 1976TIP3   OH227418   6.235   3.856  11.442 -0.2177 -0.4454  0.0589
 1976TIP3    H127419   6.298   3.845  11.370  0.3962 -0.8200  0.6501
 1976TIP3    H227420   6.268   3.801  11.512 -1.1294 -0.5306  0.4394
 1977TIP3   OH227421   2.830   0.355   2.841  0.3418  0.2083 -0.3519
 1977TIP3    H127422   2.824   0.451   2.835 -1.3720  0.2240  0.9931
 1977TIP3    H227423   2.828   0.337   2.935  0.9402 -1.1579 -0.5764
 1978TIP3   OH227424   1.630   1.665   4.787 -0.6871  0.2797  0.1805
 1978TIP3    H127425   1.662   1.731   4.726  0.5122  0.2685  0.7544
 1978TIP3    H227426   1.535   1.673   4.784 -0.6635  0.2630 -1.6795
 1979TIP3   OH227427   0.238   5.943   2.696  0.3429  0.1311  0.3117
 1979TIP3    H127428   0.272   5.854   2.700  0.8940  0.3137 -0.0573
 1979TIP3    H227429   0.152   5.939   2.738  0.4123 -0.5460  0.3938
 1980TIP3   OH227430   5.445   4.138   2.705 -0.1294  0.5522  0.1419
 1980TIP3    H127431   5.430   4.052   2.745 -0.6037  0.7264  0.3476
 1980TIP3    H227432   5.383   4.142   2.632 -2.3891  1.9209  1.9692
 1981TIP3   OH227433   0.955   6.803  15.152 -0.1545 -0.2963 -0.0331
 1981TIP3    H127434   0.926   6.761  15.233 -0.8325 -0.1630 -0.2019
 1981TIP3    H227435   0.882   6.791  15.091 -0.3570  1.0743 -0.1037
 1982TIP3   OH227436   2.789   0.185   5.970  0.0943 -0.0590  0.6068
 1982TIP3    H127437   2.750   0.237   6.040 -2.2138 -0.6587 -0.1557
 1982TIP3    H227438   2.878   0.168   6.000 -0.0435  1.7386  2.2622
 1983TIP3   OH227439   6.543   5.808   3.935 -0.5590  0.5655  0.0162
 1983TIP3    H127440   6.505   5.723   3.913 -1.7002  1.3438 -1.1604
 1983TIP3    H227441   6.474   5.871   3.913  0.8455  1.9130 -0.6350
 1984TIP3   OH227442   3.786   0.148   0.369  0.0972  0.0771  0.1386
 1984TIP3    H127443   3.859   0.134   0.430  1.1688  0.8553 -0.9278
 1984TIP3    H227444   3.774   0.242   0.367  0.9232  0.1747 -1.7933
 1985TIP3   OH227445   5.726   3.432  13.829 -0.0143 -0.3029 -0.4980
 1985TIP3    H127446   5.769   3.369  13.772  1.0821 -0.2272  0.1972
 1985TIP3    H227447   5.726   3.390  13.915 -1.1403 -0.1957 -0.4358
 1986TIP3   OH227448   5.832   2.432   5.497 -0.0774 -0.2204 -0.1022
 1986TIP3    H127449   5.786   2.393   5.422  0.7902 -0.6831 -0.4005
 1986TIP3    H227450   5.821   2.368   5.568 -2.0470  0.8135  0.6014
 1987TIP3   OH227451   1.148   4.723   2.607 -0.4233  0.3450  0.4905
 1987TIP3    H127452   1.118   4.810   2.581  0.0504 -0.0594 -1.6248
 1987TIP3    H227453   1.069   4.678   2.637 -1.1470  0.7437 -0.7520
 1988TIP3   OH227454   5.753   4.515  11.753  0.3615 -0.1645  0.1963
 1988TIP3    H127455   5.761   4.556  11.839  1.4809 -1.1948  0.6062
 1988TIP3    H227456   5.824   4.553  11.702 -0.7612  1.0265 -0.5586
 1989TIP3   OH227457   6.366   3.669  11.603  1.1619  0.6926  0.1840
 1989TIP3    H127458   6.339   3.697  11.690 -1.5072 -0.1397 -0.3052
 1989TIP3    H227459   6.375   3.574  11.610 -0.7477  0.3988 -0.8023
 1990TIP3   OH227460   2.737   1.453  14.864 -0.5056 -0.1904 -0.0586
 1990TIP3    H127461   2.661   1.417  14.820 -0.7404  0.5747 -0.2945
 1990TIP3    H227462   2.703   1.524  14.918 -0.1306 -0.6901  0.8538
 1991TIP3   OH227463   3.724   3.245  13.916  0.1231  0.4663  0.7233
 1991TIP3    H127464   3.738   3.151  13.901  0.1491  0.6058 -0.2217
 1991TIP3    H227465   3.651   3.267  13.858  0.9851  1.2977 -0.0728
 1992TIP3   OH227466   0.662   0.566  12.016  0.3547 -0.0052 -0.1018
 1992TIP3    H127467   0.747   0.575  12.059  0.9103 -2.5487 -0.5429
 1992TIP3    H227468   0.625   0.487  12.053 -1.1782  0.2480 -1.0287
 1993TIP3   OH227469   1.125   5.717   3.489 -0.2662  0.0504 -0.2207
 1993TIP3    H127470   1.094   5.662   3.560 -2.7179  1.7492  0.1408
 1993TIP3    H227471   1.191   5.774   3.530 -0.4843 -0.0757  0.3121
 1994TIP3   OH227472   2.440   2.154   4.249  0.1053  0.0469 -0.2685
 1994TIP3    H127473   2.504   2.120   4.311 -0.4223 -0.3678  0.0492
 1994TIP3    H227474   2.426   2.082   4.188 -0.2714  0.0411 -0.1736
 1995TIP3   OH227475   5.407   1.867  16.388 -0.1029  0.0949 -0.8808
 1995TIP3    H127476   5.436   1.777  16.397 -0.6516 -0.2539 -2.2305
 1995TIP3    H227477   5.478   1.920  16.425 -0.2861 -0.8965  0.9957
 1996TIP3   OH227478   6.549   2.218  11.880 -0.5981 -0.2788  0.7876
 1996TIP3    H127479   6.572   2.199  11.971  0.1449 -1.3862  0.3797
 1996TIP3    H227480   6.493   2.145  11.854  1.7262 -1.6820 -0.5873
 1997TIP3   OH227481   3.943   0.254   4.052 -0.0545  0.2829 -0.0901
 1997TIP3    H127482   3.934   0.349   4.041  0.2133  0.2012 -1.1055
 1997TIP3    H227483   3.994   0.244   4.133 -0.1581  0.9920  0.0724
 1998TIP3   OH227484   0.543   4.448   1.039 -0.2321 -0.4629 -0.2186
 1998TIP3    H127485   0.631   4.456   1.002  1.2752  0.0988  3.1307
 1998TIP3    H227486   0.534   4.355   1.062  0.4693 -0.1359  1.4986
 1999TIP3   OH227487   6.782   2.527  15.350 -0.0160  0.6528 -0.2533
 1999TIP3    H127488   6.769   2.522  15.255 -0.1169  2.3186 -0.3547
 1999TIP3    H227489   6.849   2.595  15.361  0.9636 -0.4380  0.8158
 2000TIP3   OH227490   0.796   3.181  13.996 -0.3322  0.3996 -0.2585
 2000TIP3    H127491   0.828   3.145  13.913 -0.5313 -0.8511  0.1924
 2000TIP3    H227492   0.809   3.276  13.987  0.2550  0.2293 -1.4538
 2001TIP3   OH227493   4.840   2.952   1.811  0.2837  0.0085  0.0169
 2001TIP3    H127494   4.852   2.876   1.869  1.4629  1.2218  1.4662
 2001TIP3    H227495   4.781   2.922   1.743 -0.0449 -1.9221  1.0955
 2002TIP3   OH227496   4.556   1.434   3.268  0.2996 -0.1088  0.1239
 2002TIP3    H127497   4.584   1.368   3.204 -2.4745 -0.6218 -0.6826
 2002TIP3    H227498   4.546   1.514   3.217 -2.5067 -0.6562 -0.3669
 2003TIP3   OH227499   4.624   5.603   2.518  0.7573 -0.0155  0.3286
 2003TIP3    H127500   4.682   5.578   2.445  1.0466 -1.8989  1.1428
 2003TIP3    H227501   4.541   5.559   2.498  0.7149 -0.2065  0.9122
 2004TIP3   OH227502   6.081   2.236  17.099  0.4209 -0.1729  0.4403
 2004TIP3    H127503   6.100   2.150  17.061 -1.7549  0.0211 -1.3359
 2004TIP3    H227504   5.986   2.237  17.108  0.6006  1.1160  2.8929
 2005TIP3   OH227505   6.575   1.812   3.339 -0.0812 -0.4499  0.1146
 2005TIP3    H127506   6.620   1.799   3.422 -0.9799 -2.0129  0.3876
 2005TIP3    H227507   6.568   1.725   3.301 -3.0084 -0.3291  0.1825
 2006TIP3   OH227508   2.954   1.148   6.390 -0.1352  0.3805  0.5052
 2006TIP3    H127509   3.020   1.217   6.393 -0.7210  0.9485  0.6486
 2006TIP3    H227510   2.889   1.175   6.454 -2.2887  1.6980 -2.0304
 2007TIP3   OH227511   6.561   1.031   4.075 -0.2155  0.9134 -0.1506
 2007TIP3    H127512   6.567   1.056   4.168 -0.1175 -1.5112  0.5623
 2007TIP3    H227513   6.643   1.062   4.037  1.4235 -1.1807  1.4502
 2008TIP3   OH227514   6.083   2.153   3.247 -0.0003 -0.0892  0.3999
 2008TIP3    H127515   6.035   2.115   3.320 -0.0416 -0.2368  0.2945
 2008TIP3    H227516   6.163   2.101   3.241 -1.4971 -2.2835 -1.8225
 2009TIP3   OH227517   3.823   0.615  16.370 -0.1585 -1.0263  0.1418
 2009TIP3    H127518   3.840   0.561  16.447  0.5371  1.4084  1.7861
 2009TIP3    H227519   3.729   0.629  16.371 -0.2482 -1.5884  0.1074
 2010TIP3   OH227520   6.026   3.984  14.304 -0.2225  0.2121 -0.2889
 2010TIP3    H127521   5.951   3.939  14.342 -0.2374  0.8925  0.5419
 2010TIP3    H227522   6.028   3.956  14.213 -0.5091 -1.0704  0.0758
 2011TIP3   OH227523   4.640   4.367   3.022  0.2327 -0.4060  0.0657
 2011TIP3    H127524   4.701   4.405   3.086  1.0580 -0.0580 -0.9100
 2011TIP3    H227525   4.583   4.311   3.075  1.0819 -0.3616  1.0758
 2012TIP3   OH227526   1.502   4.426   4.526  0.3040 -0.0032  0.2428
 2012TIP3    H127527   1.447   4.386   4.594  0.0737  1.0386  0.6940
 2012TIP3    H227528   1.561   4.483   4.575  0.3986  0.4647 -0.4115
 2013TIP3   OH227529   6.272   5.519   5.014 -0.5871 -0.4384 -0.3385
 2013TIP3    H127530   6.256   5.520   5.108 -0.6613 -3.2673 -0.2507
 2013TIP3    H227531   6.185   5.536   4.976 -0.3532  1.9071  0.0151
 2014TIP3   OH227532   2.381   0.049   2.787 -0.0424  0.1941  0.5609
 2014TIP3    H127533   2.439  -0.016   2.826  0.2969  0.8603  1.1923
 2014TIP3    H227534   2.435   0.127   2.777 -0.4691  0.4185 -0.0986
 2015TIP3   OH227535   3.216   1.487   2.232 -0.4277  0.4786 -0.1466
 2015TIP3    H127536   3.250   1.496   2.143 -0.9612 -2.5365 -0.7564
 2015TIP3    H227537   3.134   1.438   2.222 -1.1164  1.0664  1.9423
 2016TIP3   OH227538   5.446   4.510  12.645  0.3801  0.0169  0.2732
 2016TIP3    H127539   5.425   4.425  12.607  0.7181  0.2557 -0.4467
 2016TIP3    H227540   5.471   4.566  12.571  1.5122  0.3504  0.8711
 2017TIP3   OH227541   5.092   6.334  12.822 -0.2761  0.1590  0.5881
 2017TIP3    H127542   5.097   6.421  12.861 -1.0837  0.9587 -0.9963
 2017TIP3    H227543   5.084   6.350  12.728  0.0070 -1.6471  0.2192
 2018TIP3   OH227544   3.050   3.265  15.352  0.2024 -0.3675 -0.3776
 2018TIP3    H127545   3.062   3.351  15.313  1.7697 -0.9341 -1.2477
 2018TIP3    H227546   2.968   3.271  15.400  0.3319  1.6364 -0.3374
 2019TIP3   OH227547   0.274   3.878  12.122 -0.1638 -0.3317  0.6873
 2019TIP3    H127548   0.219   3.900  12.047  1.2908 -0.3640 -0.4330
 2019TIP3    H227549   0.243   3.792  12.150 -1.4861  0.1817  0.8999
 2020TIP3   OH227550   5.223   6.760   6.102  0.2703  0.4214  0.6233
 2020TIP3    H127551   5.172   6.679   6.107  1.8285 -0.8124 -1.5083
 2020TIP3    H227552   5.158   6.830   6.099 -1.2356 -0.9582 -0.4041
 2021TIP3   OH227553   2.870   4.861  13.745 -0.2242  0.1060 -0.4391
 2021TIP3    H127554   2.792   4.910  13.771 -0.6404  0.2057 -1.7995
 2021TIP3    H227555   2.864   4.855  13.650  2.1649  1.3187 -0.7200
 2022TIP3   OH227556   5.712   0.145  12.356  0.6622 -0.6419  0.0267
 2022TIP3    H127557   5.641   0.113  12.300  0.5449 -0.0538 -0.1711
 2022TIP3    H227558   5.690   0.113  12.443 -1.2272  1.6075  0.4681
 2023TIP3   OH227559   0.903   5.529   0.536 -0.1171 -0.1147 -0.1960
 2023TIP3    H127560   0.811   5.536   0.562 -0.0596  1.0658 -0.2505
 2023TIP3    H227561   0.899   5.497   0.446 -0.4327 -0.8700  0.0735
 2024TIP3   OH227562   1.921   1.450  13.556  0.2094 -0.3608 -0.1655
 2024TIP3    H127563   1.940   1.442  13.463 -1.5052  0.3082 -0.6315
 2024TIP3    H227564   1.913   1.545  13.570  1.1291 -0.4143  0.8300
 2025TIP3   OH227565   1.115   1.829   3.492 -0.2957 -0.1622 -0.1051
 2025TIP3    H127566   1.144   1.844   3.402 -0.4783 -0.0734 -0.1497
 2025TIP3    H227567   1.061   1.750   3.487  0.4658 -0.7055  0.0876
 2026TIP3   OH227568   6.118   0.033  11.417 -0.7042  0.0157  0.0128
 2026TIP3    H127569   6.085   0.114  11.458 -1.0990  1.0997 -2.3072
 2026TIP3    H227570   6.048   0.007  11.357 -0.1070 -1.4705 -0.0746
 2027TIP3   OH227571   2.865   1.157  10.614  0.0856 -0.5916 -0.2408
 2027TIP3    H127572   2.839   1.085  10.556 -0.4778 -0.8852  0.3755
 2027TIP3    H227573   2.868   1.118  10.701  0.7295 -0.0969 -0.0323
 2028TIP3   OH227574   5.934   5.351  16.800 -0.3794  0.5167  0.2939
 2028TIP3    H127575   5.849   5.380  16.766 -0.3171  0.3093 -0.0422
 2028TIP3    H227576   5.913   5.305  16.881 -0.7984 -1.2930 -0.7835
 2029TIP3   OH227577   1.372   6.546  16.325 -0.4621 -0.1507 -0.1235
 2029TIP3    H127578   1.313   6.540  16.250 -0.5642  0.3515 -0.0906
 2029TIP3    H227579   1.315   6.568  16.399 -0.3577 -0.6019  0.0967
 2030TIP3   OH227580   4.234   2.199   1.798 -0.1366 -0.4215 -0.1204
 2030TIP3    H127581   4.222   2.280   1.847  0.8389 -0.0146 -0.5153
 2030TIP3    H227582   4.146   2.165   1.786 -0.9503  2.1039 -2.4780
 2031TIP3   OH227583   1.301   2.813  13.112 -0.0349 -0.5251 -0.1875
 2031TIP3    H127584   1.242   2.804  13.037 -1.6464  0.2343  0.9328
 2031TIP3    H227585   1.278   2.740  13.169  0.4493 -0.4871  0.0604
 2032TIP3   OH227586   1.872   2.191  14.905 -0.4542  0.4024  0.1718
 2032TIP3    H127587   1.827   2.145  14.834 -2.1504  1.4321  0.5349
 2032TIP3    H227588   1.929   2.253  14.861 -1.3878  0.9336 -0.3263
 2033TIP3   OH227589   5.466   6.533  14.284 -0.1170 -0.0964 -0.3486
 2033TIP3    H127590   5.481   6.503  14.195  0.9942  2.5199 -1.1479
 2033TIP3    H227591   5.549   6.572  14.311 -0.9802  0.8261  1.1060
 2034TIP3   OH227592   3.325   1.782   1.666  0.3850  0.0118  0.7865
 2034TIP3    H127593   3.278   1.739   1.594  0.9158 -2.9118  2.0264
 2034TIP3    H227594   3.259   1.794   1.734  0.8941 -2.3698  1.8133
 2035TIP3   OH227595   0.802   4.028  13.700  0.2573 -0.2418 -0.1501
 2035TIP3    H127596   0.808   4.110  13.749 -1.5865  0.0849 -0.3916
 2035TIP3    H227597   0.865   4.038  13.629 -0.0331  1.0286 -0.2520
 2036TIP3   OH227598   4.732   6.684  15.996  0.0256  0.0463  0.2360
 2036TIP3    H127599   4.780   6.635  15.929 -0.6884  0.3829 -0.5266
 2036TIP3    H227600   4.701   6.617  16.056  1.3630 -0.1912  0.7079
 2037TIP3   OH227601   5.288   4.808   3.344  0.2970  0.0434  0.0416
 2037TIP3    H127602   5.374   4.767   3.331  0.4275  0.6746 -1.2154
 2037TIP3    H227603   5.231   4.763   3.282  0.0562  0.5946 -0.1410
 2038TIP3   OH227604   5.686   5.974   5.016 -0.8701  0.0866  0.4068
 2038TIP3    H127605   5.730   6.029   5.081 -0.1855  1.6286 -1.2748
 2038TIP3    H227606   5.604   6.020   4.997 -0.2585  0.6039 -1.0698
 2039TIP3   OH227607   3.865   3.712  16.661  0.2820 -0.4356  0.0575
 2039TIP3    H127608   3.871   3.653  16.585 -0.3164  1.3173 -1.4344
 2039TIP3    H227609   3.949   3.703  16.705  0.3151 -2.1564 -0.2875
 2040TIP3   OH227610   0.526   5.745   6.404  0.3966 -0.1020 -0.6734
 2040TIP3    H127611   0.452   5.795   6.438  0.4725  0.1059 -0.8164
 2040TIP3    H227612   0.601   5.802   6.416  0.4441 -0.0764 -1.0847
 2041TIP3   OH227613   5.715   5.907  15.788  0.3521 -0.3713  0.1087
 2041TIP3    H127614   5.700   5.913  15.694  0.7223  1.5028  0.1203
 2041TIP3    H227615   5.629   5.888  15.826 -0.3433  1.4728 -0.4462
 2042TIP3   OH227616   0.414   0.804   4.610  0.1814 -0.7133 -0.0348
 2042TIP3    H127617   0.348   0.790   4.679 -1.3571 -1.4892 -1.5964
 2042TIP3    H227618   0.365   0.842   4.537  1.5812 -0.8032 -1.0620
 2043TIP3   OH227619   2.877   1.284   1.562  0.0315  0.1160  0.1467
 2043TIP3    H127620   2.813   1.223   1.525 -1.4814  0.1332  2.4706
 2043TIP3    H227621   2.960   1.238   1.557 -0.7639 -1.3714  0.1343
 2044TIP3   OH227622   1.857   3.042  12.455  0.7544 -0.0089 -0.1038
 2044TIP3    H127623   1.834   3.074  12.367 -0.3208  0.4296  0.3243
 2044TIP3    H227624   1.941   3.084  12.475 -0.6589  2.7235  0.4928
 2045TIP3   OH227625   6.836   0.811   4.899  0.1455 -0.5017  0.5095
 2045TIP3    H127626   6.755   0.785   4.944 -0.5508  0.2125 -0.2887
 2045TIP3    H227627   6.823   0.784   4.808  0.8917 -0.5564  0.4141
 2046TIP3   OH227628   5.004   6.839  15.446 -0.1439 -0.2206 -0.2003
 2046TIP3    H127629   4.964   6.756  15.420  0.3054 -0.4006 -0.3101
 2046TIP3    H227630   4.964   6.904  15.388 -0.6585 -0.3217  0.0318
 2047TIP3   OH227631   5.974   5.918   0.522 -0.3750 -0.0204 -0.8743
 2047TIP3    H127632   6.006   5.965   0.599 -1.9124  0.9318 -0.7806
 2047TIP3    H227633   6.053   5.905   0.468  0.3535  1.2891 -0.1716
 2048TIP3   OH227634   3.180   4.649   2.774 -0.2972  0.2005  0.2331
 2048TIP3    H127635   3.208   4.698   2.852 -2.5850  2.3295 -0.1472
 2048TIP3    H227636   3.260   4.634   2.725  0.7251  2.2732  1.1573
 2049TIP3   OH227637   6.583   5.499   4.119  0.5077  0.2172  0.3373
 2049TIP3    H127638   6.505   5.506   4.065  2.2150  1.4101 -2.1463
 2049TIP3    H227639   6.612   5.409   4.107 -1.5968 -0.9978  3.1346
 2050TIP3   OH227640   4.895   5.616  16.834  0.2235  0.5310  0.9557
 2050TIP3    H127641   4.823   5.663  16.875 -0.2588 -0.6258  1.4661
 2050TIP3    H227642   4.935   5.681  16.776 -0.6352  1.4632  1.3679
 2051TIP3   OH227643   1.685   0.084   3.267  0.2690  0.0419  0.1298
 2051TIP3    H127644   1.780   0.083   3.261  0.3419 -0.1427  1.0803
 2051TIP3    H227645   1.660  -0.008   3.266  0.4405 -0.2036  3.7094
 2052TIP3   OH227646   3.361   6.798   1.044 -0.1304  0.0447 -0.3162
 2052TIP3    H127647   3.345   6.869   1.107 -0.8323  0.5554 -1.0434
 2052TIP3    H227648   3.456   6.798   1.032  0.0902 -0.4899  1.2126
 2053TIP3   OH227649   4.667   0.155  14.957  0.2308 -0.2523  0.0636
 2053TIP3    H127650   4.656   0.137  15.050  1.1970 -0.1148  0.2062
 2053TIP3    H227651   4.734   0.093  14.928 -0.5752 -0.7906 -0.7039
 2054TIP3   OH227652   2.127   5.570   4.302  0.4771  0.1054  0.0460
 2054TIP3    H127653   2.131   5.545   4.395  4.2390  0.3909  0.1017
 2054TIP3    H227654   2.129   5.665   4.303 -1.1443  0.1877 -0.4032
 2055TIP3   OH227655   1.331   2.677  16.681  0.0259  0.2531 -0.4418
 2055TIP3    H127656   1.337   2.737  16.755  1.9362  3.0430 -2.6718
 2055TIP3    H227657   1.258   2.710  16.629  0.5741  0.1859 -1.2769
 2056TIP3   OH227658   3.967   5.977   6.479  0.4368 -0.1587  0.8030
 2056TIP3    H127659   3.974   5.897   6.531  1.9127  0.4881  1.6594
 2056TIP3    H227660   3.878   5.975   6.443  0.6470 -2.5118  0.2367
 2057TIP3   OH227661   2.652   3.657  16.208  0.0644 -0.1497 -0.6403
 2057TIP3    H127662   2.583   3.723  16.211  0.2768  0.0940 -1.1240
 2057TIP3    H227663   2.606   3.575  16.187 -0.0243  0.0894 -1.4007
 2058TIP3   OH227664   2.501   6.132   1.476 -0.4170  0.2512  0.2539
 2058TIP3    H127665   2.580   6.151   1.425 -2.0466  0.8407 -2.2130
 2058TIP3    H227666   2.468   6.218   1.501 -0.0181 -0.0116  1.8563
 2059TIP3   OH227667   3.526   5.495  13.798  0.3274 -0.3816 -0.2555
 2059TIP3    H127668   3.469   5.440  13.744  0.3290 -0.2247 -0.4171
 2059TIP3    H227669   3.489   5.582  13.792  1.9257  0.2353 -2.3182
 2060TIP3   OH227670   5.542   4.911   3.784  0.3829  0.6859 -0.5348
 2060TIP3    H127671   5.451   4.930   3.760  0.5845  0.2480 -1.6858
 2060TIP3    H227672   5.593   4.937   3.708  1.1725  0.3773 -0.1189
 2061TIP3   OH227673   1.616   0.655  13.510 -0.1158 -0.2392  0.1723
 2061TIP3    H127674   1.559   0.703  13.571 -0.4961 -0.2561 -0.1608
 2061TIP3    H227675   1.555   0.600  13.461  0.2292 -0.4709  0.0084
 2062TIP3   OH227676   3.446   6.123   4.840 -0.0722  0.3602  0.0755
 2062TIP3    H127677   3.536   6.095   4.826  0.0496 -0.8185  2.6559
 2062TIP3    H227678   3.449   6.177   4.920 -1.7207 -0.3262  0.6567
 2063TIP3   OH227679   4.280   6.104   4.579 -0.0141 -0.8183  0.4806
 2063TIP3    H127680   4.199   6.154   4.567  0.6362  1.1655  3.3469
 2063TIP3    H227681   4.251   6.022   4.618 -0.6996 -0.0704  1.6273
 2064TIP3   OH227682   4.787   3.448   2.256 -0.2518 -0.2501  0.4351
 2064TIP3    H127683   4.875   3.485   2.248  0.1398 -0.9513  1.3578
 2064TIP3    H227684   4.761   3.429   2.166  0.0552  1.0542  0.0507
 2065TIP3   OH227685   1.805   5.622   2.301  0.9004 -0.3922 -0.1193
 2065TIP3    H127686   1.847   5.541   2.275  2.0249  0.1175  0.0300
 2065TIP3    H227687   1.755   5.599   2.379  1.3039 -0.9233 -0.0103
 2066TIP3   OH227688   4.418   6.854  16.539 -0.1690 -0.4272  0.2099
 2066TIP3    H127689   4.446   6.775  16.584 -0.1894  0.2720  1.4928
 2066TIP3    H227690   4.499   6.904  16.526  0.0937 -1.2890 -1.9903
 2067TIP3   OH227691   3.248   2.711   2.758 -1.2140 -0.4042 -0.0454
 2067TIP3    H127692   3.185   2.711   2.829 -2.6563 -0.1395 -1.2601
 2067TIP3    H227693   3.292   2.796   2.765 -1.6543 -0.1998  0.2803
 2068TIP3   OH227694   5.175   2.711   5.129  0.6166  0.2180  0.2822
 2068TIP3    H127695   5.095   2.753   5.097 -0.1713 -1.2183  0.2472
 2068TIP3    H227696   5.201   2.653   5.057  0.9727 -0.2455  0.7758
 2069TIP3   OH227697   6.504   0.388  12.321 -0.1538  0.4156 -0.4425
 2069TIP3    H127698   6.504   0.294  12.301 -0.1129 -0.2348  2.2508
 2069TIP3    H227699   6.486   0.392  12.414  3.3103  2.9388  0.3014
 2070TIP3   OH227700   5.493   6.146  14.218 -0.0452  0.7216  0.1411
 2070TIP3    H127701   5.427   6.099  14.167  0.2797  1.2020 -0.7380
 2070TIP3    H227702   5.442   6.193  14.285 -0.5586  0.7890 -0.2934
 2071TIP3   OH227703   2.709   3.787   3.247  0.0684 -0.0194  0.1672
 2071TIP3    H127704   2.758   3.720   3.199 -0.5404 -1.2277  1.1861
 2071TIP3    H227705   2.626   3.795   3.200 -0.8340 -1.7433  1.3762
 2072TIP3   OH227706   3.192   3.149  12.373 -0.4930 -0.3350  0.1999
 2072TIP3    H127707   3.230   3.232  12.343 -0.1230  0.1605  1.9243
 2072TIP3    H227708   3.100   3.169  12.388 -0.2855 -0.0550  1.1688
 2073TIP3   OH227709   0.711   4.024   2.066 -0.5639 -0.4712 -0.2561
 2073TIP3    H127710   0.659   4.047   1.988 -0.6225  3.4734  0.7332
 2073TIP3    H227711   0.795   3.997   2.031 -0.9710  0.0825 -1.7497
 2074TIP3   OH227712   2.933   4.267  12.943 -0.3405 -0.0774  0.4747
 2074TIP3    H127713   2.927   4.331  12.872  0.9969  0.5105  0.8476
 2074TIP3    H227714   2.969   4.188  12.901  2.3099  0.8635  0.7502
 2075TIP3   OH227715   5.492   5.676  16.677 -0.1038 -0.5608 -0.3362
 2075TIP3    H127716   5.538   5.756  16.700 -1.0208  0.0883 -0.6960
 2075TIP3    H227717   5.428   5.664  16.748 -0.2727 -0.7247 -0.5144
 2076TIP3   OH227718   3.567   1.918   1.641  0.0760  0.1921  0.7716
 2076TIP3    H127719   3.613   1.876   1.569  2.0184  3.1064  0.1349
 2076TIP3    H227720   3.475   1.896   1.627  0.5105 -0.2476 -1.9532
 2077TIP3   OH227721   5.913   3.117  14.426 -0.9752  0.0530 -0.2545
 2077TIP3    H127722   5.935   3.101  14.334 -2.1706  0.6871 -0.6749
 2077TIP3    H227723   5.915   3.031  14.467 -2.8423 -0.6219 -1.4485
 2078TIP3   OH227724   3.710   1.253   0.829 -0.2995  0.5713  0.3259
 2078TIP3    H127725   3.640   1.188   0.820  1.0976 -0.6904 -2.8844
 2078TIP3    H227726   3.772   1.214   0.890  0.0785 -0.7666 -0.8655
 2079TIP3   OH227727   1.309   2.609  15.533  0.2019 -0.0184 -0.0647
 2079TIP3    H127728   1.301   2.627  15.439 -2.0881  1.0757  0.2621
 2079TIP3    H227729   1.278   2.519  15.543 -2.4353  0.7944 -0.1059
 2080TIP3   OH227730   1.404   0.671   3.654  0.4098  0.1511 -0.3917
 2080TIP3    H127731   1.458   0.640   3.727 -0.4243 -0.2235  0.0725
 2080TIP3    H227732   1.388   0.593   3.601 -0.8004 -0.0410  0.2098
 2081TIP3   OH227733   0.919   2.607  15.050 -0.3321  0.2659 -0.4462
 2081TIP3    H127734   0.891   2.686  15.096  0.0988  0.1735 -0.0211
 2081TIP3    H227735   0.880   2.535  15.100  1.2299  0.0978  0.5835
 2082TIP3   OH227736   1.615   3.935  12.963 -0.1811 -0.1045  1.1164
 2082TIP3    H127737   1.616   3.846  12.998 -0.1318  0.1312  1.7286
 2082TIP3    H227738   1.592   3.924  12.871  1.1451 -0.8685  0.8436
 2083TIP3   OH227739   5.611   1.396  14.492  0.0293  0.2006 -0.1305
 2083TIP3    H127740   5.706   1.392  14.501  0.3672 -1.5847 -3.0735
 2083TIP3    H227741   5.578   1.330  14.553  0.7941 -0.0248  0.0462
 2084TIP3   OH227742   6.753   2.102  10.370  0.4638  0.3487 -0.6337
 2084TIP3    H127743   6.762   2.008  10.384  1.3855  0.8176  2.7940
 2084TIP3    H227744   6.832   2.126  10.320  0.8551 -0.5211 -0.4579
 2085TIP3   OH227745   2.766   2.034   3.517 -0.2415  0.4161  0.4697
 2085TIP3    H127746   2.678   2.000   3.503 -0.6964  1.3339  1.0439
 2085TIP3    H227747   2.770   2.112   3.462 -0.8315  2.0653  2.6514
 2086TIP3   OH227748   3.231   6.658   2.139  0.4783  0.2783  0.1995
 2086TIP3    H127749   3.145   6.682   2.174  0.8743 -1.1281  2.3255
 2086TIP3    H227750   3.215   6.578   2.088  0.4427  0.3529  0.0927
 2087TIP3   OH227751   1.766   5.644  14.896 -0.2058  0.2107  0.9297
 2087TIP3    H127752   1.718   5.723  14.868 -1.2248 -0.5609  0.4451
 2087TIP3    H227753   1.706   5.572  14.877  0.9539 -0.7416  0.8276
 2088TIP3   OH227754   1.630   1.448  11.630  0.1650  0.3198  0.1110
 2088TIP3    H127755   1.657   1.361  11.602 -1.5481  1.0008 -4.4783
 2088TIP3    H227756   1.695   1.507  11.592 -1.2717  1.2302 -1.0495
 2089TIP3   OH227757   4.681   4.902  12.219 -1.2789 -0.6055 -0.9527
 2089TIP3    H127758   4.720   4.894  12.132 -1.7521  0.4851 -1.2734
 2089TIP3    H227759   4.753   4.886  12.279 -0.4301  0.8350 -1.5424
 2090TIP3   OH227760   6.676   6.728   0.575 -0.1606 -0.0518 -0.7885
 2090TIP3    H127761   6.739   6.787   0.617 -0.9271 -0.1281  0.5259
 2090TIP3    H227762   6.728   6.681   0.509  0.3905  2.3442 -2.1959
 2091TIP3   OH227763   2.775   0.235   1.889 -0.7389 -0.3750 -0.0568
 2091TIP3    H127764   2.769   0.285   1.971  0.3210 -1.1321  0.5131
 2091TIP3    H227765   2.739   0.293   1.823  2.1545  1.9680  0.2286
 2092TIP3   OH227766   6.404   6.662   3.291 -0.0371  0.5027 -0.2445
 2092TIP3    H127767   6.451   6.584   3.262  0.9604  1.4594 -1.2594
 2092TIP3    H227768   6.349   6.686   3.216 -0.5786  0.6147  0.1807
 2093TIP3   OH227769   6.100   4.559   3.497 -0.5044  0.3062  0.2313
 2093TIP3    H127770   6.008   4.546   3.473 -0.5646  0.3160  0.4535
 2093TIP3    H227771   6.110   4.510   3.579 -0.4633  0.8035  0.5258
 2094TIP3   OH227772   2.896   0.167  13.915  0.3935  0.1406 -0.3593
 2094TIP3    H127773   2.909   0.221  13.993 -1.1211  1.6569 -1.0875
 2094TIP3    H227774   2.817   0.116  13.934  0.2359  0.2322 -0.7583
 2095TIP3   OH227775   3.873   4.614   6.361 -0.2804  0.5874  0.5971
 2095TIP3    H127776   3.880   4.556   6.285  1.5782 -3.1238  3.2579
 2095TIP3    H227777   3.803   4.576   6.414  0.4375  1.2220  2.0682
 2096TIP3   OH227778   4.070   0.898   6.452 -0.2188  0.1308  0.4523
 2096TIP3    H127779   4.044   0.849   6.530  1.9044 -3.4955 -0.8886
 2096TIP3    H227780   4.155   0.936   6.475 -0.6706  1.0519  0.6343
 2097TIP3   OH227781   0.411   2.027  14.028 -0.5725  0.6013 -0.9719
 2097TIP3    H127782   0.325   2.005  13.992 -1.2900  0.1915  0.8442
 2097TIP3    H227783   0.414   2.122  14.026 -2.3148  0.8226  1.4173
 2098TIP3   OH227784   2.459   4.566   0.854 -0.0005  0.0921 -0.7626
 2098TIP3    H127785   2.399   4.494   0.875 -0.9158  0.2457 -2.6492
 2098TIP3    H227786   2.539   4.523   0.823 -0.5258 -0.1453 -1.8353
 2099TIP3   OH227787   2.635   3.175  14.815 -0.2821  0.2238  0.0838
 2099TIP3    H127788   2.658   3.268  14.817  0.7645 -0.0251  0.2210
 2099TIP3    H227789   2.667   3.140  14.898 -2.0691  0.0300  0.7437
 2100TIP3   OH227790   2.316   3.433   3.851 -0.0870 -0.1698  0.5496
 2100TIP3    H127791   2.265   3.478   3.918 -1.7687 -0.7081 -0.3177
 2100TIP3    H227792   2.394   3.487   3.841 -0.4673  0.6971  1.9087
 2101TIP3   OH227793   0.154   1.761   3.744 -0.1286  0.2761 -0.1782
 2101TIP3    H127794   0.101   1.683   3.728 -0.4591  0.4839 -0.1040
 2101TIP3    H227795   0.140   1.816   3.668 -2.1626  1.5201  1.0251
 2102TIP3   OH227796   2.857   0.193  11.436 -0.4922 -0.3207 -0.0461
 2102TIP3    H127797   2.778   0.248  11.434  1.2707  2.4228 -0.0349
 2102TIP3    H227798   2.829   0.110  11.398 -2.8874  1.2652 -2.1574
 2103TIP3   OH227799   6.685   6.051  12.381  0.5856 -0.2980  0.2968
 2103TIP3    H127800   6.723   6.135  12.407 -0.5042  0.9261 -1.7979
 2103TIP3    H227801   6.713   5.990  12.449 -0.0797  2.1028  2.9291
 2104TIP3   OH227802   3.238   5.522  12.953  0.1913 -0.4772 -0.9211
 2104TIP3    H127803   3.276   5.461  13.015  1.0285  0.2898 -0.6528
 2104TIP3    H227804   3.189   5.584  13.006 -1.7652 -1.6244 -1.2846
 2105TIP3   OH227805   2.572   5.199  13.480  0.0716  0.0857  0.1587
 2105TIP3    H127806   2.520   5.132  13.435 -0.7205  0.3553  0.6476
 2105TIP3    H227807   2.514   5.275  13.486  0.1369  0.0587  1.6275
 2106TIP3   OH227808   1.402   1.007  11.331 -0.5436  0.2823 -0.0426
 2106TIP3    H127809   1.392   1.102  11.329  1.0556  0.5056  1.0562
 2106TIP3    H227810   1.399   0.984  11.424  0.6077 -0.5451 -0.1925
 2107TIP3   OH227811   2.865   5.265  13.499 -0.2782 -0.2123  0.5478
 2107TIP3    H127812   2.850   5.343  13.552 -2.6582 -0.8229  0.9133
 2107TIP3    H227813   2.777   5.237  13.473  0.6602 -1.3723 -1.6498
 2108TIP3   OH227814   1.058   1.173  12.061 -0.6117 -0.0479 -0.3006
 2108TIP3    H127815   1.047   1.171  11.966  1.2120 -0.8814 -0.5542
 2108TIP3    H227816   0.975   1.206  12.094 -1.5330 -0.3440 -2.1399
 2109TIP3   OH227817   2.593   2.244   2.305 -0.0410 -0.0598  0.3278
 2109TIP3    H127818   2.669   2.186   2.313 -0.6366 -0.9493 -0.3720
 2109TIP3    H227819   2.573   2.270   2.395  0.8246 -0.1498  0.5579
 2110TIP3   OH227820   2.690   0.922   0.886 -0.2364  0.2828 -0.0224
 2110TIP3    H127821   2.685   0.914   0.981 -0.2217 -0.0829 -0.0544
 2110TIP3    H227822   2.772   0.968   0.870  0.1539 -0.3737  0.0973
 2111TIP3   OH227823   1.580   6.184   4.463 -0.3983 -0.4176  0.5135
 2111TIP3    H127824   1.590   6.124   4.388  0.1723 -0.7400  0.8379
 2111TIP3    H227825   1.623   6.138   4.535  0.2687  0.4906  0.7106
 2112TIP3   OH227826   5.073   6.649   0.233 -0.2452 -0.0492 -0.1262
 2112TIP3    H127827   4.997   6.634   0.289  0.9621 -0.3292  1.4932
 2112TIP3    H227828   5.112   6.562   0.222  0.8526  0.3407  0.5683
 2113TIP3   OH227829   1.704   4.160   1.168  0.0988  0.2602  0.0391
 2113TIP3    H127830   1.676   4.086   1.221  0.6304 -0.3284 -0.4823
 2113TIP3    H227831   1.754   4.121   1.096  2.1296  1.2419  0.8293
 2114TIP3   OH227832   0.643   1.134   0.554 -0.1652  0.1517 -0.5795
 2114TIP3    H127833   0.637   1.101   0.464 -1.8188 -1.1833 -0.0303
 2114TIP3    H227834   0.589   1.074   0.605 -0.1614  1.5393  1.1406
 2115TIP3   OH227835   3.467   0.972  15.131 -0.5832  0.3163 -0.3721
 2115TIP3    H127836   3.525   0.900  15.108 -1.6215 -0.0339 -2.0515
 2115TIP3    H227837   3.494   1.044  15.074  0.1155  1.1214  0.9341
 2116TIP3   OH227838   1.959   0.049   4.334 -0.2591 -0.2708  0.1879
 2116TIP3    H127839   1.930   0.041   4.425 -0.7647  2.1564  0.3065
 2116TIP3    H227840   1.902  -0.010   4.286 -1.7998  0.3600  1.1396
 2117TIP3   OH227841   3.633   3.617  12.318  0.8052  0.3936  0.2546
 2117TIP3    H127842   3.664   3.531  12.289  0.1668  0.3409 -0.2944
 2117TIP3    H227843   3.702   3.677  12.290  1.0117  0.1250  0.1777
 2118TIP3   OH227844   2.672   3.351   3.969 -0.4014  0.3421  0.1168
 2118TIP3    H127845   2.613   3.277   3.956  0.1247 -0.5102  2.1257
 2118TIP3    H227846   2.751   3.328   3.919 -0.5706 -0.0558  0.0273
 2119TIP3   OH227847   2.484   2.809   5.383 -0.1231  0.3467 -0.2005
 2119TIP3    H127848   2.557   2.863   5.413 -2.6625  3.6140  0.6557
 2119TIP3    H227849   2.500   2.796   5.290  2.8418 -1.4709  0.4057
 2120TIP3   OH227850   6.792   4.501  11.569  0.2029  0.3455  0.2964
 2120TIP3    H127851   6.843   4.435  11.522 -0.8980  0.0048 -0.4876
 2120TIP3    H227852   6.843   4.581  11.562  0.8748 -0.1033  0.0001
 2121TIP3   OH227853   4.888   0.717   5.319  0.1076  0.2225  0.3029
 2121TIP3    H127854   4.917   0.644   5.374  0.1468  0.2494  0.3182
 2121TIP3    H227855   4.875   0.790   5.380  2.7217  1.0481 -0.0158
 2122TIP3   OH227856   4.139   5.374   4.327  0.2295  0.3894  0.4309
 2122TIP3    H127857   4.091   5.293   4.309 -0.9910  1.0684  0.4749
 2122TIP3    H227858   4.097   5.440   4.271  1.7651  0.8309 -0.2558
 2123TIP3   OH227859   1.345   0.738  14.818 -0.9564 -0.0602  0.0603
 2123TIP3    H127860   1.365   0.773  14.905  1.5686 -1.3016  0.0591
 2123TIP3    H227861   1.309   0.651  14.835  0.3691 -0.6661 -0.1099
 2124TIP3   OH227862   4.419   0.191  12.852 -0.0690 -0.2517 -0.1907
 2124TIP3    H127863   4.359   0.127  12.890  1.1491 -1.7481 -0.7272
 2124TIP3    H227864   4.386   0.205  12.763 -0.8387  0.5579  0.2050
 2125TIP3   OH227865   6.634   0.515   4.697  0.3729 -0.3620  0.4313
 2125TIP3    H127866   6.651   0.573   4.770 -1.4667  0.0037  0.6136
 2125TIP3    H227867   6.643   0.570   4.619  0.8932 -0.4017  0.4609
 2126TIP3   OH227868   0.669   6.757   0.710  0.2921  0.4579  0.7150
 2126TIP3    H127869   0.763   6.746   0.723  0.5029 -0.4083 -1.2268
 2126TIP3    H227870   0.639   6.802   0.789  2.2266  0.2382  1.6315
 2127TIP3   OH227871   4.498   1.848  17.130 -0.2927  0.0433  0.4876
 2127TIP3    H127872   4.420   1.847  17.074 -0.2497 -0.1054  0.4310
 2127TIP3    H227873   4.567   1.883  17.075 -0.5194  1.0365  0.8008
 2128TIP3   OH227874   2.500   4.888  16.015 -0.1859  0.0308  0.2147
 2128TIP3    H127875   2.541   4.953  16.072  1.4066 -1.1753  0.5239
 2128TIP3    H227876   2.525   4.804  16.053  0.5525 -0.8212 -1.9615
 2129TIP3   OH227877   0.195   4.059   1.237  0.1209 -0.4933 -0.1237
 2129TIP3    H127878   0.144   4.133   1.205 -0.3647 -0.1469  1.3848
 2129TIP3    H227879   0.175   3.987   1.176 -1.7011 -0.1943  0.0919
 2130TIP3   OH227880   1.911   4.484   2.809 -0.1080  0.0124 -0.0441
 2130TIP3    H127881   1.863   4.494   2.727  1.6682  2.0331 -0.9566
 2130TIP3    H227882   1.971   4.411   2.793  1.6362  1.6250 -1.4106
 2131TIP3   OH227883   0.696   6.088   3.983 -0.6691  1.0087  0.0228
 2131TIP3    H127884   0.731   6.143   3.913 -1.5128 -0.8681 -2.0241
 2131TIP3    H227885   0.618   6.133   4.013 -1.8691  0.6247 -2.2477
 2132TIP3   OH227886   4.414   0.598   1.899 -0.3117 -0.3626 -0.5180
 2132TIP3    H127887   4.479   0.583   1.830 -0.6120 -2.3343 -0.4216
 2132TIP3    H227888   4.349   0.655   1.858  0.2648 -0.2974 -1.3748
 2133TIP3   OH227889   0.476   0.071  14.843  0.1367  0.4461 -0.0914
 2133TIP3    H127890   0.533   0.019  14.787 -1.3393 -0.6538 -0.6275
 2133TIP3    H227891   0.445   0.010  14.910  0.8908  1.4452  1.2106
 2134TIP3   OH227892   5.525   1.603  13.278 -0.3837  0.3047  0.4569
 2134TIP3    H127893   5.502   1.535  13.214  0.6093  0.2977  0.0982
 2134TIP3    H227894   5.453   1.600  13.342  0.6150 -2.5517  1.6130
 2135TIP3   OH227895   0.867   1.779  16.340  0.4215  0.4591 -0.0016
 2135TIP3    H127896   0.821   1.806  16.419  1.8174  2.4992  0.1586
 2135TIP3    H227897   0.797   1.755  16.279 -0.7537  1.0961  1.0547
 2136TIP3   OH227898   2.189   6.311   2.395 -0.4075 -0.3738  0.4101
 2136TIP3    H127899   2.137   6.231   2.408 -0.4767 -0.6730 -1.3675
 2136TIP3    H227900   2.247   6.289   2.322  0.2814  0.8877  0.5564
 2137TIP3   OH227901   0.603   5.464   0.140  0.3205 -0.2310 -0.0650
 2137TIP3    H127902   0.632   5.443   0.051  1.1448  1.4324 -0.2271
 2137TIP3    H227903   0.574   5.555   0.134 -1.0730 -0.5846  1.0404
 2138TIP3   OH227904   5.541   2.923  11.246 -0.1040  0.5322  0.3393
 2138TIP3    H127905   5.560   2.865  11.172 -0.2059  1.9059 -0.7886
 2138TIP3    H227906   5.615   2.983  11.249 -0.1671  0.5730  1.2848
 2139TIP3   OH227907   5.083   3.660   5.808 -0.1217 -0.1501 -0.5167
 2139TIP3    H127908   5.082   3.745   5.765 -0.7313 -0.4489 -1.1033
 2139TIP3    H227909   5.070   3.679   5.900  3.3830  0.6978 -0.0637
 2140TIP3   OH227910   6.290   2.504  13.968 -0.7973  0.1934  0.0692
 2140TIP3    H127911   6.200   2.513  13.938 -1.5122 -1.7458  1.4304
 2140TIP3    H227912   6.304   2.410  13.974  2.0802  0.3524 -2.1314
 2141TIP3   OH227913   6.693   5.909   6.047 -0.2122 -0.0936  0.7088
 2141TIP3    H127914   6.607   5.941   6.076 -0.6443 -0.6918  0.1066
 2141TIP3    H227915   6.733   5.984   6.003 -1.5213 -0.5455 -1.3557
 2142TIP3   OH227916   5.135   2.604   3.988  0.6672  0.2821  0.7220
 2142TIP3    H127917   5.155   2.547   4.062 -0.1313  0.1000  0.8154
 2142TIP3    H227918   5.074   2.553   3.935  2.4788 -0.2459 -0.9543
 2143TIP3   OH227919   1.745   0.709  15.167  0.4848 -0.7676 -0.4250
 2143TIP3    H127920   1.790   0.780  15.122  2.6512 -1.6803  0.2023
 2143TIP3    H227921   1.659   0.706  15.125  0.0298  2.6148 -0.0226
 2144TIP3   OH227922   6.292   2.043  16.038  0.4730 -0.2974 -0.6039
 2144TIP3    H127923   6.223   2.102  16.008  0.7077  0.8348  0.9852
 2144TIP3    H227924   6.246   1.969  16.078  0.1832 -0.2069 -0.7724
 2145TIP3   OH227925   0.441   3.870  15.653  0.0575 -0.4561 -0.6087
 2145TIP3    H127926   0.363   3.825  15.684  0.8849 -2.2241 -0.9680
 2145TIP3    H227927   0.422   3.892  15.562 -1.8190  3.4843  0.4772
 2146TIP3   OH227928   2.317   6.390  17.084 -0.8974 -0.3587  0.2948
 2146TIP3    H127929   2.349   6.300  17.085 -0.1896 -0.1420  2.2367
 2146TIP3    H227930   2.229   6.384  17.048 -0.2787 -1.5887 -1.1113
 2147TIP3   OH227931   0.320   6.840   5.363 -0.2071 -0.7675  0.2172
 2147TIP3    H127932   0.356   6.842   5.274  2.0246  0.0996  1.0651
 2147TIP3    H227933   0.249   6.903   5.362  1.8094  1.6539 -0.2315
 2148TIP3   OH227934   6.318   4.120   1.206  0.1395  0.0806 -0.6698
 2148TIP3    H127935   6.257   4.194   1.208  0.8037  0.6589 -1.2822
 2148TIP3    H227936   6.277   4.054   1.262 -0.5554  0.8368 -0.2625
 2149TIP3   OH227937   6.365   1.429   0.588  0.0067  0.2304  0.8992
 2149TIP3    H127938   6.444   1.437   0.535 -1.3442  0.8799 -1.1573
 2149TIP3    H227939   6.297   1.401   0.525 -1.5639  0.4853  2.4105
 2150TIP3   OH227940   2.628   5.006  12.495 -0.2888  0.2993 -0.2195
 2150TIP3    H127941   2.666   4.920  12.479  0.2932 -0.0085  2.2755
 2150TIP3    H227942   2.691   5.067  12.457  0.9668 -0.3281  0.7463
 2151TIP3   OH227943   6.500   1.294   2.350 -0.6122 -0.1329  0.4412
 2151TIP3    H127944   6.476   1.204   2.373  0.5436 -0.8781 -1.1091
 2151TIP3    H227945   6.595   1.290   2.335 -0.7071  1.1210 -0.5961
 2152TIP3   OH227946   3.958   6.362   2.045  0.4421 -0.0933 -0.1849
 2152TIP3    H127947   4.035   6.412   2.070  1.8876 -1.0756 -2.3535
 2152TIP3    H227948   3.977   6.272   2.071 -0.8066 -0.0806  0.9055
 2153TIP3   OH227949   0.344   4.185   5.877 -0.2187  0.4411 -0.1718
 2153TIP3    H127950   0.387   4.259   5.833  0.0846 -0.2453 -1.0511
 2153TIP3    H227951   0.389   4.178   5.961  0.9758  0.1423 -0.8089
 2154TIP3   OH227952   6.830   5.065   5.891  0.2764 -0.6113 -0.3375
 2154TIP3    H127953   6.795   5.019   5.967 -0.4456  1.6924  0.8179
 2154TIP3    H227954   6.881   5.137   5.927 -3.4642  3.1704 -1.7610
 2155TIP3   OH227955   5.760   6.383  11.824  0.0857  0.1365  0.3284
 2155TIP3    H127956   5.835   6.338  11.786 -0.8675 -1.2770  0.0430
 2155TIP3    H227957   5.694   6.314  11.835 -0.5966  1.0209  2.0983
 2156TIP3   OH227958   2.165   4.290   0.055 -0.2899  0.0221  0.3683
 2156TIP3    H127959   2.138   4.310   0.145 -0.1114 -2.0456  0.9327
 2156TIP3    H227960   2.128   4.204   0.037 -0.5041  0.4837 -1.6434
 2157TIP3   OH227961   3.954   1.557  12.364 -0.1738 -0.0920 -0.0475
 2157TIP3    H127962   4.028   1.565  12.425  0.5060 -3.5062 -0.1998
 2157TIP3    H227963   3.992   1.519  12.285 -1.8794 -0.6436 -0.6473
 2158TIP3   OH227964   0.761   0.766   1.922  0.1115  0.2230  0.3031
 2158TIP3    H127965   0.672   0.780   1.954  0.4151  2.0346  0.4707
 2158TIP3    H227966   0.756   0.783   1.828  0.4161  1.1304  0.4419
 2159TIP3   OH227967   4.967   2.193   3.895  0.1886 -0.1162 -0.2743
 2159TIP3    H127968   4.906   2.178   3.968  0.3950  0.5450  0.0428
 2159TIP3    H227969   5.052   2.166   3.929  0.9190  3.2969  0.9728
 2160TIP3   OH227970   2.640   4.660  15.227  0.1574 -0.1058  0.2654
 2160TIP3    H127971   2.594   4.743  15.217  0.3689  0.1234  1.1377
 2160TIP3    H227972   2.691   4.670  15.308  3.5595  0.4846 -1.7588
 2161TIP3   OH227973   0.352   2.266  15.087 -0.0214  0.5760  0.2280
 2161TIP3    H127974   0.370   2.273  15.180  1.0903 -0.1049  0.0900
 2161TIP3    H227975   0.437   2.277  15.045  0.3426 -3.3136 -0.4606
 2162TIP3   OH227976   3.364   4.833   3.765 -0.3727 -0.6432  0.3563
 2162TIP3    H127977   3.344   4.920   3.800 -0.2723 -0.3861 -0.2106
 2162TIP3    H227978   3.290   4.812   3.708 -0.0968 -0.6463 -0.0094
 2163TIP3   OH227979   2.868   6.072  13.011 -0.0764 -0.1888  0.2553
 2163TIP3    H127980   2.903   6.135  12.948  0.2946 -1.8015 -1.2223
 2163TIP3    H227981   2.775   6.065  12.989 -0.3658  0.5991  1.1314
 2164TIP3   OH227982   3.143   4.340  12.703  0.0241 -0.3202  0.1513
 2164TIP3    H127983   3.172   4.332  12.794  0.6421  1.8832  0.1911
 2164TIP3    H227984   3.067   4.397  12.707 -0.1206 -0.4527 -0.6818
 2165TIP3   OH227985   1.326   3.306  14.784 -0.1267  0.2851  0.0638
 2165TIP3    H127986   1.257   3.286  14.721 -1.3263  1.1813  1.0504
 2165TIP3    H227987   1.280   3.333  14.863  1.3554  0.6397  0.8478
 2166TIP3   OH227988   4.398   6.518   0.110  0.3148 -0.6163  0.0021
 2166TIP3    H127989   4.489   6.528   0.084  0.7083 -0.6239  1.2792
 2166TIP3    H227990   4.402   6.466   0.190 -0.7906 -0.3765  0.2316
 2167TIP3   OH227991   0.718   6.483  11.734  0.2360 -0.3868  0.2017
 2167TIP3    H127992   0.745   6.543  11.665  0.6499 -0.8674 -0.0639
 2167TIP3    H227993   0.624   6.499  11.745 -0.0201 -0.9164 -1.0924
 2168TIP3   OH227994   6.360   6.543   2.599  0.1765  0.0350 -0.4723
 2168TIP3    H127995   6.376   6.448   2.598 -0.2766 -0.0767 -2.7083
 2168TIP3    H227996   6.265   6.551   2.585  0.1327  0.8298  0.1918
 2169TIP3   OH227997   0.905   0.032   5.919 -0.0898  0.3889 -0.3765
 2169TIP3    H127998   0.886   0.120   5.888 -1.2396  0.2397 -0.1484
 2169TIP3    H227999   0.838   0.015   5.984 -0.8203 -1.2211 -1.4960
 2170TIP3   OH228000   2.368   0.522   0.099 -0.1372  0.1864 -0.7296
 2170TIP3    H128001   2.380   0.615   0.081 -0.3904  0.4027  0.1602
 2170TIP3    H228002   2.310   0.491   0.029  1.0256  0.3743 -1.8150
 2171TIP3   OH228003   6.354   5.395  12.230  0.6390 -0.5047  0.4724
 2171TIP3    H128004   6.348   5.441  12.146  0.6371 -0.7743  0.3234
 2171TIP3    H228005   6.430   5.337  12.220 -0.3068 -1.7293  0.0533
 2172TIP3   OH228006   2.166   6.846  14.146 -0.1386 -0.0058 -0.1359
 2172TIP3    H128007   2.110   6.776  14.114 -0.8733  0.8751 -0.8632
 2172TIP3    H228008   2.236   6.802  14.195 -0.4179 -1.2417 -0.8170
 2173TIP3   OH228009   4.382   5.855  12.496 -0.8936  0.7345  0.5876
 2173TIP3    H128010   4.430   5.773  12.485 -2.6422 -0.2393 -0.2338
 2173TIP3    H228011   4.407   5.886  12.583 -0.4059 -0.8171  1.0306
 2174TIP3   OH228012   2.952   5.079  14.410  0.1562 -0.3083  0.5186
 2174TIP3    H128013   2.909   5.161  14.388 -0.1483 -0.6625 -0.2471
 2174TIP3    H228014   2.913   5.054  14.494  1.0407  0.8562  1.2965
 2175TIP3   OH228015   5.706   2.039  15.755 -0.7767  0.1197  0.2127
 2175TIP3    H128016   5.668   2.039  15.843 -0.3390  1.2651  0.4176
 2175TIP3    H228017   5.678   1.955  15.717 -1.5321 -0.0965  1.1923
 2176TIP3   OH228018   5.491   5.842  16.431 -0.1897  0.1938 -0.3069
 2176TIP3    H128019   5.435   5.765  16.436 -0.6953  0.6038  0.5636
 2176TIP3    H228020   5.542   5.839  16.512  0.7051  0.0974 -0.8560
 2177TIP3   OH228021   1.600   5.888   6.608 -0.1779  0.1947 -0.2882
 2177TIP3    H128022   1.546   5.845   6.542 -0.7124 -0.8522  0.7900
 2177TIP3    H228023   1.686   5.847   6.599  0.1203  0.9767 -1.1722
 2178TIP3   OH228024   4.493   3.002  14.483  0.7068  0.2099  0.5389
 2178TIP3    H128025   4.572   3.055  14.472 -0.6864  2.5502  1.0946
 2178TIP3    H228026   4.431   3.036  14.418  1.1855 -4.0394 -2.5393
 2179TIP3   OH228027   6.428   1.798   5.633  0.7816 -0.0373 -0.6880
 2179TIP3    H128028   6.364   1.839   5.692  0.0167 -2.2522  0.1264
 2179TIP3    H228029   6.429   1.855   5.557 -0.8264  1.0556  0.0362
 2180TIP3   OH228030   2.689   5.141  11.889 -0.1058  0.0864  0.2007
 2180TIP3    H128031   2.774   5.097  11.883  0.9729  1.8102  1.6460
 2180TIP3    H228032   2.708   5.233  11.870 -2.0951  0.1781 -1.7361
 2181TIP3   OH228033   1.389   6.612  14.331 -0.3814  0.1631  0.2697
 2181TIP3    H128034   1.398   6.706  14.324  2.7057  0.2170  2.7199
 2181TIP3    H228035   1.436   6.577  14.256 -1.2553  0.5195 -0.4632
 2182TIP3   OH228036   1.387   5.625  12.540 -0.1928  0.1656  0.0405
 2182TIP3    H128037   1.407   5.545  12.492 -0.3043  0.6471 -0.8236
 2182TIP3    H228038   1.359   5.594  12.626 -2.0711 -0.8664 -0.8600
 2183TIP3   OH228039   4.575   2.566   4.297 -0.2729  0.2634  0.2924
 2183TIP3    H128040   4.576   2.592   4.205 -1.2982 -0.2028  0.1390
 2183TIP3    H228041   4.510   2.624   4.337 -0.5527 -0.1991  0.5138
 2184TIP3   OH228042   2.431   5.776  16.977 -0.1116 -0.0035  0.4211
 2184TIP3    H128043   2.394   5.689  16.965  0.3781 -0.2050  0.3605
 2184TIP3    H228044   2.457   5.779  17.069  0.5969 -0.2131  0.2371
 2185TIP3   OH228045   2.684   2.994   2.979  0.3022  0.7460  0.2752
 2185TIP3    H128046   2.660   3.081   3.010  1.4723  1.0445  0.3949
 2185TIP3    H228047   2.664   2.936   3.053  4.9397  1.6881  2.6544
 2186TIP3   OH228048   4.903   6.085  12.032 -0.4120  0.2553  0.0280
 2186TIP3    H128049   4.985   6.044  12.006 -0.3233  0.6219 -0.2848
 2186TIP3    H228050   4.838   6.051  11.971 -0.5525 -0.2675  0.4669
 2187TIP3   OH228051   3.768   5.172  15.125  0.3499 -0.0335 -0.3766
 2187TIP3    H128052   3.683   5.138  15.097 -0.6740  1.4229  0.8438
 2187TIP3    H228053   3.812   5.194  15.043 -0.9780  0.4191 -0.9885
 2188TIP3   OH228054   3.921   6.515   2.614 -0.1961  0.0730  0.2986
 2188TIP3    H128055   3.961   6.489   2.531  1.1414  1.9123  0.3195
 2188TIP3    H228056   3.838   6.467   2.616  0.2755 -0.9214 -1.5298
 2189TIP3   OH228057   2.441   1.762  13.185 -0.1986  0.0155  0.2812
 2189TIP3    H128058   2.518   1.816  13.166 -1.0655  1.8029  1.5699
 2189TIP3    H228059   2.448   1.743  13.278 -1.6448  0.7809  0.5684
 2190TIP3   OH228060   2.382   0.790   0.066  0.6594  1.0528 -0.1640
 2190TIP3    H128061   2.308   0.798   0.005 -0.2536 -0.3973  0.6882
 2190TIP3    H228062   2.379   0.871   0.117  0.7955  1.8156 -1.2997
 2191TIP3   OH228063   1.797   4.204   3.963 -0.0208 -0.3727  0.2195
 2191TIP3    H128064   1.835   4.224   3.877  0.7450  1.3236  0.9183
 2191TIP3    H228065   1.769   4.289   3.997 -2.6038 -1.3006  0.6424
 2192TIP3   OH228066   4.098   0.810   3.463  0.5139  0.1440 -0.1710
 2192TIP3    H128067   4.012   0.774   3.441 -0.0712  1.4133 -0.0385
 2192TIP3    H228068   4.143   0.739   3.508  0.0743 -1.0201 -1.5064
 2193TIP3   OH228069   5.962   2.099   1.115 -0.0298  0.7195  0.0696
 2193TIP3    H128070   5.890   2.105   1.051 -0.0443  2.2555  0.1936
 2193TIP3    H228071   5.942   2.167   1.180  0.3807 -0.3259  1.3245
 2194TIP3   OH228072   6.335   3.515  12.834  0.1655  0.4021  0.1757
 2194TIP3    H128073   6.252   3.480  12.867  0.2010  0.7081  0.6009
 2194TIP3    H228074   6.397   3.503  12.907  0.5067  0.1429 -0.1502
 2195TIP3   OH228075   1.018   0.255  17.112  0.2665  0.4737 -0.4779
 2195TIP3    H128076   0.961   0.307  17.169 -0.1715 -3.4994  3.2319
 2195TIP3    H228077   1.079   0.211  17.172  2.4320 -1.1197 -3.5475
 2196TIP3   OH228078   4.386   0.054   2.994  0.0028 -0.0060  0.0735
 2196TIP3    H128079   4.297   0.060   2.958 -0.0894 -0.8592  0.1186
 2196TIP3    H228080   4.389  -0.033   3.035  0.4318  0.5372  1.2432
 2197TIP3   OH228081   4.630   0.344  12.918 -0.1105 -0.6825 -0.3247
 2197TIP3    H128082   4.549   0.294  12.904  0.1108 -2.1147  2.6797
 2197TIP3    H228083   4.700   0.283  12.893  0.0976 -1.0158  1.0000
 2198TIP3   OH228084   0.116   0.641   1.329  0.4922  0.0859 -0.9068
 2198TIP3    H128085   0.067   0.679   1.256  1.7418 -1.0028 -2.3871
 2198TIP3    H228086   0.148   0.716   1.378 -0.5490  0.8424 -1.3468
 2199TIP3   OH228087   3.365   1.486  13.220 -0.1713 -0.1936 -0.8695
 2199TIP3    H128088   3.425   1.461  13.150 -0.8288  0.3158 -1.6300
 2199TIP3    H228089   3.353   1.580  13.210  0.3666  0.0299  0.4509
 2200TIP3   OH228090   6.849   1.699   1.037  0.0799  0.2352  0.5169
 2200TIP3    H128091   6.906   1.623   1.050 -0.9432 -0.5312  0.6482
 2200TIP3    H228092   6.856   1.749   1.118 -0.0848 -0.3058  0.8668
 2201TIP3   OH228093   2.617   4.706  16.159  0.1106 -0.1822 -0.1259
 2201TIP3    H128094   2.678   4.704  16.233  1.3146 -0.6552 -1.1121
 2201TIP3    H228095   2.554   4.636  16.178  0.0977  0.0405  0.6971
 2202TIP3   OH228096   0.882   0.719   0.725  0.3619 -0.4363  0.3503
 2202TIP3    H128097   0.954   0.777   0.702  0.2108 -0.4119 -0.0803
 2202TIP3    H228098   0.911   0.674   0.804  0.3622  0.4229  0.8440
 2203TIP3   OH228099   1.735   1.726   2.309 -0.0781 -0.0653 -0.3544
 2203TIP3    H128100   1.811   1.774   2.274  1.4923 -1.7313  0.5580
 2203TIP3    H228101   1.770   1.639   2.330 -2.0509 -0.6003  0.9480
 2204TIP3   OH228102   0.887   3.718   0.541 -0.0135  0.6334 -0.0399
 2204TIP3    H128103   0.870   3.797   0.593 -1.9130 -0.5971  1.3323
 2204TIP3    H228104   0.937   3.661   0.599  0.6211  0.4887 -0.7216
 2205TIP3   OH228105   1.288   4.704  16.919 -0.2901 -0.1168 -0.5110
 2205TIP3    H128106   1.366   4.756  16.901 -0.5749  0.5610  0.1209
 2205TIP3    H228107   1.219   4.748  16.869 -0.6256  0.4192  0.3879
 2206TIP3   OH228108   0.471   2.023  10.962  0.4021  0.2756 -0.0607
 2206TIP3    H128109   0.410   2.079  11.009  0.1935 -0.3287  0.3972
 2206TIP3    H228110   0.517   1.974  11.030 -0.0904 -0.8036 -0.4778
 2207TIP3   OH228111   6.494   1.730  14.735  0.0140  0.6022  0.2775
 2207TIP3    H128112   6.559   1.801  14.736 -0.1054  0.8795  3.9328
 2207TIP3    H228113   6.419   1.768  14.690  1.0585  1.6605 -0.6377
 2208TIP3   OH228114   5.611   0.732   1.753 -0.4157 -0.6994  0.3323
 2208TIP3    H128115   5.680   0.795   1.736 -0.3781 -1.0781 -1.0240
 2208TIP3    H228116   5.640   0.652   1.708 -1.1973 -1.2155  0.7188
 2209TIP3   OH228117   3.953   5.753  13.435  0.1720 -0.2834 -0.1526
 2209TIP3    H128118   3.900   5.688  13.480 -1.2093 -0.8480 -2.4433
 2209TIP3    H228119   3.994   5.705  13.363  0.9015  0.9205 -0.5796
 2210TIP3   OH228120   4.109   0.925  16.908  0.0483  0.5758 -0.6420
 2210TIP3    H128121   4.121   0.843  16.955 -0.4865  0.7417 -0.2108
 2210TIP3    H228122   4.198   0.955  16.890  0.2852  0.9120  0.9758
 2211TIP3   OH228123   0.499   3.161  16.340 -0.0030 -0.4064 -0.1857
 2211TIP3    H128124   0.442   3.237  16.339  0.3556 -0.1411 -1.1330
 2211TIP3    H228125   0.586   3.195  16.360  0.0117 -0.6806  0.2426
 2212TIP3   OH228126   4.776   4.572  16.051 -0.1915  0.2777  0.5138
 2212TIP3    H128127   4.847   4.548  15.991 -0.5835  0.6046 -0.0909
 2212TIP3    H228128   4.766   4.496  16.108 -0.1039 -0.2111 -0.1118
 2213TIP3   OH228129   5.402   5.482   1.819  0.2396  0.4737 -0.0959
 2213TIP3    H128130   5.421   5.576   1.809 -0.4541  0.7951  1.2835
 2213TIP3    H228131   5.349   5.477   1.899 -0.1513 -1.0525 -0.4241
 2214TIP3   OH228132   4.277   3.502  12.103 -0.5732 -0.0058  0.2192
 2214TIP3    H128133   4.191   3.485  12.142 -0.4279  1.3298  1.1920
 2214TIP3    H228134   4.259   3.557  12.027 -0.6184 -0.1811  0.1021
 2215TIP3   OH228135   3.568   6.755   6.537 -0.1705  0.0880 -0.6126
 2215TIP3    H128136   3.594   6.673   6.495 -1.2979 -0.4638 -0.2852
 2215TIP3    H228137   3.608   6.823   6.483  0.6800 -0.6681 -0.9640
 2216TIP3   OH228138   5.501   0.484  14.438 -0.0893 -0.5665 -0.3592
 2216TIP3    H128139   5.447   0.520  14.367 -1.1793 -0.3643  0.5389
 2216TIP3    H228140   5.572   0.439  14.394  0.1932  0.9736 -1.5620
 2217TIP3   OH228141   2.737   0.744   4.922 -0.1045 -0.2190 -0.4487
 2217TIP3    H128142   2.721   0.824   4.972 -0.8000 -1.7541  1.9725
 2217TIP3    H228143   2.676   0.749   4.848  1.8201  2.7113 -2.0365
 2218TIP3   OH228144   6.343   3.921  15.171 -1.2529  0.4608 -0.7862
 2218TIP3    H128145   6.299   4.003  15.191 -1.7691  0.2687 -1.1231
 2218TIP3    H228146   6.274   3.864  15.138 -0.8623 -0.0449 -0.7377
 2219TIP3   OH228147   1.278   6.687  13.896  0.3778 -0.8952 -0.1499
 2219TIP3    H128148   1.207   6.647  13.947 -0.1303 -0.5300 -0.5474
 2219TIP3    H228149   1.248   6.678  13.805  1.6644 -2.3212 -0.4642
 2220TIP3   OH228150   4.507   0.637   5.013 -0.2242 -0.2240 -0.0975
 2220TIP3    H128151   4.593   0.621   5.053  0.0331  0.4696 -0.3650
 2220TIP3    H228152   4.527   0.666   4.924 -0.6692  1.3334  0.2813
 2221TIP3   OH228153   4.469   6.051  11.762 -0.0486 -0.6344  0.5054
 2221TIP3    H128154   4.410   6.025  11.833 -1.1125 -2.9795 -1.1351
 2221TIP3    H228155   4.458   5.984  11.695  1.7505  0.8828 -1.4511
 2222TIP3   OH228156   0.083   0.502  15.655 -0.1213 -0.0788  0.3521
 2222TIP3    H128157   0.149   0.437  15.632 -0.3554 -0.2126  0.0474
 2222TIP3    H228158   0.067   0.550  15.573  2.1382  2.3219  1.1499
 2223TIP3   OH228159   2.529   3.931   1.338  0.6087 -0.4290  0.0052
 2223TIP3    H128160   2.524   3.942   1.433 -1.1383  1.4599 -0.2202
 2223TIP3    H228161   2.601   3.988   1.311 -0.7791  1.4165 -0.0118
 2224TIP3   OH228162   1.999   1.998  16.923  0.0911 -0.1508 -0.0662
 2224TIP3    H128163   1.955   2.082  16.937 -0.4775 -0.4916  0.2001
 2224TIP3    H228164   2.041   2.008  16.838 -1.8876 -0.4015 -1.1305
 2225TIP3   OH228165   2.985   3.523  16.837  0.3453  0.3486  0.6674
 2225TIP3    H128166   2.984   3.464  16.913 -2.2413 -0.8990 -0.2394
 2225TIP3    H228167   2.965   3.609  16.873  0.3329 -0.0059  1.5400
 2226TIP3   OH228168   3.047   1.050   6.162  0.9664  0.2793 -0.2124
 2226TIP3    H128169   3.024   1.133   6.120  0.4333 -0.4458 -1.3694
 2226TIP3    H228170   3.006   1.055   6.249  0.0073  0.7684 -0.6842
 2227TIP3   OH228171   2.568   3.028   4.788  0.5797 -0.5297  0.0633
 2227TIP3    H128172   2.526   3.102   4.744  1.0754 -1.4916 -2.1690
 2227TIP3    H228173   2.662   3.043   4.776  0.6792 -1.7022 -0.8033
 2228TIP3   OH228174   2.879   6.113   3.204 -0.7858  0.0415 -0.0075
 2228TIP3    H128175   2.883   6.018   3.209 -1.2173  0.0640  0.9082
 2228TIP3    H228176   2.937   6.144   3.273 -0.4253  0.4518 -0.4842
 2229TIP3   OH228177   4.057   6.765  13.752 -0.7327 -0.3647  0.3170
 2229TIP3    H128178   4.089   6.681  13.786  0.5131 -0.2842 -0.5924
 2229TIP3    H228179   3.962   6.757  13.756 -0.6587 -2.0238 -0.2168
 2230TIP3   OH228180   0.769   0.456   4.533 -0.4825 -0.4311 -0.5204
 2230TIP3    H128181   0.863   0.471   4.544 -0.4054  0.7500 -2.4536
 2230TIP3    H228182   0.729   0.502   4.607  0.3095  1.7005 -1.3646
 2231TIP3   OH228183   2.750   1.090  15.587  0.0785 -0.0207  0.2827
 2231TIP3    H128184   2.805   1.129  15.654  1.8389 -0.0987 -1.0658
 2231TIP3    H228185   2.791   1.005  15.568 -1.6489 -0.9911  0.6392
 2232TIP3   OH228186   4.339   5.551  11.544 -0.7325 -0.1779 -0.0643
 2232TIP3    H128187   4.271   5.560  11.611 -0.4450  1.6566  0.0222
 2232TIP3    H228188   4.412   5.604  11.576 -0.8859  1.4330 -2.1394
 2233TIP3   OH228189   1.235   1.024   4.834  0.3130  0.3529  0.2810
 2233TIP3    H128190   1.246   0.976   4.917  0.8103  0.6337  0.3796
 2233TIP3    H228191   1.161   1.083   4.850 -0.3451 -0.4060  0.1411
 2234TIP3   OH228192   0.120   2.996  13.989  0.3455  0.2305 -0.2496
 2234TIP3    H128193   0.149   2.982  14.079 -0.3145  0.6698  0.0392
 2234TIP3    H228194   0.197   2.977  13.935  1.4847  2.4057  0.5294
 2235TIP3   OH228195   5.348   0.894  10.783 -0.5675  0.3739 -0.3083
 2235TIP3    H128196   5.283   0.846  10.732  0.5661  0.1108 -1.5557
 2235TIP3    H228197   5.383   0.960  10.723 -0.5511  1.3393  0.7242
 2236TIP3   OH228198   0.790   5.186   5.394  0.9730 -0.0421  0.1651
 2236TIP3    H128199   0.855   5.128   5.355  0.2900  0.6220 -2.0964
 2236TIP3    H228200   0.707   5.137   5.387  0.7922  0.2114  0.5085
 2237TIP3   OH228201   1.773   1.233  12.014  0.0307  0.1214 -0.1464
 2237TIP3    H128202   1.819   1.225  12.097  1.5185 -0.0054 -0.9570
 2237TIP3    H228203   1.757   1.327  12.003  0.3709  0.1924 -0.0071
 2238TIP3   OH228204   2.045   5.405   3.087  0.1440  0.6892  0.0180
 2238TIP3    H128205   2.049   5.309   3.088  4.0983  0.6155 -1.9945
 2238TIP3    H228206   1.960   5.424   3.049 -0.0637 -2.1439 -1.2443
 2239TIP3   OH228207   2.136   2.072  16.653  0.4557  0.1734  0.0838
 2239TIP3    H128208   2.207   2.012  16.676  0.2405 -0.0626  0.1346
 2239TIP3    H228209   2.180   2.149  16.617  0.6948 -1.4188 -3.5425
 2240TIP3   OH228210   1.222   4.574  12.598 -0.2350  0.3530 -0.1006
 2240TIP3    H128211   1.253   4.497  12.551  0.3914  0.0657  0.7503
 2240TIP3    H228212   1.302   4.617  12.629 -0.6255  0.2130  1.1862
 2241TIP3   OH228213   5.901   6.252  14.126 -0.1198  0.0921  0.4156
 2241TIP3    H128214   5.944   6.325  14.083 -0.2738 -0.4781 -0.7348
 2241TIP3    H228215   5.914   6.178  14.067 -0.2945 -0.7303  1.3750
 2242TIP3   OH228216   4.961   4.422   1.816  0.1516  0.5782 -0.2242
 2242TIP3    H128217   5.039   4.368   1.831 -0.5121  0.0643  1.6002
 2242TIP3    H228218   4.980   4.505   1.860 -0.5658  0.2088  0.8173
 2243TIP3   OH228219   1.298   0.125   3.468  0.2311  0.0178  0.2288
 2243TIP3    H128220   1.358   0.126   3.542 -0.8236  1.0679  1.1186
 2243TIP3    H228221   1.292   0.033   3.443  0.4295 -0.3989  1.6160
 2244TIP3   OH228222   5.976   0.972   0.052  0.3433 -0.1805 -0.1410
 2244TIP3    H128223   5.962   0.906   0.120  0.0138 -0.6128 -0.6277
 2244TIP3    H228224   6.023   0.926  -0.017  0.1245  0.0965 -0.4791
 2245TIP3   OH228225   0.116   0.788   2.222  0.5810  0.0883  0.0431
 2245TIP3    H128226   0.205   0.822   2.211  0.5717  0.8842  2.0039
 2245TIP3    H228227   0.112   0.761   2.314 -1.3195  0.4663  0.1070
 2246TIP3   OH228228   6.082   2.467   6.165  0.1605 -0.3778  0.1694
 2246TIP3    H128229   6.010   2.426   6.213 -0.0176 -0.3138 -0.0481
 2246TIP3    H228230   6.062   2.561   6.167  0.8305 -0.2323  1.1176
 2247TIP3   OH228231   5.343   2.470  12.204  0.3340 -0.0532  0.2457
 2247TIP3    H128232   5.288   2.464  12.282 -1.4491  0.3846 -0.9121
 2247TIP3    H228233   5.347   2.381  12.170  0.8222 -0.1842  0.6451
 2248TIP3   OH228234   0.284   6.183   0.196 -0.3293 -0.1992  0.0131
 2248TIP3    H128235   0.240   6.107   0.235 -0.8015  0.0096 -0.1128
 2248TIP3    H228236   0.262   6.256   0.255 -0.5554 -0.0000 -0.3145
 2249TIP3   OH228237   6.464   0.524   3.259 -0.1493  0.0482 -0.2309
 2249TIP3    H128238   6.511   0.443   3.238 -0.4130 -0.1224 -0.1703
 2249TIP3    H228239   6.378   0.513   3.218  0.3008  0.9079 -1.4628
 2250TIP3   OH228240   2.176   5.835  11.624  0.5359 -0.6431 -0.0488
 2250TIP3    H128241   2.158   5.743  11.604 -0.5522 -0.2640 -0.9119
 2250TIP3    H228242   2.244   5.832  11.691 -2.0582 -2.1842  2.7544
 2251TIP3   OH228243   1.497   4.302   0.352  0.0103  0.1132 -0.1279
 2251TIP3    H128244   1.555   4.375   0.373 -0.0103  1.2563 -3.5393
 2251TIP3    H228245   1.543   4.225   0.387  1.2915  1.4272  1.2687
 2252TIP3   OH228246   3.818   0.994   5.073  0.2862  0.6327 -0.3113
 2252TIP3    H128247   3.889   0.931   5.060  0.6471  1.0833 -0.5577
 2252TIP3    H228248   3.832   1.060   5.006  1.2592  2.1794  1.3216
 2253TIP3   OH228249   0.597   0.297  14.757 -0.2589 -0.5218 -0.6520
 2253TIP3    H128250   0.530   0.233  14.783 -0.5335 -0.2793 -0.7487
 2253TIP3    H228251   0.627   0.335  14.840 -0.6618 -0.2193 -0.6379
 2254TIP3   OH228252   1.477   3.908   0.858 -0.0643 -0.5911 -0.0747
 2254TIP3    H128253   1.530   3.877   0.932 -0.0964 -1.0465 -0.2419
 2254TIP3    H228254   1.529   3.978   0.819  0.7025 -1.4419 -0.6116
 2255TIP3   OH228255   4.189   6.253  14.734  0.0409 -0.1618 -0.1511
 2255TIP3    H128256   4.163   6.332  14.686  0.9655  0.2346 -0.0121
 2255TIP3    H228257   4.230   6.197  14.668  1.2770  0.3669  0.1316
 2256TIP3   OH228258   1.986   1.937   2.814 -0.1057 -0.0769 -0.2515
 2256TIP3    H128259   2.027   2.011   2.770 -0.4489 -0.2393 -0.8431
 2256TIP3    H228260   1.995   1.864   2.753  0.3974 -0.5806  0.3970
 2257TIP3   OH228261   0.307   1.579  14.989 -0.9779 -0.3464  0.5669
 2257TIP3    H128262   0.380   1.607  14.934 -0.1376  2.3526  2.8257
 2257TIP3    H228263   0.327   1.488  15.011  0.5314 -0.3400 -0.6271
 2258TIP3   OH228264   2.174   3.071  13.357 -0.2939 -0.4567  0.2823
 2258TIP3    H128265   2.208   3.156  13.388 -0.2406 -0.2421 -0.3525
 2258TIP3    H228266   2.103   3.051  13.418 -1.0232  0.5735 -0.1916
 2259TIP3   OH228267   2.907   4.983   4.469  0.4171  0.2891  0.3562
 2259TIP3    H128268   2.843   5.049   4.441 -2.6060 -2.7709 -0.5917
 2259TIP3    H228269   2.952   4.957   4.388  0.2407 -0.1163  0.3844
 2260TIP3   OH228270   0.095   2.773  15.370  0.1207  0.1702  0.5632
 2260TIP3    H128271   0.019   2.825  15.342 -0.5594 -0.6371  0.8614
 2260TIP3    H228272   0.164   2.838  15.385 -0.5829  0.9476  0.5204
 2261TIP3   OH228273   1.488   2.021  15.894 -0.7494  0.5614  0.1646
 2261TIP3    H128274   1.426   2.079  15.850 -1.6888 -1.0671 -0.7894
 2261TIP3    H228275   1.513   1.957  15.827 -0.3630 -0.5859  1.3572
 2262TIP3   OH228276   3.038   4.517  13.978 -0.1599 -0.4417  0.2050
 2262TIP3    H128277   3.022   4.566  13.897  1.1860  1.3002  0.9249
 2262TIP3    H228278   3.130   4.535  13.999 -1.2372  1.9713  3.8492
 2263TIP3   OH228279   6.527   5.673  16.896 -0.1787 -0.1190 -0.4075
 2263TIP3    H128280   6.557   5.610  16.830 -0.3384 -1.0971  0.4445
 2263TIP3    H228281   6.593   5.743  16.893  0.6324 -0.8733 -0.5566
 2264TIP3   OH228282   6.526   1.230   3.043  0.1537  0.1961 -0.3004
 2264TIP3    H128283   6.502   1.235   3.136  0.6448  2.5418 -0.2374
 2264TIP3    H228284   6.470   1.294   3.000  0.1623 -0.6311 -1.6025
 2265TIP3   OH228285   3.475   0.135  13.204 -0.0134  0.1889  0.8650
 2265TIP3    H128286   3.401   0.195  13.209 -1.3584 -1.2864 -0.1689
 2265TIP3    H228287   3.436   0.048  13.208  1.4407 -0.6818 -1.3873
 2266TIP3   OH228288   4.254   3.999   4.988  0.1500  0.0657  0.1888
 2266TIP3    H128289   4.282   4.011   5.079 -1.5287 -0.7074  0.8489
 2266TIP3    H228290   4.270   3.906   4.971 -2.1176 -0.4620  0.6695
 2267TIP3   OH228291   5.620   4.315   2.253 -0.1229 -0.7265  0.2480
 2267TIP3    H128292   5.593   4.228   2.279  0.6985 -1.4037 -1.0773
 2267TIP3    H228293   5.677   4.302   2.177 -2.4871  1.1415 -2.0344
 2268TIP3   OH228294   5.611   1.530  15.719 -0.4377  0.0572  1.1819
 2268TIP3    H128295   5.631   1.504  15.629 -0.9141  0.7152  0.8842
 2268TIP3    H228296   5.574   1.451  15.759  1.9192 -0.9581  1.5067
 2269TIP3   OH228297   5.472   4.219   4.304  0.1776 -0.2051 -0.4675
 2269TIP3    H128298   5.433   4.286   4.361 -1.7583 -2.2934  0.8611
 2269TIP3    H228299   5.566   4.226   4.319  0.3252  3.5489 -2.0293
 2270TIP3   OH228300   5.526   3.410   3.827 -0.0931  0.2082  0.4988
 2270TIP3    H128301   5.596   3.350   3.854  0.4090  0.9964  0.9877
 2270TIP3    H228302   5.519   3.472   3.900 -1.9643 -0.4101  0.9036
 2271TIP3   OH228303   5.424   2.201   0.537  0.1863 -0.3637  0.4636
 2271TIP3    H128304   5.397   2.292   0.553  1.3947 -0.2381  1.9750
 2271TIP3    H228305   5.512   2.208   0.501 -0.6750 -0.8827 -1.9627
 2272TIP3   OH228306   4.259   2.927  13.715  0.8515 -0.0122  0.4451
 2272TIP3    H128307   4.183   2.877  13.686  0.5216  0.1597  0.9737
 2272TIP3    H228308   4.221   3.008  13.750  0.8466 -1.4645  4.3192
 2273TIP3   OH228309   6.776   5.259  11.603  0.3219 -0.4546 -0.5659
 2273TIP3    H128310   6.820   5.317  11.664 -1.3930 -0.0856  0.3983
 2273TIP3    H228311   6.818   5.275  11.519  1.7952  0.0550  0.2393
 2274TIP3   OH228312   0.315   2.983   2.611 -0.5572  1.2522 -0.3153
 2274TIP3    H128313   0.296   2.936   2.530  3.3994  0.6918 -1.1140
 2274TIP3    H228314   0.340   3.071   2.582 -0.7379  1.5793  0.4835
 2275TIP3   OH228315   2.198   4.087   0.857  0.1017 -0.0009  0.1549
 2275TIP3    H128316   2.146   4.069   0.778  0.5463 -2.8515  0.4060
 2275TIP3    H228317   2.257   4.012   0.864  1.1067  0.9189  2.4016
 2276TIP3   OH228318   3.168   2.440   2.993 -0.4089  0.0803  0.2367
 2276TIP3    H128319   3.229   2.474   2.928  0.1243 -0.3921  0.4811
 2276TIP3    H228320   3.153   2.349   2.966  3.2255 -1.6304  3.0988
 2277TIP3   OH228321   2.466   4.134  10.456  0.4545  0.0869  0.0361
 2277TIP3    H128322   2.411   4.209  10.480  0.1793 -0.0446 -0.1877
 2277TIP3    H228323   2.405   4.061  10.447  0.5298  0.1586 -1.2041
 2278TIP3   OH228324   4.298   1.582   1.235 -0.0056 -0.1889 -0.3114
 2278TIP3    H128325   4.365   1.642   1.203 -0.3762 -0.3079 -1.3428
 2278TIP3    H228326   4.253   1.551   1.156 -1.0679 -0.3545  0.3313
 2279TIP3   OH228327   1.647   1.697  12.677  0.3803  0.6288 -0.1270
 2279TIP3    H128328   1.678   1.743  12.599 -0.2475  1.7187  0.2348
 2279TIP3    H228329   1.637   1.766  12.743  1.0937 -0.3031  0.9881
 2280TIP3   OH228330   2.212   6.750  16.389  0.3358  0.0734 -0.5074
 2280TIP3    H128331   2.209   6.692  16.313  1.1065  0.5171 -0.8828
 2280TIP3    H228332   2.305   6.769  16.402  0.4227 -1.3957  1.6341
 2281TIP3   OH228333   0.230   6.846  13.935 -0.2724 -0.0630  0.0915
 2281TIP3    H128334   0.251   6.794  13.857  0.1394  0.3992 -0.1104
 2281TIP3    H228335   0.148   6.809  13.966  1.4370 -2.8648  1.7222
 2282TIP3   OH228336   2.805   1.494  11.550  0.1717  0.2536 -0.3440
 2282TIP3    H128337   2.812   1.400  11.566  0.0986  0.3612  0.3775
 2282TIP3    H228338   2.838   1.506  11.461  0.3206 -0.4351 -0.3891
 2283TIP3   OH228339   4.740   6.722  12.307 -0.6989  0.3995 -0.5918
 2283TIP3    H128340   4.741   6.795  12.370 -0.4362  1.4092 -1.7268
 2283TIP3    H228341   4.672   6.747  12.244 -0.1820 -0.0503 -1.3345
 2284TIP3   OH228342   0.182   5.232  10.681 -0.1857 -0.1357  0.1009
 2284TIP3    H128343   0.217   5.314  10.647 -1.1490 -0.1026 -0.8945
 2284TIP3    H228344   0.099   5.221  10.635  1.0567 -2.9573 -1.7216
 2285TIP3   OH228345   2.421   2.141   2.761 -0.2602 -0.0428 -0.1660
 2285TIP3    H128346   2.400   2.179   2.846  1.1791  1.6501 -0.5064
 2285TIP3    H228347   2.396   2.049   2.769 -0.5604  0.1715  1.9351
 2286TIP3   OH228348   3.199   4.516   0.120 -0.0995  0.4750 -0.3198
 2286TIP3    H128349   3.144   4.469   0.183  0.3667  1.4576  0.8627
 2286TIP3    H228350   3.167   4.606   0.123 -0.9111  0.2995 -2.4813
 2287TIP3   OH228351   6.580   1.120  13.991  0.4043  0.7362 -0.6489
 2287TIP3    H128352   6.648   1.056  13.972  0.4039  0.2213  0.9270
 2287TIP3    H228353   6.627   1.203  13.999  0.7095  0.5581 -0.5851
 2288TIP3   OH228354   0.992   3.496  12.851 -0.1913  0.8357  0.4283
 2288TIP3    H128355   0.997   3.455  12.765  0.5806 -2.5299  1.8698
 2288TIP3    H228356   0.936   3.436  12.902  2.5476  0.3950  3.2603
 2289TIP3   OH228357   5.030   5.755  11.513  0.1922  0.4094  0.0459
 2289TIP3    H128358   4.939   5.779  11.532 -0.1508 -0.7931 -0.0289
 2289TIP3    H228359   5.066   5.727  11.597  0.3057  0.3003 -0.0393
 2290TIP3   OH228360   1.578   6.487  11.821  0.1412 -0.0885  0.3466
 2290TIP3    H128361   1.606   6.568  11.778  0.8667 -0.3759  0.2665
 2290TIP3    H228362   1.517   6.446  11.760 -0.5431  0.5906  0.5608
 2291TIP3   OH228363   3.320   5.962  14.932 -1.4035  0.0980  0.7528
 2291TIP3    H128364   3.372   5.930  15.006  0.7010 -1.3198 -1.2248
 2291TIP3    H228365   3.261   5.890  14.911 -0.1735 -0.5778 -0.5311
 2292TIP3   OH228366   6.286   3.025   5.493 -0.4499 -0.0365 -0.5112
 2292TIP3    H128367   6.320   3.107   5.458  0.4126 -0.3525 -0.4513
 2292TIP3    H228368   6.362   2.967   5.495 -0.8164 -0.5103  0.4184
 2293TIP3   OH228369   0.789   1.483   2.082 -0.0674  0.3331  0.5893
 2293TIP3    H128370   0.821   1.554   2.137 -1.4593  0.8761  0.7577
 2293TIP3    H228371   0.791   1.518   1.993  0.9986 -0.0946  0.4374
 2294TIP3   OH228372   2.763   2.498   3.182  0.1870  0.4713  0.1208
 2294TIP3    H128373   2.681   2.495   3.230  0.3275 -0.9689  0.3070
 2294TIP3    H228374   2.738   2.483   3.091  0.2078  0.3909  0.1285
 2295TIP3   OH228375   3.375   2.361   1.945 -0.0848  0.0269 -0.0842
 2295TIP3    H128376   3.282   2.345   1.929  0.2887 -0.8214 -1.5973
 2295TIP3    H228377   3.379   2.451   1.976 -1.5415 -0.3704  1.4040
 2296TIP3   OH228378   5.960   5.606  17.031  0.2298  0.8342  0.6130
 2296TIP3    H128379   5.898   5.658  16.980  1.2804 -0.3304 -2.0518
 2296TIP3    H228380   6.042   5.655  17.027  0.5826  0.2286  0.2628
 2297TIP3   OH228381   5.561   6.751   1.295  0.0646  0.3312 -0.8463
 2297TIP3    H128382   5.466   6.752   1.304  0.1937 -0.8019  1.1958
 2297TIP3    H228383   5.576   6.721   1.205 -1.4812  0.8392 -1.3130
 2298TIP3   OH228384   3.067   0.846   0.492 -0.3182 -0.1480  0.5676
 2298TIP3    H128385   3.054   0.757   0.525 -0.0323 -1.1824 -1.8330
 2298TIP3    H228386   3.147   0.841   0.440 -1.0595  1.1108 -0.8000
 2299TIP3   OH228387   4.670   6.087   3.471  0.3618  0.4710  0.0232
 2299TIP3    H128388   4.659   6.132   3.555  0.0320  0.9554 -0.2718
 2299TIP3    H228389   4.580   6.077   3.438  0.4491 -0.2278 -0.0097
 2300TIP3   OH228390   3.003   0.942   4.345 -0.6006  0.3272 -0.0467
 2300TIP3    H128391   3.014   0.904   4.258  1.1128 -1.6299  0.9138
 2300TIP3    H228392   2.958   0.873   4.395  1.3994 -0.0220  1.4126
 2301TIP3   OH228393   2.567   3.879   0.424  0.7403 -0.0865  0.3231
 2301TIP3    H128394   2.635   3.947   0.426  0.6571  0.1103 -1.7077
 2301TIP3    H228395   2.616   3.796   0.425  0.8527 -0.0520  2.3813
 2302TIP3   OH228396   0.652   6.070   0.833  0.1389 -0.4713  0.4501
 2302TIP3    H128397   0.595   6.071   0.910 -2.2174  1.9132 -1.1480
 2302TIP3    H228398   0.645   5.981   0.798 -2.1808 -0.4201  0.6681
 2303TIP3   OH228399   6.024   5.224  11.375 -0.1610  0.1228  0.0283
 2303TIP3    H128400   6.033   5.257  11.464 -2.6317  1.3342 -0.0992
 2303TIP3    H228401   5.997   5.300  11.324 -0.5156 -0.9251 -1.4020
 2304TIP3   OH228402   6.288   4.371  10.791  0.0988  0.2142  0.6164
 2304TIP3    H128403   6.289   4.458  10.751  2.1979  0.0468  0.2210
 2304TIP3    H228404   6.323   4.385  10.879 -0.4249 -0.1133  0.8836
 2305TIP3   OH228405   3.659   1.708   2.881 -0.7699 -0.1664  0.3523
 2305TIP3    H128406   3.702   1.735   2.962 -0.7310 -0.5005  0.4420
 2305TIP3    H228407   3.593   1.645   2.909 -0.4313 -0.6487  0.0701
 2306TIP3   OH228408   4.095   5.108  16.080 -0.0454  0.3752 -1.1477
 2306TIP3    H128409   4.030   5.164  16.038 -1.6899 -0.8369 -0.3088
 2306TIP3    H228410   4.106   5.034  16.021 -0.6567 -0.2123 -0.5421
 2307TIP3   OH228411   3.532   3.329  11.561  0.5399 -0.0515 -0.2975
 2307TIP3    H128412   3.466   3.388  11.598 -1.7362 -1.4375 -1.8413
 2307TIP3    H228413   3.485   3.247  11.547  2.5533 -1.0369 -1.7690
 2308TIP3   OH228414   1.239   0.240  14.303  0.0598  0.6917  0.1107
 2308TIP3    H128415   1.301   0.312  14.297 -0.7772  1.4631  0.5289
 2308TIP3    H228416   1.207   0.227  14.214  0.8286  0.2632 -0.1150
 2309TIP3   OH228417   6.760   1.203   3.352 -0.7074  0.0662  0.2946
 2309TIP3    H128418   6.725   1.139   3.290 -1.7171 -0.2810  1.1863
 2309TIP3    H228419   6.683   1.251   3.383 -0.0485  1.2594  0.1658
 2310TIP3   OH228420   6.265   5.129   0.424 -0.0860 -0.1460  0.4660
 2310TIP3    H128421   6.309   5.044   0.425  0.7500  0.2413 -0.5563
 2310TIP3    H228422   6.276   5.160   0.334  1.1333  1.7785  1.1959
 2311TIP3   OH228423   1.386   1.397  13.394 -0.4746 -0.7074  0.3173
 2311TIP3    H128424   1.328   1.321  13.388 -1.3687  0.0443 -1.4407
 2311TIP3    H228425   1.426   1.403  13.307 -0.4440  0.8166  0.4098
 2312TIP3   OH228426   5.816   4.118   3.587 -0.0580  0.1946  0.2827
 2312TIP3    H128427   5.816   4.207   3.623  1.4946  0.3130  0.0789
 2312TIP3    H228428   5.909   4.092   3.587 -0.4440 -1.3099  0.0458
 2313TIP3   OH228429   0.238   6.089   5.736  0.3177 -0.0400  0.2879
 2313TIP3    H128430   0.149   6.110   5.706  0.8679  0.0288 -1.4358
 2313TIP3    H228431   0.225   6.038   5.815 -1.3044 -0.9049 -0.4796
 2314TIP3   OH228432   3.306   5.128   1.926 -0.3642 -0.3129  0.6231
 2314TIP3    H128433   3.356   5.198   1.885 -0.2317 -0.6374  0.2235
 2314TIP3    H228434   3.366   5.090   1.990 -0.2738 -0.3692  0.5054
 2315TIP3   OH228435   3.741   3.151  12.737  0.1919  0.0279  0.4439
 2315TIP3    H128436   3.778   3.065  12.718  0.2572  0.4304 -1.4139
 2315TIP3    H228437   3.647   3.141  12.722 -0.4939 -0.7076  4.1243
 2316TIP3   OH228438   6.434   6.024   3.725  0.0337  0.1279  0.3302
 2316TIP3    H128439   6.422   6.090   3.657  0.9140  0.4061  0.4267
 2316TIP3    H228440   6.399   5.944   3.687  0.2183  0.3522 -0.3331
 2317TIP3   OH228441   0.353   0.021   4.416  0.1661 -0.0911  0.4313
 2317TIP3    H128442   0.281   0.047   4.359  0.2105 -1.4291 -0.2767
 2317TIP3    H228443   0.426   0.076   4.391 -0.2354  0.3554  0.2332
 2318TIP3   OH228444   3.357   6.805  16.558  0.6018  0.7443  0.0592
 2318TIP3    H128445   3.365   6.892  16.519  0.7499  0.9335  0.5065
 2318TIP3    H228446   3.392   6.746  16.491  0.0149  0.9734 -0.4545
 2319TIP3   OH228447   6.294   4.359  16.439  0.1588 -0.3019 -0.4095
 2319TIP3    H128448   6.328   4.369  16.527 -1.1777  2.2570 -0.0839
 2319TIP3    H228449   6.219   4.299  16.448  1.7644 -2.4333 -0.4063
 2320TIP3   OH228450   0.204   5.811  16.921  0.4597  0.1381  0.1032
 2320TIP3    H128451   0.139   5.826  16.852 -0.8022  0.1894  1.2721
 2320TIP3    H228452   0.163   5.746  16.978  0.9752  0.9744  1.4584
 2321TIP3   OH228453   1.120   3.901   5.159 -0.1066 -0.6209 -0.3416
 2321TIP3    H128454   1.041   3.931   5.203  0.0495 -0.3562 -0.2413
 2321TIP3    H228455   1.183   3.885   5.229  0.5664  1.0193 -0.5139
 2322TIP3   OH228456   1.760   3.053  11.598 -0.3327  0.3386 -0.2701
 2322TIP3    H128457   1.802   2.992  11.659 -0.8131  0.3718  0.0958
 2322TIP3    H228458   1.679   3.079  11.642  0.8821  2.9753  0.6232
 2323TIP3   OH228459   6.141   3.337  16.841  0.1304  0.0084  0.4258
 2323TIP3    H128460   6.065   3.341  16.784 -0.3063  0.4380  1.0377
 2323TIP3    H228461   6.154   3.426  16.872  0.1563 -0.2773  1.2685
 2324TIP3   OH228462   5.310   3.146   5.062  0.6237 -0.2164 -0.0271
 2324TIP3    H128463   5.340   3.129   4.972  0.6228  0.5020 -0.1707
 2324TIP3    H228464   5.381   3.195   5.102  0.4497 -0.1846  0.2429
 2325TIP3   OH228465   3.529   3.397  14.293 -0.1952  0.3596  0.4758
 2325TIP3    H128466   3.612   3.364  14.261  0.8520  2.2055  1.1521
 2325TIP3    H228467   3.464   3.335  14.259  1.4941 -1.6130  0.6444
 2326TIP3   OH228468   3.666   6.620   5.670 -0.1242  0.1445  0.2614
 2326TIP3    H128469   3.620   6.540   5.644 -2.5861  1.4191  0.3175
 2326TIP3    H228470   3.748   6.590   5.709 -0.5783 -2.2722 -0.4963
 2327TIP3   OH228471   3.776   1.008   2.611  0.0024 -0.5903 -0.0132
 2327TIP3    H128472   3.818   1.093   2.623 -1.5407  0.7046 -2.7034
 2327TIP3    H228473   3.687   1.021   2.644  0.3160 -1.8781  1.4665
 2328TIP3   OH228474   0.138   2.980   1.894  0.3597 -0.6708 -0.9976
 2328TIP3    H128475   0.221   2.988   1.848  0.6885 -1.9375 -0.6852
 2328TIP3    H228476   0.090   2.913   1.845  0.7635 -2.1373  0.4989
 2329TIP3   OH228477   2.444   0.250  15.460  0.4821 -0.3184  0.0095
 2329TIP3    H128478   2.405   0.221  15.542  0.9180 -0.0007  0.3296
 2329TIP3    H228479   2.485   0.171  15.425  2.0093 -0.0395  1.0790
 2330TIP3   OH228480   3.399   3.230   4.278 -0.6043  0.9280 -0.6171
 2330TIP3    H128481   3.356   3.151   4.311  1.4040 -0.6881 -1.5971
 2330TIP3    H228482   3.475   3.241   4.335 -0.8855  2.1960 -0.4751
 2331TIP3   OH228483   0.313   0.459  12.779 -0.6140  0.1096 -0.0910
 2331TIP3    H128484   0.391   0.432  12.827 -0.0745  1.3371 -0.2349
 2331TIP3    H228485   0.318   0.554  12.776 -1.1469  0.1270 -1.7192
 2332TIP3   OH228486   5.037   6.534  15.470 -0.3027 -0.2020 -0.0061
 2332TIP3    H128487   4.966   6.551  15.408  0.1121  1.9510  0.0469
 2332TIP3    H228488   5.082   6.457  15.434 -0.8316  0.2338 -1.6911
 2333TIP3   OH228489   0.161   4.972   1.425  0.4588  0.4118  0.2384
 2333TIP3    H128490   0.074   4.974   1.465 -0.0209  0.0576 -0.7429
 2333TIP3    H228491   0.146   5.000   1.334  1.0146 -1.5480 -0.5145
 2334TIP3   OH228492   1.372   2.581   1.100  0.5975  0.5530 -0.4864
 2334TIP3    H128493   1.405   2.609   1.186 -2.0567  1.5142  0.3385
 2334TIP3    H228494   1.328   2.659   1.065 -2.0364 -0.9286 -0.7589
 2335TIP3   OH228495   6.344   3.868   0.692  0.1364  0.7095 -0.2316
 2335TIP3    H128496   6.261   3.878   0.644  2.2717  0.5572 -4.4630
 2335TIP3    H228497   6.350   3.946   0.747 -3.0953  0.2877  0.9342
 2336TIP3   OH228498   5.467   0.604  16.750 -0.3959  0.3962 -0.1610
 2336TIP3    H128499   5.388   0.599  16.804 -0.3985  1.0740 -0.0931
 2336TIP3    H228500   5.530   0.546  16.794 -1.2165 -1.0678 -0.8587
 2337TIP3   OH228501   0.069   3.927  11.878  0.5934  0.0171  0.6151
 2337TIP3    H128502   0.127   3.951  11.806  1.5880  0.5306  1.5546
 2337TIP3    H228503  -0.009   3.892  11.836 -0.1840  3.1153 -0.8285
 2338TIP3   OH228504   0.229   5.775   0.481  0.1098  0.7539  0.6174
 2338TIP3    H128505   0.252   5.715   0.552 -2.3214 -1.3229 -0.2161
 2338TIP3    H228506   0.245   5.726   0.401 -2.7879  0.7626 -0.0761
 2339TIP3   OH228507   4.793   3.507  14.278  0.0038  0.0531  0.4857
 2339TIP3    H128508   4.798   3.572  14.208  1.7499 -0.2621  0.2845
 2339TIP3    H228509   4.826   3.426  14.239  1.3400 -0.0442  1.7485
 2340TIP3   OH228510   0.131   6.126  12.078 -0.1784 -0.0097  0.4286
 2340TIP3    H128511   0.214   6.174  12.082  0.5720 -1.1594 -0.5814
 2340TIP3    H228512   0.155   6.039  12.047 -1.8395 -0.1930 -0.4686
 2341TIP3   OH228513   6.205   5.466   5.325  0.3535  0.1207  0.2740
 2341TIP3    H128514   6.172   5.399   5.385 -0.3150  0.6690  0.5398
 2341TIP3    H228515   6.292   5.436   5.301 -0.6622 -1.9436 -1.2462
 2342TIP3   OH228516   1.318   2.628  11.576 -0.2247 -0.5011  0.4080
 2342TIP3    H128517   1.370   2.604  11.499 -1.6706  0.5232 -0.9374
 2342TIP3    H228518   1.381   2.670  11.635  0.6346  0.0329 -0.8497
 2343TIP3   OH228519   2.170   6.017  15.184  0.0102  0.5141 -0.1922
 2343TIP3    H128520   2.105   5.949  15.203 -0.4059  0.5116 -1.5048
 2343TIP3    H228521   2.178   6.066  15.265  0.4518 -1.2001  0.8660
 2344TIP3   OH228522   5.984   0.121  12.478 -0.2773  0.4154  0.2437
 2344TIP3    H128523   5.916   0.122  12.411 -0.1837 -0.0643  0.1450
 2344TIP3    H228524   6.033   0.202  12.463  0.9647 -0.6017 -1.5093
 2345TIP3   OH228525   4.706   5.872   3.225 -0.3174 -0.3297  0.0568
 2345TIP3    H128526   4.796   5.897   3.208 -0.9518  1.1553 -1.4412
 2345TIP3    H228527   4.684   5.809   3.157 -0.7472  0.2055 -0.3105
 2346TIP3   OH228528   3.910   6.692   6.852 -0.2368  0.4533  0.1397
 2346TIP3    H128529   3.905   6.769   6.795  0.6788  0.4731  0.0793
 2346TIP3    H228530   3.828   6.646   6.837 -0.0360  0.4901 -1.1388
 2347TIP3   OH228531   4.853   1.883   2.775  0.3698  0.4034  0.2380
 2347TIP3    H128532   4.873   1.968   2.812 -0.3988  0.6183  0.1828
 2347TIP3    H228533   4.783   1.900   2.711  0.4350 -0.2144 -0.0071
 2348TIP3   OH228534   5.729   1.955   2.923 -0.2278  0.1381 -0.6028
 2348TIP3    H128535   5.644   1.997   2.937 -0.0663  0.1971  0.2409
 2348TIP3    H228536   5.716   1.865   2.951 -0.2128 -0.0492 -1.1859
 2349TIP3   OH228537   4.207   3.940   3.732 -0.1457 -0.2579  0.1683
 2349TIP3    H128538   4.229   3.969   3.821 -1.4810 -0.1955  0.4929
 2349TIP3    H228539   4.112   3.940   3.730 -0.1729 -2.1431 -0.6442
 2350TIP3   OH228540   5.176   4.369   5.726  0.2206 -0.0371  0.2664
 2350TIP3    H128541   5.083   4.384   5.741  0.5267  1.0039  1.2046
 2350TIP3    H228542   5.190   4.277   5.749 -0.5909 -0.2378 -0.0172
 2351TIP3   OH228543   0.581   4.558  12.934  0.0837 -0.8798  0.4758
 2351TIP3    H128544   0.654   4.514  12.889  0.7205 -0.0140  0.6315
 2351TIP3    H228545   0.618   4.641  12.963 -1.3869  0.2596 -0.7633
 2352TIP3   OH228546   4.158   2.697   3.305  0.2101 -0.2186 -0.0016
 2352TIP3    H128547   4.148   2.791   3.316  1.5971 -0.0710  0.2081
 2352TIP3    H228548   4.119   2.659   3.384 -1.3754  0.0883 -0.6030
 2353TIP3   OH228549   3.098   3.084   5.836  0.3390  0.3425  0.7729
 2353TIP3    H128550   3.139   3.106   5.919  1.9411  1.7019 -0.3221
 2353TIP3    H228551   3.146   3.134   5.771 -1.7123  0.3364 -0.8586
 2354TIP3   OH228552   4.794   2.164   2.817  0.0541 -0.3793 -0.3986
 2354TIP3    H128553   4.723   2.181   2.754  0.3795 -0.8305 -0.8880
 2354TIP3    H228554   4.749   2.128   2.893 -0.2303 -0.8460 -0.7794
 2355TIP3   OH228555   1.132   2.729   1.850  0.4451  0.1466 -0.2035
 2355TIP3    H128556   1.039   2.739   1.833  0.3037 -0.5013  0.1345
 2355TIP3    H228557   1.142   2.754   1.942  0.2254 -1.8197  0.3994
 2356TIP3   OH228558   0.103   2.139   2.912  0.1832 -0.3358  0.3155
 2356TIP3    H128559   0.091   2.180   2.997 -0.1450  0.6600 -0.1909
 2356TIP3    H228560   0.086   2.047   2.927 -0.5668 -0.0713  1.1819
 2357TIP3   OH228561   6.157   1.114  16.947 -0.2382 -0.3554  0.1600
 2357TIP3    H128562   6.141   1.145  17.036 -0.2181  0.0869  0.0129
 2357TIP3    H228563   6.199   1.029  16.958 -0.7714 -0.5614  0.5625
 2358TIP3   OH228564   2.892   3.135   2.758 -0.2310  0.7407  0.6464
 2358TIP3    H128565   2.824   3.174   2.811  0.7480  0.3370  2.2704
 2358TIP3    H228566   2.852   3.057   2.720 -1.0833  1.3021  0.3745
 2359TIP3   OH228567   3.145   2.521  16.073 -0.0032  0.2665  0.0231
 2359TIP3    H128568   3.102   2.457  16.130  2.1374 -0.3716  1.0488
 2359TIP3    H228569   3.180   2.587  16.133  2.5134 -0.5456 -0.4098
 2360TIP3   OH228570   4.459   6.364  16.023  0.1475  0.5306  0.4317
 2360TIP3    H128571   4.539   6.325  16.059  0.0676  0.9702  1.1015
 2360TIP3    H228572   4.432   6.303  15.954  0.4972 -0.1555  0.8867
 2361TIP3   OH228573   2.996   5.396  15.886  0.3907 -0.4075 -0.5638
 2361TIP3    H128574   2.990   5.481  15.931  2.2729 -1.9009  2.9753
 2361TIP3    H228575   2.921   5.347  15.919  0.2449 -0.6604 -1.2741
 2362TIP3   OH228576   0.063   2.162   0.847  1.0917  0.4475  0.5591
 2362TIP3    H128577   0.040   2.070   0.834 -2.6677  1.3059 -0.1106
 2362TIP3    H228578   0.136   2.177   0.787  0.3902 -1.6337 -0.9218
 2363TIP3   OH228579   2.668   1.155  14.698 -0.9543  0.7564  0.2244
 2363TIP3    H128580   2.728   1.197  14.760 -0.6830  2.2143 -0.9850
 2363TIP3    H228581   2.585   1.200  14.712 -1.4911 -0.4364  1.0474
 2364TIP3   OH228582   1.548   2.124   9.991 -0.1230  1.1484 -0.1133
 2364TIP3    H128583   1.499   2.103   9.912 -2.6282  0.4516  1.5134
 2364TIP3    H228584   1.596   2.043  10.011  0.0444  1.1292 -0.5730
 2365TIP3   OH228585   2.062   2.684  12.041 -0.2109 -0.3630  0.3329
 2365TIP3    H128586   2.110   2.605  12.065  0.1261 -0.8698 -1.7853
 2365TIP3    H228587   1.991   2.653  11.985 -0.9007  0.7236  0.5715
 2366TIP3   OH228588   4.984   1.232   3.307  0.4892 -1.2247 -0.0181
 2366TIP3    H128589   4.998   1.196   3.220  2.9677  0.6272 -0.4801
 2366TIP3    H228590   4.985   1.327   3.295  2.6281 -0.8623  2.1563
 2367TIP3   OH228591   6.609   4.101  11.895 -0.4071 -0.3788 -0.5628
 2367TIP3    H128592   6.554   4.043  11.948 -0.6183  0.2565 -0.0648
 2367TIP3    H228593   6.678   4.130  11.954 -0.8126  0.5702 -0.5228
 2368TIP3   OH228594   0.809   2.806  10.587 -0.1019 -0.1121 -0.1369
 2368TIP3    H128595   0.897   2.799  10.624  1.3223  0.6722 -3.0136
 2368TIP3    H228596   0.771   2.883  10.629  0.6986 -0.2720  0.9295
 2369TIP3   OH228597   6.717   4.530  14.933  0.4915  0.6328  0.2820
 2369TIP3    H128598   6.787   4.468  14.955 -0.2353 -0.1372  0.5008
 2369TIP3    H228599   6.762   4.608  14.903  1.4550  0.3221  0.8837
 2370TIP3   OH228600   6.339   5.147   2.322  0.4846 -0.2946 -0.1932
 2370TIP3    H128601   6.407   5.211   2.303  0.9530 -1.3257 -2.2614
 2370TIP3    H228602   6.259   5.188   2.289  0.2625  0.3697  1.0767
 2371TIP3   OH228603   0.666   2.122  15.914  0.3263  0.0107  0.3347
 2371TIP3    H128604   0.601   2.100  15.981 -0.4857  0.3711 -0.3135
 2371TIP3    H228605   0.734   2.170  15.961  0.9471 -1.7305  1.3207
 2372TIP3   OH228606   2.692   4.996  16.798  0.2744 -0.1685 -0.2681
 2372TIP3    H128607   2.709   5.084  16.832  1.8481 -0.7422  0.5099
 2372TIP3    H228608   2.599   4.981  16.816  0.1152  1.1157  0.0802
 2373TIP3   OH228609   6.050   1.961  12.097 -0.5618  0.8747 -0.0034
 2373TIP3    H128610   6.015   2.040  12.137 -1.6844  1.4939 -2.0536
 2373TIP3    H228611   5.999   1.890  12.135 -0.5378  1.2636  0.7792
 2374TIP3   OH228612   0.673   0.370   1.875 -0.7006  0.4979 -0.1879
 2374TIP3    H128613   0.693   0.411   1.959  1.6005  0.5251 -0.7020
 2374TIP3    H228614   0.719   0.423   1.811 -0.8120 -0.6726 -1.2739
 2375TIP3   OH228615   5.877   5.702  11.129 -0.0351  0.7619  0.1783
 2375TIP3    H128616   5.934   5.686  11.054  0.5835  0.4483  0.7099
 2375TIP3    H228617   5.846   5.792  11.117  2.2703  1.7599  0.9703
 2376TIP3   OH228618   0.412   1.892  14.893  0.0185 -0.5940  0.3229
 2376TIP3    H128619   0.391   1.870  14.984  0.2730 -2.7235 -0.0635
 2376TIP3    H228620   0.480   1.958  14.898  0.8024 -1.4655  1.7226
 2377TIP3   OH228621   3.344   6.363   0.575 -0.2397 -1.0357 -0.6446
 2377TIP3    H128622   3.303   6.442   0.610  0.6802 -0.5850 -0.5484
 2377TIP3    H228623   3.389   6.393   0.496 -0.0822 -1.5079 -0.7331
 2378TIP3   OH228624   5.829   3.473   2.250  0.0214  0.6594  0.4528
 2378TIP3    H128625   5.897   3.536   2.227 -1.2031  2.4162  1.4680
 2378TIP3    H228626   5.860   3.433   2.332 -0.4931  1.9948  1.3154
 2379TIP3   OH228627   3.183   1.952   5.528 -0.1448  0.0266  0.0149
 2379TIP3    H128628   3.223   1.866   5.523  0.8896  0.3970  1.4135
 2379TIP3    H228629   3.125   1.948   5.604  0.3868  0.7430  0.4719
 2380TIP3   OH228630   2.272   4.296   5.048  0.0460  0.2865 -0.2503
 2380TIP3    H128631   2.366   4.303   5.069 -0.1287  1.9493  0.1274
 2380TIP3    H228632   2.248   4.383   5.017 -1.8362  0.5261  1.6463
 2381TIP3   OH228633   3.746   3.147   5.630 -0.2664  0.0250 -0.1241
 2381TIP3    H128634   3.818   3.169   5.689 -0.1554 -0.4407 -0.0804
 2381TIP3    H228635   3.726   3.055   5.649 -2.2950  0.7032  1.3875
 2382TIP3   OH228636   6.690   3.943  14.719 -0.0117 -0.2443 -0.7558
 2382TIP3    H128637   6.652   3.960  14.632  1.3740  0.6591 -1.2218
 2382TIP3    H228638   6.646   4.005  14.777  0.7668  0.8450 -1.3008
 2383TIP3   OH228639   5.699   6.762   2.613  0.4134  0.0722 -0.0989
 2383TIP3    H128640   5.742   6.724   2.536 -0.8033  0.3626 -0.9513
 2383TIP3    H228641   5.680   6.852   2.587 -0.9587 -0.1282  0.1206
 2384TIP3   OH228642   0.671   5.717  16.357  0.0451  0.0953  0.5793
 2384TIP3    H128643   0.748   5.683  16.312  0.2573 -1.0837  1.7789
 2384TIP3    H228644   0.691   5.708  16.450 -0.2250  2.8344  0.9735
 2385TIP3   OH228645   5.946   5.967   1.127  0.0065 -0.4824 -0.2948
 2385TIP3    H128646   5.905   6.046   1.161 -1.2424 -1.1694 -0.0978
 2385TIP3    H228647   6.032   5.964   1.168 -0.1100  0.5225  0.0461
 2386TIP3   OH228648   2.768   5.842   5.731  0.5474 -0.2393 -0.3253
 2386TIP3    H128649   2.702   5.773   5.741 -0.6812  0.7805 -1.1756
 2386TIP3    H228650   2.786   5.870   5.821 -1.6062  0.7547 -0.1527
 2387TIP3   OH228651   2.386   5.297  13.810 -0.4638 -0.3413 -0.7694
 2387TIP3    H128652   2.440   5.271  13.884  0.9480 -0.4810 -1.8111
 2387TIP3    H228653   2.399   5.391  13.801 -0.1539 -0.4220 -1.2006
 2388TIP3   OH228654   1.705   0.305   0.561 -0.2727  0.1262  0.7318
 2388TIP3    H128655   1.733   0.288   0.651  2.4355  3.3141  0.7191
 2388TIP3    H228656   1.622   0.352   0.570 -1.1295 -1.4484  1.3813
 2389TIP3   OH228657   3.401   1.532  16.853 -0.7188  0.0384 -0.0639
 2389TIP3    H128658   3.330   1.489  16.804 -1.7416  1.5733  0.0116
 2389TIP3    H228659   3.398   1.623  16.825  1.0713  0.2006  0.1637
 2390TIP3   OH228660   2.697   3.209   2.410 -0.0271 -0.4037  0.6456
 2390TIP3    H128661   2.625   3.181   2.353 -0.7082 -1.2129  1.8680
 2390TIP3    H228662   2.727   3.128   2.452  1.2996 -0.0047  0.5127
 2391TIP3   OH228663   1.644   1.563   0.440 -0.1738 -0.4420  0.2498
 2391TIP3    H128664   1.618   1.642   0.393  2.1709 -0.9678 -2.0959
 2391TIP3    H228665   1.580   1.497   0.414 -0.9438  0.1358  0.6313
 2392TIP3   OH228666   2.473   4.332   3.173  0.2735  0.6693  0.3658
 2392TIP3    H128667   2.439   4.404   3.119  1.9521  1.5146  0.3635
 2392TIP3    H228668   2.406   4.320   3.240  0.0712  2.4559  0.5495
 2393TIP3   OH228669   4.540   1.492  15.841 -0.2318  0.5317 -0.1972
 2393TIP3    H128670   4.490   1.525  15.916 -2.4919 -1.1141 -0.8597
 2393TIP3    H228671   4.480   1.433  15.797  1.0563  1.3318 -3.2848
 2394TIP3   OH228672   2.066   5.801   3.101  0.2339 -0.3564 -0.5988
 2394TIP3    H128673   2.000   5.736   3.128  0.4845 -0.1501  0.5899
 2394TIP3    H228674   2.049   5.816   3.009 -1.0181 -0.7491 -0.4497
 2395TIP3   OH228675   1.794   4.941   4.646 -0.0406 -0.0652  0.2832
 2395TIP3    H128676   1.755   4.854   4.654 -0.5775  0.2417  1.1342
 2395TIP3    H228677   1.838   4.940   4.561 -1.2564 -0.6716 -0.3645
 2396TIP3   OH228678   0.918   1.096  16.787 -0.0474  0.6480 -0.1110
 2396TIP3    H128679   0.834   1.053  16.802 -0.6543  1.6344 -0.6152
 2396TIP3    H228680   0.966   1.084  16.869 -0.0563 -1.2688 -0.3516
 2397TIP3   OH228681   2.854   1.312  15.346 -0.3346  0.1539  0.2090
 2397TIP3    H128682   2.784   1.315  15.280 -0.2425 -0.2571  0.0946
 2397TIP3    H228683   2.868   1.219  15.363  2.8280 -0.0503 -2.5662
 2398TIP3   OH228684   5.015   5.537  14.714 -0.1513 -0.1877 -0.2232
 2398TIP3    H128685   4.963   5.543  14.795  0.9065  0.3938  0.4401
 2398TIP3    H228686   4.951   5.517  14.646 -1.1941  0.1452  0.6274
 2399TIP3   OH228687   0.879   0.069   3.595 -0.9485 -0.2137  0.4032
 2399TIP3    H128688   0.919   0.155   3.607 -0.4271 -0.0541 -1.9503
 2399TIP3    H228689   0.785   0.085   3.603 -0.7801  0.2673  1.5209
 2400TIP3   OH228690   5.113   5.478   5.160 -0.5176  0.4775  0.5810
 2400TIP3    H128691   5.043   5.440   5.213 -0.8690 -0.3457 -0.4557
 2400TIP3    H228692   5.153   5.544   5.218 -1.1028 -0.1529  1.7430
 2401TIP3   OH228693   3.808   1.637   0.063  0.0842  0.2762 -0.2110
 2401TIP3    H128694   3.713   1.652   0.065  0.0488  0.0268  0.6966
 2401TIP3    H228695   3.817   1.544   0.081  0.5674  0.7660  2.5287
 2402TIP3   OH228696   5.307   3.882  12.064 -0.5847  0.3004 -0.4336
 2402TIP3    H128697   5.253   3.958  12.043 -0.4095  0.2493 -1.1197
 2402TIP3    H228698   5.293   3.867  12.157 -1.6235  0.3781 -0.5712
 2403TIP3   OH228699   3.287   0.462   5.709  0.1115  0.1603  0.3635
 2403TIP3    H128700   3.336   0.401   5.654 -0.3221 -0.5100  0.7059
 2403TIP3    H228701   3.201   0.422   5.719 -1.0290  1.9524 -1.3521
 2404TIP3   OH228702   5.252   2.507  11.007  0.3348  0.8860 -0.4395
 2404TIP3    H128703   5.338   2.465  11.019 -0.9994 -1.8067  0.4766
 2404TIP3    H228704   5.271   2.601  11.005  3.1676  0.4323  0.8502
 2405TIP3   OH228705   6.554   1.199   2.712 -0.0903 -0.0144  0.7653
 2405TIP3    H128706   6.522   1.174   2.625 -3.1650  0.9808  1.4841
 2405TIP3    H228707   6.554   1.294   2.711  1.7215  0.0296  1.2926
 2406TIP3   OH228708   1.633   5.132  14.383 -0.1587 -0.2437  0.2732
 2406TIP3    H128709   1.716   5.155  14.426 -0.3671 -0.8607  1.0201
 2406TIP3    H228710   1.659   5.098  14.297  0.8218 -4.7676  2.0845
 2407TIP3   OH228711   2.089   4.738  14.827 -0.6728 -0.7254 -0.0944
 2407TIP3    H128712   1.999   4.741  14.795 -0.7109 -3.4795 -0.4859
 2407TIP3    H228713   2.109   4.645  14.833  2.1670 -0.2023 -0.0486
 2408TIP3   OH228714   1.269   5.430   5.803  0.1760  0.4293  0.5214
 2408TIP3    H128715   1.219   5.511   5.803  0.4131  0.5797  0.3201
 2408TIP3    H228716   1.318   5.432   5.885  1.7939  1.5186 -0.4027
 2409TIP3   OH228717   3.998   2.326   2.935  0.4628 -1.1038  0.0578
 2409TIP3    H128718   4.056   2.336   3.010  0.2621 -1.7041  0.3003
 2409TIP3    H228719   3.948   2.247   2.954 -1.2114 -0.0267  0.3614
 2410TIP3   OH228720   1.837   5.981   3.493 -0.0519  0.2682  0.2685
 2410TIP3    H128721   1.816   6.041   3.564  0.9853 -0.5968  1.3414
 2410TIP3    H228722   1.875   6.036   3.425 -0.8293  1.0725  0.4669
 2411TIP3   OH228723   4.974   1.500   3.316  0.4405 -0.0045  0.5192
 2411TIP3    H128724   5.050   1.555   3.336 -0.4057  1.5089 -0.2319
 2411TIP3    H228725   4.905   1.536   3.372 -1.2442  2.5233 -2.8206
 2412TIP3   OH228726   5.632   5.940  16.709 -0.1554  0.0992  0.7630
 2412TIP3    H128727   5.725   5.955  16.693 -0.1255 -2.4060 -2.8312
 2412TIP3    H228728   5.588   6.014  16.668  0.2958 -0.6500 -1.2224
 2413TIP3   OH228729   2.585   1.649   4.621  0.2857  0.6295  0.0937
 2413TIP3    H128730   2.524   1.586   4.583 -1.1165  1.5038  0.8287
 2413TIP3    H228731   2.615   1.701   4.547 -0.1894  0.4688 -0.2159
 2414TIP3   OH228732   2.230   0.693  14.516 -0.3827 -0.3559  0.3640
 2414TIP3    H128733   2.245   0.629  14.446  0.1156  0.9705 -0.7823
 2414TIP3    H228734   2.154   0.744  14.486 -0.5469 -0.1619  1.0858
 2415TIP3   OH228735   6.598   1.245   4.815  0.9820 -0.0233 -0.3274
 2415TIP3    H128736   6.586   1.335   4.844  1.8190 -0.3959  1.3031
 2415TIP3    H228737   6.628   1.198   4.893  2.9695 -1.1963 -1.7135
 2416TIP3   OH228738   4.074   3.926  11.956 -0.0082  0.4299  0.3164
 2416TIP3    H128739   4.077   3.885  12.042 -1.9800  0.4999  0.4547
 2416TIP3    H228740   4.045   4.015  11.973  0.3649  0.6863 -0.3594
 2417TIP3   OH228741   6.784   0.951  15.975  0.0253 -0.2387 -0.3192
 2417TIP3    H128742   6.841   0.977  16.048 -0.3429 -0.6674  0.1304
 2417TIP3    H228743   6.829   0.983  15.897  0.3382  0.3917  0.1094
 2418TIP3   OH228744   1.997   6.474   4.846  0.0301 -0.3120  0.2667
 2418TIP3    H128745   1.991   6.569   4.861 -0.8792 -0.4504  0.8236
 2418TIP3    H228746   2.079   6.463   4.797 -0.6581  0.9530 -1.2797
 2419TIP3   OH228747   5.413   6.487   0.082 -0.2090 -0.0795  0.4930
 2419TIP3    H128748   5.501   6.481   0.045 -0.3264 -0.1983  0.2239
 2419TIP3    H228749   5.414   6.428   0.157 -0.3993 -1.0079 -0.2075
 2420TIP3   OH228750   2.553   4.694   2.176 -0.5864 -0.1890  0.4150
 2420TIP3    H128751   2.543   4.625   2.241  0.6084 -0.3236  0.4789
 2420TIP3    H228752   2.568   4.773   2.228 -0.3974 -0.1629  0.3213
 2421TIP3   OH228753   2.121   2.857   6.239 -0.2864  0.1616 -0.2721
 2421TIP3    H128754   2.105   2.950   6.220 -0.1598  0.1752 -0.3100
 2421TIP3    H228755   2.035   2.816   6.230 -0.8471  0.6637  2.0292
 2422TIP3   OH228756   6.349   5.763  11.874  0.3834 -0.7178  0.0504
 2422TIP3    H128757   6.336   5.837  11.934  0.9189 -0.5369 -0.0526
 2422TIP3    H228758   6.349   5.803  11.787 -0.0671 -0.9382 -0.0552
 2423TIP3   OH228759   5.831   5.857  13.234 -0.4937 -0.0556  0.3127
 2423TIP3    H128760   5.741   5.856  13.265  0.1388 -0.0621  2.3547
 2423TIP3    H228761   5.883   5.836  13.312  1.1833 -1.9758 -1.1819
 2424TIP3   OH228762   6.590   2.715   1.099 -0.6981 -0.1463  0.4446
 2424TIP3    H128763   6.502   2.682   1.080 -0.7503 -0.9012  1.8107
 2424TIP3    H228764   6.629   2.730   1.013 -1.4223 -1.8444 -0.2400
 2425TIP3   OH228765   1.296   0.526  16.910  0.4174  0.3243 -0.2266
 2425TIP3    H128766   1.351   0.533  16.988 -1.0451 -1.2138  1.0164
 2425TIP3    H228767   1.300   0.433  16.886 -1.8259  0.0918  0.1040
 2426TIP3   OH228768   4.168   0.028   5.525  0.0458  0.2294 -0.2203
 2426TIP3    H128769   4.146  -0.050   5.474 -0.0024 -0.6582  1.1181
 2426TIP3    H228770   4.225   0.079   5.467  1.8180 -1.8048 -0.3775
 2427TIP3   OH228771   2.309   1.655  14.859 -0.0295 -0.2859  0.5260
 2427TIP3    H128772   2.382   1.598  14.836  0.6393  1.3029 -1.6225
 2427TIP3    H228773   2.236   1.625  14.804  0.6204  1.4548 -1.4090
 2428TIP3   OH228774   0.745   0.304   6.485  0.1058 -0.0818  0.9013
 2428TIP3    H128775   0.717   0.264   6.403  0.9345 -0.5313  0.8216
 2428TIP3    H228776   0.686   0.377   6.498  0.3612  0.3837 -0.4222
 2429TIP3   OH228777   3.179   2.801   6.105  0.1754  0.7770  0.2469
 2429TIP3    H128778   3.085   2.819   6.114 -0.7613 -2.5175 -1.3297
 2429TIP3    H228779   3.206   2.770   6.191 -0.5325  0.5034  0.3807
 2430TIP3   OH228780   1.976   0.321  11.809 -0.0641 -0.0827 -0.6674
 2430TIP3    H128781   1.926   0.302  11.889  0.5819 -0.1391 -0.2676
 2430TIP3    H228782   1.911   0.320  11.739 -0.7435  0.6006 -0.0574
 2431TIP3   OH228783   1.948   0.163  10.744  0.0014 -0.1387  0.0553
 2431TIP3    H128784   1.983   0.172  10.832  0.9746  0.6538 -0.3970
 2431TIP3    H228785   2.011   0.207  10.688 -1.4530  0.8577 -0.8714
 2432TIP3   OH228786   5.464   0.824   0.383 -0.1515  0.4477  0.2830
 2432TIP3    H128787   5.556   0.799   0.379 -0.4213 -0.6955  0.6198
 2432TIP3    H228788   5.424   0.756   0.438 -1.2736  0.6586 -0.2489
 2433TIP3   OH228789   0.566   5.987   3.658  0.2705  0.3564  0.3385
 2433TIP3    H128790   0.573   6.083   3.660  0.5386  0.3428  0.0508
 2433TIP3    H228791   0.653   5.958   3.632 -0.0144  0.0576 -0.2932
 2434TIP3   OH228792   2.370   3.620  12.175  0.0875 -0.0161  0.5833
 2434TIP3    H128793   2.320   3.609  12.095  0.2732 -2.5471  0.7374
 2434TIP3    H228794   2.461   3.628  12.146  0.1268 -0.6722  0.5190
 2435TIP3   OH228795   2.847   2.547  12.584  0.1653  0.4731  0.6677
 2435TIP3    H128796   2.802   2.477  12.633  0.8926 -0.4302  0.0772
 2435TIP3    H228797   2.931   2.557  12.629  1.0097 -0.6468 -0.5908
 2436TIP3   OH228798   2.964   5.085   1.067 -0.1619 -0.0301 -0.6759
 2436TIP3    H128799   2.895   5.145   1.038 -1.2060 -1.7256 -1.8723
 2436TIP3    H228800   3.026   5.084   0.994  0.1855  0.0692 -0.3840
 2437TIP3   OH228801   6.040   2.118  15.230 -0.2776 -0.4634  0.2304
 2437TIP3    H128802   6.080   2.203  15.210  2.0570 -1.3498  0.7491
 2437TIP3    H228803   6.076   2.095  15.316 -1.9938 -1.3569  0.7456
 2438TIP3   OH228804   6.291   3.933   4.762  0.4113  0.1636  0.0706
 2438TIP3    H128805   6.236   3.956   4.836 -1.7884 -0.0063 -1.4084
 2438TIP3    H228806   6.252   3.980   4.688  1.9285 -0.4316 -1.1574
 2439TIP3   OH228807   4.225   4.932   6.579  0.0539  0.5383  0.2671
 2439TIP3    H128808   4.318   4.922   6.558  0.4280 -0.9538  2.3486
 2439TIP3    H228809   4.192   4.994   6.514  3.2381  3.8192  1.4849
 2440TIP3   OH228810   3.477   0.525  15.825 -0.0165 -0.2385  0.2571
 2440TIP3    H128811   3.552   0.506  15.768  1.5868  2.7124  1.2060
 2440TIP3    H228812   3.489   0.467  15.900  0.1854 -1.1732 -0.4740
 2441TIP3   OH228813   2.057   3.170   3.103 -0.0719  0.1601 -0.7312
 2441TIP3    H128814   1.975   3.143   3.145 -1.2137  1.7095 -1.8522
 2441TIP3    H228815   2.108   3.089   3.095 -1.5648 -0.8778 -0.1934
 2442TIP3   OH228816   6.226   1.082  14.104 -0.0503 -0.8069 -0.4662
 2442TIP3    H128817   6.269   0.997  14.094  0.4014 -0.5561 -0.6668
 2442TIP3    H228818   6.297   1.141  14.129  0.3812  0.3112 -3.8721
 2443TIP3   OH228819   3.188   0.262  12.361 -0.1012  0.1468 -0.4761
 2443TIP3    H128820   3.134   0.307  12.296 -1.8770 -0.4941  0.4865
 2443TIP3    H228821   3.205   0.328  12.428  2.1720  0.9671 -1.7087
 2444TIP3   OH228822   1.299   0.247   4.106  0.0322  0.2544 -0.3469
 2444TIP3    H128823   1.248   0.242   4.187  1.4178  0.7863  0.5910
 2444TIP3    H228824   1.276   0.332   4.069 -0.2472  0.2118 -0.2755
 2445TIP3   OH228825   4.271   1.745  11.507  0.1180  0.0440 -0.3740
 2445TIP3    H128826   4.297   1.693  11.431  0.4216  1.6106 -1.3695
 2445TIP3    H228827   4.333   1.817  11.510  0.2622 -0.0961  1.5317
 2446TIP3   OH228828   4.644   5.696  14.869 -0.1140  0.8381 -0.5133
 2446TIP3    H128829   4.650   5.732  14.957  1.2414 -0.1022 -0.1737
 2446TIP3    H228830   4.554   5.665  14.862 -0.3753  1.3562  0.3637
 2447TIP3   OH228831   4.650   6.600  10.879  0.4775 -0.3270 -0.2515
 2447TIP3    H128832   4.602   6.523  10.849  1.4893 -0.6251 -1.1742
 2447TIP3    H228833   4.641   6.598  10.975 -2.6982  0.5745 -0.4153
 2448TIP3   OH228834   2.454   2.119  11.667  0.3607  0.2652  0.0135
 2448TIP3    H128835   2.403   2.038  11.676  2.3118 -0.9791  0.4412
 2448TIP3    H228836   2.411   2.166  11.595 -0.0707 -1.7745 -1.1527
 2449TIP3   OH228837   2.228   0.250   5.734 -0.0647 -0.3888 -0.0422
 2449TIP3    H128838   2.133   0.252   5.718  0.1790  1.5104 -1.6307
 2449TIP3    H228839   2.245   0.329   5.786  0.6567 -0.8047  0.3733
 2450TIP3   OH228840   3.558   5.284  11.446 -0.4097  0.2203 -0.4559
 2450TIP3    H128841   3.504   5.306  11.522  0.5395 -0.2125  0.3633
 2450TIP3    H228842   3.495   5.253  11.381 -1.3474  1.5517 -0.2329
 2451TIP3   OH228843   0.169   2.666  13.696 -0.1561 -0.3533 -0.0186
 2451TIP3    H128844   0.115   2.649  13.619  1.5985 -0.6214 -1.2242
 2451TIP3    H228845   0.170   2.761  13.705  2.8466  0.0275 -2.8031
 2452TIP3   OH228846   1.336   2.475   0.614  0.2938 -0.1958 -0.7915
 2452TIP3    H128847   1.263   2.489   0.554 -0.0871  1.6318  0.0546
 2452TIP3    H228848   1.401   2.428   0.561 -0.8375 -0.4540 -2.0136
 2453TIP3   OH228849   1.501   1.333   3.235 -0.4006 -0.5476  0.1293
 2453TIP3    H128850   1.508   1.418   3.278  0.5325 -1.3794  1.7314
 2453TIP3    H228851   1.460   1.276   3.301  0.7702 -1.8016 -0.1880
 2454TIP3   OH228852   5.788   3.723  11.119 -0.2560  0.3400 -0.1386
 2454TIP3    H128853   5.872   3.744  11.161  1.4624 -1.1508 -2.5567
 2454TIP3    H228854   5.791   3.768  11.035 -2.3602  1.0093  0.0894
 2455TIP3   OH228855   6.764   3.588  10.606  0.2607 -0.0272 -0.1729
 2455TIP3    H128856   6.782   3.682  10.614 -0.5799  0.1657 -0.4016
 2455TIP3    H228857   6.697   3.570  10.672 -2.5997  0.4268 -2.7275
 2456TIP3   OH228858   4.597   4.005  15.266 -0.2982  0.3500  0.7439
 2456TIP3    H128859   4.582   4.062  15.190  0.8478 -0.7560 -0.3828
 2456TIP3    H228860   4.669   4.046  15.313  0.7672 -0.2908 -0.2624
 2457TIP3   OH228861   2.171   4.273  11.735 -0.2098  0.9317 -0.2615
 2457TIP3    H128862   2.247   4.226  11.770  0.2378 -0.6381 -3.0846
 2457TIP3    H228863   2.206   4.358  11.708  0.5733  0.2938 -1.3622
 2458TIP3   OH228864   5.628   1.685   2.969  0.7058 -0.5355 -0.3421
 2458TIP3    H128865   5.709   1.637   2.950  0.2312 -0.5895 -2.4892
 2458TIP3    H228866   5.559   1.631   2.931 -0.3242 -0.2810  1.0861
 2459TIP3   OH228867   5.655   0.148   0.960  0.5401 -0.6248 -0.0100
 2459TIP3    H128868   5.707   0.198   0.897  0.2097 -0.1844  0.0649
 2459TIP3    H228869   5.702   0.158   1.043  1.5960 -2.1160 -0.3709
 2460TIP3   OH228870   0.314   6.261   1.687 -0.4672  0.4563  0.1185
 2460TIP3    H128871   0.301   6.293   1.597 -0.8549 -1.0852 -0.4001
 2460TIP3    H228872   0.366   6.330   1.729  1.8824  0.1603 -2.0220
 2461TIP3   OH228873   1.978   6.442   0.982  0.1529  0.2737  0.0300
 2461TIP3    H128874   1.985   6.435   1.077  0.3901  0.9924  0.0736
 2461TIP3    H228875   1.919   6.517   0.968  2.0269  1.7437 -0.3825
 2462TIP3   OH228876   2.737   3.354   2.687 -0.0932  0.4328  0.2594
 2462TIP3    H128877   2.831   3.363   2.675  0.1668  0.0880  1.7767
 2462TIP3    H228878   2.703   3.330   2.600  1.2869 -0.0003 -0.1802
 2463TIP3   OH228879   0.908   2.003  12.757  0.0234 -0.1018  0.4059
 2463TIP3    H128880   0.930   1.914  12.730 -0.2823  0.1118 -0.5852
 2463TIP3    H228881   0.873   2.045  12.678 -2.9092 -0.0771  1.5612
 2464TIP3   OH228882   2.789   4.025   6.313  0.3204  0.0838 -0.0915
 2464TIP3    H128883   2.753   3.970   6.243 -0.3750  0.4391 -0.0170
 2464TIP3    H228884   2.731   4.100   6.317  2.1035  1.6283 -1.2181
 2465TIP3   OH228885   3.920   4.926  16.511  0.1233  0.1365  0.2858
 2465TIP3    H128886   3.835   4.940  16.470  1.1752  0.1401 -2.0577
 2465TIP3    H228887   3.934   5.004  16.565 -0.5291  1.0811 -0.8599
 2466TIP3   OH228888   2.540   6.511  13.719  0.1437  0.1421  0.3039
 2466TIP3    H128889   2.632   6.514  13.743  0.0978 -0.0196  0.5081
 2466TIP3    H228890   2.516   6.602  13.704  0.4564  0.1445 -0.2262
 2467TIP3   OH228891   2.159   5.639  15.695 -0.8822 -0.3608  0.3872
 2467TIP3    H128892   2.155   5.671  15.785  0.5073  0.9638  0.0205
 2467TIP3    H228893   2.149   5.717  15.641  1.0455 -0.7029 -0.5536
 2468TIP3   OH228894   4.804   6.674   6.067  0.0841 -0.1389 -0.0457
 2468TIP3    H128895   4.757   6.723   5.999 -2.3674 -1.1514  0.8372
 2468TIP3    H228896   4.742   6.667   6.139  2.2905  0.0906  1.9854
 2469TIP3   OH228897   1.847   1.777  14.705  0.4552  1.3248  0.3725
 2469TIP3    H128898   1.775   1.752  14.764 -0.0780  1.0759 -0.3677
 2469TIP3    H228899   1.822   1.864  14.673  0.8400  1.5425  0.6492
 2470TIP3   OH228900   4.178   2.151  16.175 -0.0674 -0.5208 -0.0353
 2470TIP3    H128901   4.237   2.149  16.251 -1.2786  1.0882  1.0189
 2470TIP3    H228902   4.183   2.063  16.138  3.4543 -0.2977 -0.3969
 2471TIP3   OH228903   3.692   2.218  14.340 -0.0923 -0.2161 -0.0269
 2471TIP3    H128904   3.650   2.135  14.365 -2.6165  0.9378 -0.1254
 2471TIP3    H228905   3.708   2.209  14.246 -1.4371 -0.2131 -0.2833
 2472TIP3   OH228906   1.470   3.208  15.561  0.2534 -0.7292 -0.3138
 2472TIP3    H128907   1.513   3.288  15.532  0.1375 -1.0403 -1.4001
 2472TIP3    H228908   1.531   3.138  15.539 -0.1152 -1.0347 -0.3851
 2473TIP3   OH228909   0.444   3.629   1.893 -0.1126 -0.5129  0.0861
 2473TIP3    H128910   0.401   3.675   1.821 -0.1131  1.4301  1.2663
 2473TIP3    H228911   0.531   3.668   1.898 -0.4361  0.0744  1.7055
 2474TIP3   OH228912   2.230   0.326   1.948 -0.0112 -0.6007 -0.5469
 2474TIP3    H128913   2.227   0.232   1.963 -1.6893 -0.2197  2.4434
 2474TIP3    H228914   2.323   0.349   1.957  0.2541 -1.8195  0.0387
 2475TIP3   OH228915   2.364   6.346   3.927  0.2495 -0.6507 -0.2127
 2475TIP3    H128916   2.283   6.351   3.876  0.5300 -0.4883 -0.6437
 2475TIP3    H228917   2.381   6.437   3.953 -0.1747 -0.7981  0.6217
 2476TIP3   OH228918   5.598   5.031  13.876  0.1223 -0.0347 -0.4899
 2476TIP3    H128919   5.657   5.103  13.898 -0.8153  0.1009  1.9214
 2476TIP3    H228920   5.517   5.074  13.848  0.8259 -0.2181 -2.9748
 2477TIP3   OH228921   2.721   0.031  13.038 -0.0777  0.3237  0.3508
 2477TIP3    H128922   2.732  -0.055  12.996  0.3810 -0.4841  2.0202
 2477TIP3    H228923   2.628   0.035  13.060 -0.0663  0.1688  0.4306
 2478TIP3   OH228924   2.037   5.830   5.412  0.3471 -0.1809 -0.1101
 2478TIP3    H128925   1.950   5.836   5.451  0.7397 -0.0680  0.7887
 2478TIP3    H228926   2.073   5.919   5.419  1.0233 -0.5012  0.7534
 2479TIP3   OH228927   6.416   2.942   6.275  0.0804  0.1837  0.0568
 2479TIP3    H128928   6.329   2.942   6.236  0.1668  1.9857 -0.2356
 2479TIP3    H228929   6.406   2.992   6.356  0.8085  0.3685  0.0451
 2480TIP3   OH228930   2.023   2.304  16.336  0.0556 -0.0120 -0.4715
 2480TIP3    H128931   2.044   2.397  16.326  2.0015 -0.4052 -0.3899
 2480TIP3    H228932   1.999   2.294  16.428 -1.1067  0.5528 -0.6958
 2481TIP3   OH228933   0.240   4.414  15.491 -0.3159  0.7227 -0.4211
 2481TIP3    H128934   0.205   4.397  15.578 -1.3493  2.1293 -0.5297
 2481TIP3    H228935   0.320   4.361  15.487 -0.8334 -0.2304  0.9471
 2482TIP3   OH228936   4.530   3.868   2.647  1.1962 -0.2412  0.8539
 2482TIP3    H128937   4.445   3.912   2.655  1.0115  0.0735 -1.8729
 2482TIP3    H228938   4.588   3.918   2.705 -0.2923 -0.0183  2.2180
 2483TIP3   OH228939   5.057   4.352  14.508  0.5190  0.2323 -0.3753
 2483TIP3    H128940   4.986   4.296  14.538  0.1540  0.0788 -1.4643
 2483TIP3    H228941   5.037   4.369  14.415  1.1234  1.3861 -0.3198
 2484TIP3   OH228942   1.756   4.730  12.847 -0.2766  0.0705 -0.1536
 2484TIP3    H128943   1.763   4.706  12.755  0.1310  0.9754 -0.3662
 2484TIP3    H228944   1.729   4.822  12.846  1.0011  0.4852  0.6027
 2485TIP3   OH228945   2.970   0.304  14.145 -0.3974  0.7834 -0.6318
 2485TIP3    H128946   3.007   0.389  14.167  2.0002 -0.2966 -0.1767
 2485TIP3    H228947   2.886   0.301  14.192 -0.8110  3.0670 -1.1295
 2486TIP3   OH228948   6.403   1.187  11.925  0.4306 -0.0937 -0.3872
 2486TIP3    H128949   6.437   1.149  11.843 -1.1318  0.6149 -1.4188
 2486TIP3    H228950   6.414   1.281  11.913 -0.0410  0.0265  0.1152
 2487TIP3   OH228951   0.129   6.386  16.183  0.9421 -0.3863  0.4236
 2487TIP3    H128952   0.092   6.308  16.225  1.0997 -0.3739  0.5872
 2487TIP3    H228953   0.057   6.450  16.185  0.1432 -1.1672 -1.5095
 2488TIP3   OH228954   6.317   5.715  13.516 -0.1841  0.4751 -0.0647
 2488TIP3    H128955   6.385   5.763  13.562 -0.4114  2.7644 -1.9305
 2488TIP3    H228956   6.300   5.638  13.571  3.1270  0.3428  0.9530
 2489TIP3   OH228957   6.335   5.692   1.212  0.5561 -0.6114  0.8630
 2489TIP3    H128958   6.352   5.648   1.128  4.1430 -0.5598  1.3895
 2489TIP3    H228959   6.415   5.678   1.263 -0.7475  0.9839  3.5813
 2490TIP3   OH228960   2.958   1.031   3.042 -0.5305 -0.1368 -0.7197
 2490TIP3    H128961   2.929   1.122   3.033 -0.2643  0.0086 -0.1784
 2490TIP3    H228962   3.001   1.011   2.959 -0.9402  0.1026 -0.9906
 2491TIP3   OH228963   0.432   2.381  13.649 -0.5177 -0.2465 -0.2168
 2491TIP3    H128964   0.496   2.320  13.684  0.9499  1.0027 -0.6514
 2491TIP3    H228965   0.440   2.373  13.554  1.0176  1.8783 -0.3294
 2492TIP3   OH228966   5.194   1.632  11.477 -0.2110 -0.4149  0.3439
 2492TIP3    H128967   5.233   1.719  11.487 -0.4136 -0.3225  0.3462
 2492TIP3    H228968   5.253   1.586  11.417 -1.2004  0.4315 -1.3582
 2493TIP3   OH228969   5.282   5.821   2.346  0.2024 -0.0739 -0.2563
 2493TIP3    H128970   5.348   5.774   2.396 -0.1665 -1.6309 -1.1472
 2493TIP3    H228971   5.205   5.764   2.348 -1.3613  1.9473  1.2371
 2494TIP3   OH228972   1.386   6.759   2.612 -0.4332 -0.1314 -0.1788
 2494TIP3    H128973   1.332   6.809   2.550  0.8040  0.7690 -0.5565
 2494TIP3    H228974   1.376   6.668   2.583 -2.3105 -0.0989  0.2059
 2495TIP3   OH228975   1.060   3.601   2.409 -0.7567  0.8771  0.7089
 2495TIP3    H128976   1.101   3.613   2.323  0.7660  0.9570  1.4042
 2495TIP3    H228977   0.972   3.635   2.398 -0.6271  0.8117 -0.8455
 2496TIP3   OH228978   1.907   4.397  14.295 -0.6887 -0.7001 -0.4734
 2496TIP3    H128979   1.939   4.394  14.205 -1.8149 -0.5238 -0.8997
 2496TIP3    H228980   1.891   4.306  14.318  2.8572 -1.1535  0.8302
 2497TIP3   OH228981   5.837   0.113  16.062  0.0088  0.3636  0.7988
 2497TIP3    H128982   5.927   0.083  16.050  0.1345  0.8384  0.5699
 2497TIP3    H228983   5.790   0.079  15.985  0.1643  0.7993  0.5085
 2498TIP3   OH228984   1.907   3.221  11.245  0.6515 -0.3186  0.0148
 2498TIP3    H128985   1.950   3.301  11.216 -0.9582  0.4533 -0.3624
 2498TIP3    H228986   1.814   3.239  11.236  0.1036 -0.9694  3.2558
 2499TIP3   OH228987   6.311   6.527  14.433 -0.1208 -0.4203  0.1400
 2499TIP3    H128988   6.359   6.492  14.508 -0.5185  0.2783  0.7288
 2499TIP3    H228989   6.281   6.614  14.461  0.3829  0.1854 -1.0934
 2500TIP3   OH228990   1.320   6.529   1.715 -0.2025  0.9050  0.3635
 2500TIP3    H128991   1.227   6.523   1.737 -0.4644 -0.3968 -0.9739
 2500TIP3    H228992   1.322   6.543   1.620  0.9680 -0.9839  0.0522
 2501TIP3   OH228993   4.626   2.410   5.344  0.5698 -0.2677  0.1335
 2501TIP3    H128994   4.532   2.422   5.333  0.9140  4.5514  0.0652
 2501TIP3    H228995   4.642   2.431   5.436  1.6462 -0.4784  0.0065
 2502TIP3   OH228996   2.221   4.989   5.643  0.2877  0.1198  0.0996
 2502TIP3    H128997   2.295   5.029   5.599  0.3555 -0.9058 -0.7598
 2502TIP3    H228998   2.248   4.898   5.659  0.5260  0.5774  2.8544
 2503TIP3   OH228999   4.892   4.639  16.769  0.1775 -0.1290  0.4058
 2503TIP3    H129000   4.949   4.696  16.820  0.6664 -1.1014  0.9854
 2503TIP3    H229001   4.951   4.588  16.715 -0.2679  0.0503 -0.2679
 2504TIP3   OH229002   1.109   3.237  16.029  0.0195  0.2766 -0.0442
 2504TIP3    H129003   1.189   3.272  15.989  1.0739  2.0497  3.2032
 2504TIP3    H229004   1.130   3.145  16.048  2.2087  1.1215  2.3961
 2505TIP3   OH229005   5.041   6.039  14.770  0.2442 -0.0435 -0.0362
 2505TIP3    H129006   5.023   5.945  14.775  0.3780 -0.0284  1.0053
 2505TIP3    H229007   4.964   6.076  14.727  0.5406 -0.7209 -1.1859
 2506TIP3   OH229008   6.761   4.025   3.540 -0.1562  0.5996  0.5046
 2506TIP3    H129009   6.769   4.115   3.572  0.1608  0.4329  0.8989
 2506TIP3    H229010   6.710   4.033   3.459 -0.4212  1.0940  0.7183
 2507TIP3   OH229011   3.572   4.310  13.720  0.0591 -0.5885 -0.1491
 2507TIP3    H129012   3.563   4.235  13.778 -1.2491  1.5876  2.6668
 2507TIP3    H229013   3.486   4.320  13.679 -0.2100  0.1554  0.5699
 2508TIP3   OH229014   5.021   4.503   4.987 -0.4234  0.0414  0.0041
 2508TIP3    H129015   5.097   4.486   4.931  0.0175 -0.6636  0.7841
 2508TIP3    H229016   4.947   4.505   4.927  0.1339  0.1117 -0.6967
 2509TIP3   OH229017   1.836   3.129  15.133 -0.4402 -0.1480  0.0528
 2509TIP3    H129018   1.804   3.129  15.043 -1.1364 -1.1701  0.2875
 2509TIP3    H229019   1.925   3.164  15.126 -0.5628 -0.0057 -0.9984
 2510TIP3   OH229020   3.237   4.768  14.971  0.1590 -0.8292  0.0639
 2510TIP3    H129021   3.322   4.776  15.015 -0.2716 -0.6959  0.8870
 2510TIP3    H229022   3.172   4.785  15.040 -0.5258  1.4023 -1.0410
 2511TIP3   OH229023   5.167   5.234   2.897 -0.2261  0.5878  0.1467
 2511TIP3    H129024   5.252   5.264   2.927 -0.1698  2.0488 -1.3646
 2511TIP3    H229025   5.186   5.158   2.843 -0.0396  0.0308  0.9720
 2512TIP3   OH229026   0.314   6.298   3.983 -0.3269  0.3617  0.0116
 2512TIP3    H129027   0.239   6.290   3.924  0.2923 -0.4246 -0.6803
 2512TIP3    H229028   0.316   6.214   4.030  0.2361  0.3052 -0.1143
 2513TIP3   OH229029   4.981   2.190  12.117  0.1255  0.8665  0.3163
 2513TIP3    H129030   4.952   2.277  12.087  2.1948  1.8920  1.0604
 2513TIP3    H229031   5.074   2.202  12.136  1.0223 -2.0892 -1.6053
 2514TIP3   OH229032   3.295   6.428   4.389  0.0816  0.7699  0.0257
 2514TIP3    H129033   3.323   6.415   4.479 -1.3090  0.7952  0.4928
 2514TIP3    H229034   3.260   6.342   4.363  0.0803  0.8792 -0.3385
 2515TIP3   OH229035   0.039   2.384  13.570  0.5020  0.7369 -0.3283
 2515TIP3    H129036  -0.033   2.437  13.535  0.3507  1.5989  1.1599
 2515TIP3    H229037  -0.002   2.301  13.593  0.4979  0.3603 -1.6513
 2516TIP3   OH229038   2.345   6.229   0.775  0.5333  0.0709  0.6717
 2516TIP3    H129039   2.348   6.177   0.694  0.5520 -1.1108  1.3983
 2516TIP3    H229040   2.297   6.308   0.751  1.3160  0.1686 -0.7156
 2517TIP3   OH229041   6.532   2.483   2.402  0.2023  0.0549 -0.0509
 2517TIP3    H129042   6.493   2.566   2.373  1.3943  0.6755  0.0760
 2517TIP3    H229043   6.458   2.433   2.436 -0.3530  1.6276  1.1753
 2518TIP3   OH229044   2.798   6.537   3.179 -0.9241  0.0026  0.3959
 2518TIP3    H129045   2.863   6.516   3.246 -0.6140  2.0492  0.7986
 2518TIP3    H229046   2.810   6.470   3.112  0.3524 -0.7221  1.3076
 2519TIP3   OH229047   2.628   1.211  14.197  0.1050 -0.4580  0.4760
 2519TIP3    H129048   2.553   1.268  14.182  0.1477 -0.3812  0.5564
 2519TIP3    H229049   2.639   1.210  14.293 -0.2988 -1.1107  0.5236
 2520TIP3   OH229050   4.525   0.861   5.750  0.3901  0.2621 -0.1787
 2520TIP3    H129051   4.511   0.942   5.799  2.2516 -0.5537  1.8391
 2520TIP3    H229052   4.515   0.791   5.815  0.2347 -1.0605 -1.5693
 2521TIP3   OH229053   2.857   1.406   2.781  0.2114 -0.0263  0.1939
 2521TIP3    H129054   2.947   1.437   2.766 -0.0279  0.7160  0.2270
 2521TIP3    H229055   2.812   1.482   2.820 -0.2228 -0.6454  0.9339
 2522TIP3   OH229056   2.639   0.705  17.077  0.0396  0.5371  0.3368
 2522TIP3    H129057   2.550   0.733  17.098  0.0567  0.9340 -0.0933
 2522TIP3    H229058   2.665   0.762  17.005  0.5785  0.3035  0.3440
 2523TIP3   OH229059   1.069   6.682  11.192 -0.7448  0.3335 -0.0477
 2523TIP3    H129060   1.026   6.739  11.256 -1.5213 -1.3552  1.0085
 2523TIP3    H229061   0.999   6.658  11.131 -0.5847 -0.0301 -0.0896
 2524TIP3   OH229062   6.557   2.948  15.623  0.4127  0.1475 -0.2902
 2524TIP3    H129063   6.553   3.028  15.675  0.7080  0.7299 -1.1337
 2524TIP3    H229064   6.523   2.880  15.681 -2.5431  1.3360 -0.4234
 2525TIP3   OH229065   1.707   3.406   6.190 -0.3766 -0.0870  0.1332
 2525TIP3    H129066   1.631   3.370   6.144 -1.5789  1.9751  0.4096
 2525TIP3    H229067   1.670   3.449   6.267  0.8913  2.1804 -0.4403
 2526TIP3   OH229068   5.403   5.968  11.960 -0.1435  0.4006 -0.0506
 2526TIP3    H129069   5.488   6.002  11.932  0.4899 -0.4978  0.7256
 2526TIP3    H229070   5.403   5.978  12.055 -1.1710  0.9514 -0.0982
 2527TIP3   OH229071   3.062   1.370   0.321  0.3757 -0.1339  0.0631
 2527TIP3    H129072   3.014   1.421   0.387 -0.0751 -1.0779  0.4823
 2527TIP3    H229073   3.102   1.299   0.371  0.2177 -0.7307 -0.6513
 2528TIP3   OH229074   4.417   1.154  16.942 -0.1691 -0.4352  0.4845
 2528TIP3    H129075   4.443   1.082  16.885  1.2913 -0.0572  0.6399
 2528TIP3    H229076   4.483   1.222  16.928 -1.9351  1.2372 -0.2551
 2529TIP3   OH229077   5.641   5.956   5.305  0.4103  0.2217 -0.4744
 2529TIP3    H129078   5.549   5.979   5.294  0.6009  0.9954 -0.4515
 2529TIP3    H229079   5.689   6.036   5.286  1.1302 -0.3634 -1.2377
 2530TIP3   OH229080   3.225   1.079  10.665 -0.2928  0.2999  0.0652
 2530TIP3    H129081   3.174   1.123  10.597  0.4162  0.1191 -0.6025
 2530TIP3    H229082   3.161   1.027  10.714 -0.9389  1.0652  0.0625
 2531TIP3   OH229083   6.281   5.583  13.171 -0.2332  0.6946  0.1384
 2531TIP3    H129084   6.324   5.514  13.222 -2.2605 -0.1368  0.8390
 2531TIP3    H229085   6.237   5.536  13.100 -0.0733  1.5040 -0.5086
 2532TIP3   OH229086   2.339   5.453  11.224 -0.3933  0.5496  0.2457
 2532TIP3    H129087   2.417   5.466  11.171  0.2098  1.2312  1.2644
 2532TIP3    H229088   2.292   5.382  11.181  0.7601  0.1614 -0.4064
 2533TIP3   OH229089   1.840   0.858   3.219  0.3011  0.2132  0.7040
 2533TIP3    H129090   1.859   0.797   3.148  1.0094  0.5515  0.5887
 2533TIP3    H229091   1.805   0.935   3.175  0.4905  0.3204  0.7365
 2534TIP3   OH229092   1.210   3.765  14.869 -0.2517  0.3174 -0.8223
 2534TIP3    H129093   1.219   3.694  14.933 -2.1269  0.2429 -0.5905
 2534TIP3    H229094   1.238   3.844  14.917 -3.5674  0.6093  0.8927
 2535TIP3   OH229095   3.262   5.131   4.400  0.4631  0.2136  0.7383
 2535TIP3    H129096   3.220   5.083   4.328 -2.1348  3.7189 -0.3772
 2535TIP3    H229097   3.355   5.125   4.381 -0.0075 -1.0098 -1.6007
 2536TIP3   OH229098   4.763   3.955  16.850  0.4766  0.0620 -0.2427
 2536TIP3    H129099   4.698   4.017  16.882  0.6271 -0.4004  1.0169
 2536TIP3    H229100   4.712   3.879  16.822  0.4543 -0.3012  0.7464
 2537TIP3   OH229101   5.532   6.466  15.239 -0.1995  0.0891 -0.1855
 2537TIP3    H129102   5.489   6.549  15.258  1.6716  1.4099 -1.4035
 2537TIP3    H229103   5.528   6.458  15.144  0.2204 -0.9057 -0.1336
 2538TIP3   OH229104   1.678   5.075  14.098 -0.6158  0.4393  0.4572
 2538TIP3    H129105   1.760   5.030  14.076  0.8284  3.4659 -1.1080
 2538TIP3    H229106   1.609   5.016  14.068  1.0154 -1.5983  0.4973
 2539TIP3   OH229107   2.244   0.734   3.463  0.4043  0.3004 -0.4554
 2539TIP3    H129108   2.303   0.803   3.433  1.1565  0.0097  0.3321
 2539TIP3    H229109   2.297   0.655   3.464  0.7016  0.4492  2.4870
 2540TIP3   OH229110   1.959   0.443  13.744  0.0893  0.1012  0.7575
 2540TIP3    H129111   1.874   0.475  13.774  0.2129 -0.0637  1.2924
 2540TIP3    H229112   1.996   0.397  13.819  1.4127  1.6425  1.1022
 2541TIP3   OH229113   6.012   3.199  13.184 -0.0856  0.4361  0.2636
 2541TIP3    H129114   6.033   3.168  13.272  0.3026 -0.3005 -0.0784
 2541TIP3    H229115   6.086   3.255  13.160  0.8054 -0.9396 -0.3433
 2542TIP3   OH229116   0.260   3.138  14.630  0.3849  0.0730 -0.2064
 2542TIP3    H129117   0.263   3.131  14.535  0.5242 -0.9371 -0.1357
 2542TIP3    H229118   0.192   3.076  14.656  0.7654 -0.1019  0.3901
 2543TIP3   OH229119   5.265   2.334  10.725  0.1430 -0.1573 -1.0913
 2543TIP3    H129120   5.320   2.403  10.762  0.1743 -0.2029 -1.0530
 2543TIP3    H229121   5.315   2.300  10.651  0.8716 -1.2565 -0.1345
 2544TIP3   OH229122   3.310   4.033  11.537  0.1024  0.0394  0.3112
 2544TIP3    H129123   3.308   4.096  11.609  0.1778 -1.6667  1.8869
 2544TIP3    H229124   3.384   3.976  11.559 -0.8161 -1.4281 -0.2918
 2545TIP3   OH229125   1.329   0.220  12.714 -0.2537  0.3908  0.1707
 2545TIP3    H129126   1.377   0.274  12.777 -1.0520  1.5036 -0.1299
 2545TIP3    H229127   1.352   0.256  12.628 -0.2164 -0.2362 -0.0871
 2546TIP3   OH229128   1.509   1.997  12.103 -0.6620 -0.0252  0.1551
 2546TIP3    H129129   1.477   1.930  12.044  0.7713 -0.5519 -0.0664
 2546TIP3    H229130   1.493   2.079  12.057 -0.5378 -0.3612 -0.5030
 2547TIP3   OH229131   3.028   0.983   4.071 -0.0836 -0.1252  0.4737
 2547TIP3    H129132   3.034   1.066   4.119  1.0723 -0.6268  1.2511
 2547TIP3    H229133   3.017   1.009   3.980 -1.1051  0.8629  0.8460
 2548TIP3   OH229134   4.540   5.562   0.667 -0.2246  0.1297 -0.4056
 2548TIP3    H129135   4.559   5.477   0.707  0.1252  0.4653  0.1508
 2548TIP3    H229136   4.620   5.584   0.619  0.1154  0.6514  0.3665
 2549TIP3   OH229137   4.500   1.248  16.558  0.8151  0.6476 -0.1495
 2549TIP3    H129138   4.408   1.222  16.552  1.2973 -1.1415 -0.6339
 2549TIP3    H229139   4.505   1.333  16.515 -0.5493  0.6000 -0.4254
 2550TIP3   OH229140   0.609   3.841   5.914 -0.0063  0.8416 -0.6107
 2550TIP3    H129141   0.682   3.821   5.972  0.2921  1.0252 -0.9193
 2550TIP3    H229142   0.531   3.821   5.966  0.2517 -1.6288 -1.0663
 2551TIP3   OH229143   0.360   2.744   1.236  1.0227 -0.1311 -0.1285
 2551TIP3    H129144   0.424   2.805   1.199  1.2955 -0.7465 -0.6801
 2551TIP3    H229145   0.352   2.772   1.328 -0.6997  2.2784 -0.9164
 2552TIP3   OH229146   3.145   1.827   4.132  0.3304  0.0283 -0.4004
 2552TIP3    H129147   3.138   1.755   4.069 -0.7488 -0.3136  0.0857
 2552TIP3    H229148   3.115   1.790   4.215  0.7991  0.7457  0.1013
 2553TIP3   OH229149   4.421   0.771   3.391 -0.2403  0.0647 -0.0411
 2553TIP3    H129150   4.347   0.713   3.376  0.6865 -0.9925 -0.7010
 2553TIP3    H229151   4.482   0.750   3.320  0.3409  1.4919  0.0147
 2554TIP3   OH229152   1.022   3.526   3.595  0.0331  0.1000  0.6799
 2554TIP3    H129153   1.105   3.574   3.590 -0.1101  0.2372 -0.9478
 2554TIP3    H229154   0.962   3.586   3.639  0.6577  0.1984  1.4158
 2555TIP3   OH229155   1.547   1.894   2.227  0.1588  0.0282 -0.2555
 2555TIP3    H129156   1.603   1.831   2.273 -0.5239  0.9347  1.9327
 2555TIP3    H229157   1.603   1.971   2.215  0.1682 -0.0132 -0.4919
 2556TIP3   OH229158   5.882   2.872  16.651 -0.6722  0.2977  0.7128
 2556TIP3    H129159   5.795   2.879  16.691 -0.6265  0.4140  0.7916
 2556TIP3    H229160   5.890   2.952  16.599 -1.0963 -0.2656 -0.2497
 2557TIP3   OH229161   0.822   1.561   5.021 -0.1101  0.0749  0.8412
 2557TIP3    H129162   0.868   1.558   4.937  1.2381 -2.1789  1.5804
 2557TIP3    H229163   0.846   1.646   5.058  3.3393 -0.8332  1.0486
 2558TIP3   OH229164   5.980   1.196   3.778  0.4377  0.3095 -0.0580
 2558TIP3    H129165   6.029   1.210   3.697  0.0401 -1.1739 -0.5963
 2558TIP3    H229166   5.896   1.159   3.748  0.7410 -1.4092  1.0649
 2559TIP3   OH229167   4.716   4.314   5.361 -0.5028 -0.5667 -0.1372
 2559TIP3    H129168   4.702   4.263   5.281  0.9886 -0.5689 -0.4426
 2559TIP3    H229169   4.633   4.359   5.376 -1.2892 -1.7182 -0.8427
 2560TIP3   OH229170   4.058   5.423   1.503 -0.2606  0.6902 -0.6593
 2560TIP3    H129171   4.130   5.482   1.523 -0.4528  1.0523 -1.0203
 2560TIP3    H229172   4.092   5.336   1.524  0.0592  0.9162 -0.2217
 2561TIP3   OH229173   4.109   6.591  15.588 -0.0381 -0.0318 -0.1296
 2561TIP3    H129174   4.031   6.571  15.537  1.0053 -6.2573 -0.0284
 2561TIP3    H229175   4.077   6.643  15.662 -3.7832 -0.8645 -0.9726
 2562TIP3   OH229176   1.749   4.525  15.429  0.1159 -0.1253 -0.1238
 2562TIP3    H129177   1.682   4.546  15.365  0.2827 -0.9722 -0.5898
 2562TIP3    H229178   1.819   4.484  15.378  0.3662 -0.5685  0.5651
 2563TIP3   OH229179   2.680   3.761  10.660  0.0812 -0.4452 -0.2576
 2563TIP3    H129180   2.775   3.776  10.656  0.3626 -1.3090  1.7076
 2563TIP3    H229181   2.643   3.846  10.683  0.3798 -0.1390 -0.8820
 2564TIP3   OH229182   2.173   4.698   2.322 -0.3939  0.0997 -0.2187
 2564TIP3    H129183   2.166   4.786   2.284  1.1277 -0.3587 -1.6636
 2564TIP3    H229184   2.247   4.704   2.383 -1.1300  0.1335  0.6964
 2565TIP3   OH229185   2.745   5.299  14.502  0.7902  0.4343 -0.2943
 2565TIP3    H129186   2.679   5.247  14.457  0.6030  1.4607 -1.2451
 2565TIP3    H229187   2.726   5.287  14.595  0.7037 -1.1066 -0.4904
 2566TIP3   OH229188   5.724   1.026   0.570  0.2779  0.5221 -0.4869
 2566TIP3    H129189   5.763   0.952   0.616 -1.8267 -0.7555 -0.6198
 2566TIP3    H229190   5.647   1.049   0.623 -0.5819  0.8629 -1.8340
 2567TIP3   OH229191   1.024   0.695   1.795  0.0726  0.2891 -0.0722
 2567TIP3    H129192   1.071   0.759   1.743 -0.7794  1.6471  0.7512
 2567TIP3    H229193   1.035   0.724   1.886  0.7313 -1.4738  0.4616
 2568TIP3   OH229194   5.514   5.051  16.683 -0.4850 -0.0655  0.2019
 2568TIP3    H129195   5.470   5.116  16.738 -1.2177 -0.6613  0.3514
 2568TIP3    H229196   5.516   5.090  16.596  3.0449  2.0445  1.0439
 2569TIP3   OH229197   5.314   6.465   5.993 -0.2832 -0.3088  0.2937
 2569TIP3    H129198   5.224   6.497   5.999 -0.0666  0.1936  0.8613
 2569TIP3    H229199   5.346   6.462   6.083 -0.1559 -1.7544  0.2337
 2570TIP3   OH229200   4.771   2.905  14.315 -0.1521 -0.2643  0.1373
 2570TIP3    H129201   4.774   2.810  14.319  0.1185 -0.2037  1.9703
 2570TIP3    H229202   4.809   2.934  14.397 -1.6669  1.4071  0.3075
 2571TIP3   OH229203   6.265   1.265   5.462  0.2063 -0.2416 -0.1325
 2571TIP3    H129204   6.198   1.319   5.420 -0.7104 -0.4785  0.9667
 2571TIP3    H229205   6.347   1.294   5.423 -0.0061  3.2030  1.5986
 2572TIP3   OH229206   1.131   6.671  14.625  0.0135  0.5907  0.5415
 2572TIP3    H129207   1.165   6.593  14.581 -0.3276  0.8463 -0.1993
 2572TIP3    H229208   1.127   6.737  14.556 -1.5805  0.6857  0.6909
 2573TIP3   OH229209   2.113   3.149   0.612  0.2684 -0.2197  0.9013
 2573TIP3    H129210   2.112   3.175   0.704 -0.1894 -0.2727  0.9154
 2573TIP3    H229211   2.046   3.081   0.606 -1.3118  1.3129  0.0985
 2574TIP3   OH229212   1.062   0.927   0.740  0.3217  0.3172  0.0165
 2574TIP3    H129213   1.147   0.926   0.784  2.1196 -1.0275 -3.1213
 2574TIP3    H229214   1.067   1.001   0.679 -0.6162  0.0401 -0.4236
 2575TIP3   OH229215   3.577   1.607   5.040  0.6275 -0.6293 -0.3611
 2575TIP3    H129216   3.623   1.568   4.965  0.7999 -0.4595 -0.3466
 2575TIP3    H229217   3.645   1.656   5.086  0.4168 -0.3261 -0.3720
 2576TIP3   OH229218   4.098   0.509   4.988 -0.1296 -0.0407 -0.2149
 2576TIP3    H129219   4.032   0.440   4.995  0.6675 -0.6675  2.7153
 2576TIP3    H229220   4.077   0.569   5.060  1.6004  0.5198 -0.1372
 2577TIP3   OH229221   5.160   1.701   5.978  0.4933 -0.1279 -0.2010
 2577TIP3    H129222   5.068   1.696   5.953  1.2616 -0.4542 -3.3682
 2577TIP3    H229223   5.164   1.773   6.041 -1.8447  0.1590 -0.3120
 2578TIP3   OH229224   0.247   4.242   5.490  0.5888  0.8387  0.5242
 2578TIP3    H129225   0.204   4.201   5.415  0.9546  0.3679  0.5656
 2578TIP3    H229226   0.213   4.331   5.491  0.3385  0.7556 -0.0108
 2579TIP3   OH229227   5.334   1.207  11.133  0.2717  0.2412  0.0038
 2579TIP3    H129228   5.312   1.225  11.042 -0.1589  0.2646  0.1101
 2579TIP3    H229229   5.345   1.112  11.136  2.0171  0.3903 -0.4416
 2580TIP3   OH229230   6.787   6.127   0.685 -0.5617  0.0486 -0.4998
 2580TIP3    H129231   6.828   6.044   0.709  1.4647  1.4204  1.1428
 2580TIP3    H229232   6.833   6.154   0.605  1.6862  1.3967  1.1284
 2581TIP3   OH229233   2.459   1.930   4.492  0.0275 -0.4501 -0.4254
 2581TIP3    H129234   2.467   1.861   4.426 -0.9482 -1.4574  0.4663
 2581TIP3    H229235   2.542   1.978   4.487  0.3852 -1.1615 -1.6497
 2582TIP3   OH229236   1.285   2.547  13.235  0.3526  0.0092 -0.4931
 2582TIP3    H129237   1.271   2.557  13.330 -1.9498  0.9127 -0.8751
 2582TIP3    H229238   1.331   2.464  13.227  0.7363 -0.0214  1.4321
 2583TIP3   OH229239   1.463   1.424   2.463  0.2912  0.4871 -0.2780
 2583TIP3    H129240   1.497   1.408   2.375  0.4591 -1.1357  0.0509
 2583TIP3    H229241   1.392   1.360   2.473 -0.6921  1.6125  0.2596
 2584TIP3   OH229242   3.736   0.231  10.630  0.6775 -0.5358 -0.5244
 2584TIP3    H129243   3.750   0.298  10.697  1.0933 -1.8090  0.7312
 2584TIP3    H229244   3.689   0.276  10.560  1.2425  1.1283  0.1173
 2585TIP3   OH229245   2.154   2.864  16.005 -0.2617  0.2394 -0.2567
 2585TIP3    H129246   2.148   2.786  16.060 -1.3919  0.8172  0.4658
 2585TIP3    H229247   2.079   2.858  15.946 -1.1294  1.4033  0.6722
 2586TIP3   OH229248   6.297   4.047   5.382 -0.1742  0.2298  0.2285
 2586TIP3    H129249   6.388   4.028   5.407 -0.5510 -2.1249  0.1031
 2586TIP3    H229250   6.246   4.024   5.460 -0.7701  0.1723 -0.1726
 2587TIP3   OH229251   0.211   3.215  17.027 -0.1515 -0.4287  0.3466
 2587TIP3    H129252   0.233   3.253  17.112  0.4624 -1.0590  0.4755
 2587TIP3    H229253   0.158   3.282  16.984  1.0228  0.6290  0.5026
 2588TIP3   OH229254   1.502   0.350  14.057 -0.3251 -0.0389  0.3496
 2588TIP3    H129255   1.591   0.334  14.025 -0.5630 -0.9199  0.1192
 2588TIP3    H229256   1.515   0.383  14.146  0.3127  1.8476 -0.3996
 2589TIP3   OH229257   0.878   6.749  12.215  0.7651 -0.2121  0.3411
 2589TIP3    H129258   0.806   6.687  12.218  0.4054  0.1557 -0.3671
 2589TIP3    H229259   0.846   6.820  12.159  1.5732  0.0839  0.2416
 2590TIP3   OH229260   3.314   0.512  14.609  0.3769  0.1724  0.6604
 2590TIP3    H129261   3.381   0.499  14.676  0.2034  2.2492  1.2922
 2590TIP3    H229262   3.363   0.535  14.530  0.4832  2.6997  1.3645
 2591TIP3   OH229263   1.748   1.761  16.755  0.0520  0.3739 -0.4669
 2591TIP3    H129264   1.759   1.827  16.688  0.9067  0.3317 -0.3840
 2591TIP3    H229265   1.759   1.677  16.709  2.8374  0.3634  0.0188
 2592TIP3   OH229266   2.918   1.414   5.106 -0.2886  0.4991  0.8409
 2592TIP3    H129267   2.970   1.349   5.058 -3.1824 -1.4607  0.0664
 2592TIP3    H229268   2.982   1.462   5.158  2.2709 -1.6277 -0.0794
 2593TIP3   OH229269   4.479   3.889   3.200  0.2124  0.0981 -0.1824
 2593TIP3    H129270   4.445   3.835   3.129 -0.4694 -0.1113  0.2915
 2593TIP3    H229271   4.452   3.844   3.280 -0.2006  1.0234  0.2215
 2594TIP3   OH229272   5.804   4.218   2.098 -0.6187 -0.1547  0.1655
 2594TIP3    H129273   5.780   4.151   2.035 -1.9267  0.6541 -0.2248
 2594TIP3    H229274   5.883   4.184   2.140  1.0186 -0.2582 -2.6625
 2595TIP3   OH229275   0.612   2.118   2.874 -0.4520 -0.0037  0.4043
 2595TIP3    H129276   0.642   2.200   2.835  0.1392 -0.7050 -0.6697
 2595TIP3    H229277   0.522   2.135   2.901  0.1666  1.4657  1.6561
 2596TIP3   OH229278   3.421   4.811   3.465  0.3614  0.1503  1.0948
 2596TIP3    H129279   3.479   4.739   3.489  1.0701  0.3915  0.1552
 2596TIP3    H229280   3.433   4.876   3.534  0.4600 -0.2195  1.4258
 2597TIP3   OH229281   3.642   2.380   0.297  0.1046  0.6439 -0.1063
 2597TIP3    H129282   3.708   2.447   0.315  0.8565 -0.1583  0.1882
 2597TIP3    H229283   3.645   2.370   0.202  0.2606  0.7583 -0.1151
 2598TIP3   OH229284   6.273   0.497  11.906 -0.7687 -0.2196 -0.0746
 2598TIP3    H129285   6.183   0.528  11.913 -0.5776  0.1775  0.7634
 2598TIP3    H229286   6.298   0.513  11.815 -1.7348 -0.8891 -0.4728
 2599TIP3   OH229287   6.561   4.273   2.802  0.0120  0.0810 -0.0224
 2599TIP3    H129288   6.479   4.239   2.839  1.8255 -2.6059  1.9711
 2599TIP3    H229289   6.534   4.344   2.745 -3.6031  0.0994  1.4310
 2600TIP3   OH229290   1.026   0.117  14.873  0.1470  0.3940  0.4035
 2600TIP3    H129291   0.972   0.043  14.844 -0.2343  0.4703  0.9101
 2600TIP3    H229292   1.102   0.076  14.915  0.3727  0.2881 -0.0969
 2601TIP3   OH229293   5.270   5.256   5.213  0.5420 -0.6013 -0.3392
 2601TIP3    H129294   5.227   5.188   5.161 -0.0354 -1.6011  1.3632
 2601TIP3    H229295   5.231   5.338   5.182 -1.9752 -1.3840  0.4603
 2602TIP3   OH229296   5.683   3.979  16.674  0.2445 -0.4283  0.0044
 2602TIP3    H129297   5.671   3.890  16.639 -0.5092  0.1056 -1.1590
 2602TIP3    H229298   5.601   3.998  16.719 -0.0617  0.1150 -0.7714
 2603TIP3   OH229299   5.569   1.183  13.202 -0.0750 -0.2883  0.2980
 2603TIP3    H129300   5.612   1.180  13.287  0.4424 -0.9239  0.0261
 2603TIP3    H229301   5.614   1.116  13.150  0.0582  0.5186 -0.6771
 2604TIP3   OH229302   1.656   0.270   3.603  0.1768 -0.1257  0.1247
 2604TIP3    H129303   1.562   0.270   3.584  0.3079 -1.7960 -0.6609
 2604TIP3    H229304   1.691   0.198   3.552  2.3366  1.9660 -1.5606
 2605TIP3   OH229305   5.618   5.013  14.260  0.3018 -0.3072 -0.1824
 2605TIP3    H129306   5.661   5.025  14.344 -2.1999  0.3882  1.0731
 2605TIP3    H229307   5.620   5.100  14.219  0.4986 -0.3951 -0.3676
 2606TIP3   OH229308   4.169   6.557  13.881 -0.1944  0.1055  0.1335
 2606TIP3    H129309   4.206   6.605  13.954 -1.4337  0.8179  0.3292
 2606TIP3    H229310   4.242   6.508  13.844  0.7755  0.9549  0.8772
 2607TIP3   OH229311   3.967   4.227  13.230  0.1048 -0.1006 -0.1973
 2607TIP3    H129312   4.031   4.157  13.236  3.0427  2.3998  0.4628
 2607TIP3    H229313   3.952   4.238  13.136  1.1846 -0.3451 -0.4098
 2608TIP3   OH229314   6.221   1.914  13.076  0.3167  0.1006  0.1446
 2608TIP3    H129315   6.289   1.902  13.142 -0.6063  1.5875  1.4210
 2608TIP3    H229316   6.182   1.827  13.066 -1.0086  0.2228  3.2408
 2609TIP3   OH229317   3.437   0.385   4.300  0.5794 -0.6390  0.1454
 2609TIP3    H129318   3.343   0.380   4.317  0.7038 -2.3709  0.5138
 2609TIP3    H229319   3.453   0.319   4.233  0.9841  2.2901 -2.8829
 2610TIP3   OH229320   0.193   5.105  13.480 -0.5379 -0.0432 -0.7876
 2610TIP3    H129321   0.191   5.011  13.494 -1.0058 -0.0243 -0.7077
 2610TIP3    H229322   0.101   5.129  13.468 -0.4144  0.3921 -0.8753
 2611TIP3   OH229323   0.591   4.751   0.061 -0.0693 -0.4040 -0.1050
 2611TIP3    H129324   0.564   4.767  -0.029 -1.7936 -1.5019  0.1760
 2611TIP3    H229325   0.555   4.825   0.111 -1.8852 -1.3873  0.1229
 2612TIP3   OH229326   3.942   0.236   1.131  0.2934 -0.4548 -0.2321
 2612TIP3    H129327   3.938   0.185   1.212  0.3112  1.6549  1.1727
 2612TIP3    H229328   3.862   0.289   1.132 -1.2045 -2.3469 -3.0807
 2613TIP3   OH229329   0.793   2.610   2.279 -0.4748  0.4747  0.0342
 2613TIP3    H129330   0.835   2.524   2.286  2.4358  1.6497 -1.4035
 2613TIP3    H229331   0.772   2.618   2.186 -1.6213  0.9720  0.3233
 2614TIP3   OH229332   3.046   2.382  15.092  0.1236 -0.1996  0.4452
 2614TIP3    H129333   3.128   2.428  15.073 -1.1773  1.0346 -2.6851
 2614TIP3    H229334   2.978   2.449  15.082 -1.5195 -1.9117 -0.3345
 2615TIP3   OH229335   3.145   3.699   4.678 -0.1534  0.0497 -0.2030
 2615TIP3    H129336   3.112   3.616   4.643  0.0934 -0.2427  0.2497
 2615TIP3    H229337   3.088   3.766   4.640  0.2005 -0.2416 -1.2912
 2616TIP3   OH229338   2.466   0.036  10.446 -0.6900  0.3301 -0.2020
 2616TIP3    H129339   2.465   0.102  10.515 -2.4071 -0.5414  0.6845
 2616TIP3    H229340   2.396   0.062  10.386 -1.1640 -0.4862 -0.0185
 2617TIP3   OH229341   6.644   0.689  12.159 -0.2099  0.1361 -0.3484
 2617TIP3    H129342   6.571   0.717  12.215 -0.5196 -1.5294  0.1246
 2617TIP3    H229343   6.603   0.654  12.081  0.1597  0.6541 -0.7841
 2618TIP3   OH229344   5.967   5.599   6.400 -0.6385 -0.4479 -0.4504
 2618TIP3    H129345   5.956   5.506   6.422  0.2585 -1.0777 -2.4432
 2618TIP3    H229346   6.015   5.636   6.474 -1.8156 -1.3193  0.8107
 2619TIP3   OH229347   5.595   2.776  11.036  0.4013  0.3301 -0.3549
 2619TIP3    H129348   5.558   2.709  10.977  1.2026  1.2833 -2.0091
 2619TIP3    H229349   5.679   2.739  11.063 -0.0879 -0.2301  0.4514
 2620TIP3   OH229350   3.297   2.776  13.514 -0.4785 -0.2080  0.4304
 2620TIP3    H129351   3.268   2.840  13.449  0.6477 -1.4790 -1.4101
 2620TIP3    H229352   3.328   2.829  13.587 -2.5465  1.2523  0.3267
 2621TIP3   OH229353   6.328   3.390   0.070 -0.3119 -0.1660 -0.0478
 2621TIP3    H129354   6.368   3.304   0.063 -0.5584 -0.2857 -0.0066
 2621TIP3    H229355   6.401   3.450   0.087 -0.1582 -0.3838  0.0587
 2622TIP3   OH229356   3.757   0.267   2.289 -0.0305 -0.3676 -0.2454
 2622TIP3    H129357   3.851   0.276   2.271 -0.2238 -0.9012 -1.6224
 2622TIP3    H229358   3.724   0.357   2.291  0.5213 -0.1719  0.3586
 2623TIP3   OH229359   5.911   0.450   2.906 -0.0906  0.0383 -0.4422
 2623TIP3    H129360   5.855   0.524   2.930  0.7509  0.2066  1.1477
 2623TIP3    H229361   5.930   0.406   2.988  2.0395 -0.0487 -0.9072
 2624TIP3   OH229362   3.601   0.610  14.691 -0.2217  0.0527  0.3651
 2624TIP3    H129363   3.563   0.591  14.777 -0.1341  0.9356  0.6101
 2624TIP3    H229364   3.670   0.674  14.709  0.5365 -0.5619 -0.2329
 2625TIP3   OH229365   3.458   3.114  16.314  0.2844 -0.2423 -0.0803
 2625TIP3    H129366   3.517   3.040  16.301 -0.9532 -1.0310 -1.6002
 2625TIP3    H229367   3.430   3.139  16.226 -0.3611  1.1843  0.4880
 2626TIP3   OH229368   0.780   2.858  15.642  0.0444 -0.2155 -1.3465
 2626TIP3    H129369   0.696   2.858  15.688 -0.6913  2.5625 -2.4597
 2626TIP3    H229370   0.836   2.913  15.697  0.3806 -0.0881 -1.8142
 2627TIP3   OH229371   2.008   0.861   0.182 -0.1288  0.1500 -0.1800
 2627TIP3    H129372   2.016   0.881   0.089 -1.8817 -1.3736 -0.7271
 2627TIP3    H229373   2.029   0.768   0.188 -0.1850  0.1968  0.9345
 2628TIP3   OH229374   3.046   5.360   4.251 -0.5475 -0.6307  0.1892
 2628TIP3    H129375   2.950   5.367   4.254 -0.5894 -1.0128 -0.2207
 2628TIP3    H229376   3.066   5.282   4.302 -0.4467 -0.5015  0.3473
 2629TIP3   OH229377   0.619   1.480   3.472  0.0248  0.0937  0.7545
 2629TIP3    H129378   0.671   1.509   3.547  0.2792 -0.2921  0.7308
 2629TIP3    H229379   0.572   1.559   3.444  0.0592  0.2797  1.2099
 2630TIP3   OH229380   2.583   0.493  15.923 -0.6345  0.1845 -0.3552
 2630TIP3    H129381   2.662   0.536  15.890 -0.0878  0.4126  1.1859
 2630TIP3    H229382   2.615   0.428  15.986 -1.6770  0.3848  0.4051
 2631TIP3   OH229383   2.844   1.140   2.334  0.4692 -0.4260  0.4790
 2631TIP3    H129384   2.785   1.212   2.356 -0.3820 -1.0681  0.3448
 2631TIP3    H229385   2.786   1.065   2.321  1.4698 -1.7652  3.0450
 2632TIP3   OH229386   6.525   3.078   4.959 -0.3570  0.0698 -0.4016
 2632TIP3    H129387   6.494   2.993   4.930 -0.6265 -0.6451  1.8002
 2632TIP3    H229388   6.507   3.080   5.053  1.7900  1.6167  0.0634
 2633TIP3   OH229389   6.642   5.745   0.757  0.4727 -0.1541 -0.4497
 2633TIP3    H129390   6.708   5.780   0.696  0.7832 -2.4115 -1.5103
 2633TIP3    H229391   6.584   5.693   0.701  0.3080 -1.6586  1.0515
 2634TIP3   OH229392   0.017   3.806  15.375  0.6736 -0.0204 -0.0556
 2634TIP3    H129393  -0.066   3.824  15.419  0.8101  0.6438 -0.0710
 2634TIP3    H229394   0.010   3.714  15.350  0.5740 -0.4057  1.3104
 2635TIP3   OH229395   2.447   5.458   2.511  0.4522  0.0628  0.3998
 2635TIP3    H129396   2.478   5.519   2.578  2.8863 -0.5728 -0.0433
 2635TIP3    H229397   2.518   5.394   2.503 -1.0351 -1.5272 -0.7622
 2636TIP3   OH229398   3.888   3.561   5.481  0.4235  0.2621 -0.3790
 2636TIP3    H129399   3.820   3.494   5.491 -0.8636  1.4411 -0.9130
 2636TIP3    H229400   3.896   3.601   5.568  1.2387 -0.5926 -0.0440
 2637TIP3   OH229401   6.851   4.416  13.474  0.1030 -0.5923 -1.2094
 2637TIP3    H129402   6.836   4.413  13.380  0.3794 -1.5396 -1.2405
 2637TIP3    H229403   6.852   4.509  13.496 -0.5314 -0.3803 -2.0418
 2638TIP3   OH229404   2.747   4.688   1.694 -0.1551 -0.0690 -0.6044
 2638TIP3    H129405   2.817   4.691   1.629  0.5519 -0.2928  0.1323
 2638TIP3    H229406   2.708   4.776   1.692  0.3299  0.1431 -0.8193
 2639TIP3   OH229407   4.646   6.176  13.973 -0.1024 -0.0206 -0.2305
 2639TIP3    H129408   4.690   6.162  13.889 -1.0930  1.1493 -0.9826
 2639TIP3    H229409   4.671   6.264  13.999  0.8568 -0.6779  1.1442
 2640TIP3   OH229410   2.565   0.207  16.571 -0.1781 -0.1081  0.0774
 2640TIP3    H129411   2.623   0.282  16.561 -1.1332  1.5130  4.4400
 2640TIP3    H229412   2.498   0.219  16.504  0.4238  2.2281 -0.1729
 2641TIP3   OH229413   2.171   6.122  14.752 -0.1121 -0.1423  0.3580
 2641TIP3    H129414   2.180   6.043  14.806 -1.1531 -1.5400 -1.4377
 2641TIP3    H229415   2.088   6.161  14.780 -0.0986 -0.2341  0.5288
 2642TIP3   OH229416   6.116   6.054   4.548  0.0782 -0.1944 -0.3747
 2642TIP3    H129417   6.051   5.986   4.565  0.5943 -0.9612 -1.3544
 2642TIP3    H229418   6.065   6.131   4.523 -0.4661 -0.8897 -1.4796
 2643TIP3   OH229419   0.922   6.519   0.865 -0.0667  0.5500 -0.4754
 2643TIP3    H129420   0.928   6.424   0.853 -0.5480  0.7647 -2.7216
 2643TIP3    H229421   0.896   6.529   0.957 -2.0979 -1.6004 -0.7022
 2644TIP3   OH229422   3.368   0.453   3.812 -0.2732 -0.7807  0.3308
 2644TIP3    H129423   3.299   0.388   3.826 -1.1657 -0.2448 -1.3434
 2644TIP3    H229424   3.357   0.515   3.884 -2.9053  0.4023 -0.9700
 2645TIP3   OH229425   2.996   4.518   1.477 -0.0388  0.0997 -0.0623
 2645TIP3    H129426   3.048   4.490   1.402 -0.6199  0.9194 -0.7992
 2645TIP3    H229427   2.973   4.609   1.458 -2.8637 -0.5912 -0.4682
 2646TIP3   OH229428   3.420   3.780  17.008 -0.0164 -0.5716  0.1003
 2646TIP3    H129429   3.502   3.822  16.982 -0.9507  0.9151 -0.5461
 2646TIP3    H229430   3.378   3.756  16.925 -1.4258  1.0863  0.2681
 2647TIP3   OH229431   0.418   0.525   4.936  0.3349 -0.6052  0.2023
 2647TIP3    H129432   0.438   0.456   4.874  2.2130 -0.5908  0.7531
 2647TIP3    H229433   0.376   0.593   4.883 -1.2307 -1.9686 -0.4003
 2648TIP3   OH229434   3.365   4.934   1.601 -0.5641 -0.0098  1.4118
 2648TIP3    H129435   3.460   4.931   1.590 -0.4013 -0.8365  2.8340
 2648TIP3    H229436   3.341   5.025   1.579  0.6182  0.3593  1.5810
 2649TIP3   OH229437   2.517   4.740   5.905 -0.0901 -0.6770  0.1654
 2649TIP3    H129438   2.535   4.660   5.954  0.9069 -0.7911 -0.3599
 2649TIP3    H229439   2.604   4.773   5.881 -0.5415 -1.2176 -2.4954
 2650TIP3   OH229440   2.442   5.418   3.297  0.0321 -0.4472  0.0202
 2650TIP3    H129441   2.378   5.369   3.348 -1.8431  2.5080  0.8162
 2650TIP3    H229442   2.524   5.370   3.307 -0.8512 -1.5172  3.6071
 2651TIP3   OH229443   3.118   0.395   3.016 -0.2944 -0.2881 -0.3362
 2651TIP3    H129444   3.046   0.331   3.024 -0.4762  0.0017  0.5119
 2651TIP3    H229445   3.076   0.475   2.985 -0.6476  0.3472  1.6334
 2652TIP3   OH229446   6.073   5.095  15.590 -0.6807 -0.1213 -0.1371
 2652TIP3    H129447   6.009   5.080  15.520 -0.2158  1.9313 -1.0792
 2652TIP3    H229448   6.145   5.035  15.569 -0.5975  0.3881 -1.3863
 2653TIP3   OH229449   4.529   6.575  13.596 -0.0607  0.6281 -0.1897
 2653TIP3    H129450   4.500   6.650  13.649  0.0941  1.5649 -1.3757
 2653TIP3    H229451   4.466   6.506  13.616 -0.6657  1.3232  0.3757
 2654TIP3   OH229452   1.803   1.164   4.254 -0.2390  0.6218 -0.0586
 2654TIP3    H129453   1.796   1.232   4.321  1.1600  0.3053  0.4550
 2654TIP3    H229454   1.859   1.097   4.294 -0.6784 -0.3088 -0.9692
 2655TIP3   OH229455   6.712   0.626   5.689 -0.2636  0.2670 -0.3953
 2655TIP3    H129456   6.761   0.545   5.678 -0.5017  0.1627 -0.6911
 2655TIP3    H229457   6.779   0.693   5.704  0.0315  0.2764 -1.6760
 2656TIP3   OH229458   0.775   1.714   4.092 -0.2519  0.2967  0.0774
 2656TIP3    H129459   0.684   1.686   4.088 -0.0282 -0.6653  1.1335
 2656TIP3    H229460   0.781   1.764   4.173  0.1309  0.4976 -0.0723
 2657TIP3   OH229461   6.057   3.053   1.018 -0.6035 -0.2305  0.3502
 2657TIP3    H129462   6.054   2.963   0.987  0.4058 -0.0754 -0.2485
 2657TIP3    H229463   6.067   3.106   0.939  1.8216  0.1864  0.8487
 2658TIP3   OH229464   1.819   1.759  13.288 -0.2113  1.0274  0.5830
 2658TIP3    H129465   1.861   1.746  13.203 -0.9295  0.4391  0.3087
 2658TIP3    H229466   1.739   1.706  13.284 -0.0837  0.7176  1.7507
 2659TIP3   OH229467   3.056   0.422   1.098 -0.0048 -0.2218  0.5880
 2659TIP3    H129468   3.115   0.382   1.162  0.4718 -1.1228 -0.3895
 2659TIP3    H229469   3.109   0.430   1.018 -0.5229  1.0685  0.3462
 2660TIP3   OH229470   2.055   0.018  13.316  0.0047  0.2967  0.0902
 2660TIP3    H129471   2.038  -0.014  13.227  0.1548  0.9018 -0.1631
 2660TIP3    H229472   1.973   0.004  13.363  0.1169 -0.6047  0.0366
 2661TIP3   OH229473   1.921   1.826  16.241  0.4482  0.1049 -0.0481
 2661TIP3    H129474   1.829   1.852  16.238  0.5170  0.2359 -1.4934
 2661TIP3    H229475   1.924   1.757  16.308 -0.7582 -0.1476 -0.2274
 2662TIP3   OH229476   2.526   2.414  14.529  0.1606 -0.0766  0.0757
 2662TIP3    H129477   2.604   2.370  14.561  1.3101 -1.1683 -3.7365
 2662TIP3    H229478   2.559   2.494  14.487 -1.1990  1.1222  1.1748
 2663TIP3   OH229479   3.263   0.822   5.797  0.5224 -0.0982 -0.0990
 2663TIP3    H129480   3.324   0.786   5.732  0.2663 -1.8554  0.5678
 2663TIP3    H229481   3.177   0.816   5.754  0.3087 -1.5638  0.4557
 2664TIP3   OH229482   2.648   2.740  15.387  0.0597  0.0858 -0.0193
 2664TIP3    H129483   2.614   2.651  15.384  1.0547 -0.2819 -1.7489
 2664TIP3    H229484   2.633   2.775  15.299  0.0689  1.4901  0.5072
 2665TIP3   OH229485   3.420   1.478  12.265  0.2533  0.3500 -0.3103
 2665TIP3    H129486   3.485   1.534  12.307  0.2055  2.2189 -2.5097
 2665TIP3    H229487   3.433   1.493  12.171 -1.6421 -1.2353 -0.8966
 2666TIP3   OH229488   3.826   0.823   0.166  0.8266  0.0533  0.6490
 2666TIP3    H129489   3.791   0.764   0.233 -1.0823  0.9989  0.5478
 2666TIP3    H229490   3.845   0.767   0.091 -1.1158 -0.4529  0.4969
 2667TIP3   OH229491   5.783   5.250  13.881 -0.2409 -0.2352 -0.1271
 2667TIP3    H129492   5.755   5.259  13.790  2.5813 -0.2104 -1.0853
 2667TIP3    H229493   5.803   5.340  13.909  0.5770 -0.4207 -0.0910
 2668TIP3   OH229494   0.870   1.218  15.762 -0.6036 -0.3603 -0.1356
 2668TIP3    H129495   0.897   1.308  15.779 -1.5148 -0.4353  2.1027
 2668TIP3    H229496   0.910   1.167  15.833  0.2351 -1.8133 -1.5809
 2669TIP3   OH229497   5.505   3.961  14.919 -0.2644 -0.1460 -0.7424
 2669TIP3    H129498   5.413   3.989  14.920 -0.6177 -1.0454  2.1303
 2669TIP3    H229499   5.549   4.024  14.975  0.4395 -0.9417 -0.3913
 2670TIP3   OH229500   1.643   3.279   1.029 -0.4853  0.6020 -0.5046
 2670TIP3    H129501   1.615   3.364   1.062 -0.4170 -0.1097  1.5046
 2670TIP3    H229502   1.601   3.271   0.943 -1.0604  2.3321 -0.4104
 2671TIP3   OH229503   5.190   0.759   3.569 -0.3622 -0.0797  0.1064
 2671TIP3    H129504   5.159   0.843   3.602  0.7114  0.6665 -0.6956
 2671TIP3    H229505   5.124   0.696   3.597 -1.0445  0.9820  0.9731
 2672TIP3   OH229506   1.482   5.071   3.091  0.1060  0.4859  0.0351
 2672TIP3    H129507   1.499   5.144   3.031  0.0396 -0.3639 -1.0532
 2672TIP3    H229508   1.447   5.002   3.035 -0.1491 -0.2724  1.0994
 2673TIP3   OH229509   2.080   5.699  16.613 -0.3303 -0.2651 -0.5663
 2673TIP3    H129510   2.053   5.731  16.699  2.6910  2.1129 -0.3250
 2673TIP3    H229511   2.073   5.776  16.555  0.2906 -1.0981 -1.7898
 2674TIP3   OH229512   4.079   1.545  13.990 -0.0280  0.2564  0.3458
 2674TIP3    H129513   4.114   1.474  13.936  1.1629  0.5010  0.7754
 2674TIP3    H229514   3.986   1.524  13.999  0.1470 -0.8167 -0.1894
 2675TIP3   OH229515   3.241   0.823   3.955 -0.1145 -0.3094  0.4638
 2675TIP3    H129516   3.299   0.775   4.015 -0.4748 -2.3545 -0.7230
 2675TIP3    H229517   3.178   0.866   4.012  1.4152  0.4152  1.6843
 2676TIP3   OH229518   4.636   6.199   3.731 -0.0251 -0.1471 -0.1419
 2676TIP3    H129519   4.605   6.141   3.801 -2.1533  0.4432 -0.5448
 2676TIP3    H229520   4.673   6.275   3.777  1.1822 -0.9906  0.3499
 2677TIP3   OH229521   0.412   2.305  14.037 -0.0426 -0.4639 -0.6467
 2677TIP3    H129522   0.408   2.350  14.122 -2.0786 -0.0705 -0.8809
 2677TIP3    H229523   0.490   2.340  13.995  0.7404 -0.3088  0.8750
 2678TIP3   OH229524   4.289   3.878   2.372  0.2345 -0.4847  0.4872
 2678TIP3    H129525   4.240   3.934   2.434 -3.3803 -2.4355 -0.2961
 2678TIP3    H229526   4.300   3.795   2.418 -0.5485 -1.2557 -0.6602
 2679TIP3   OH229527   5.834   2.548   3.145 -0.1549  0.3622  0.3371
 2679TIP3    H129528   5.779   2.478   3.180 -0.1114 -0.1561 -0.6035
 2679TIP3    H229529   5.920   2.506   3.133 -0.2548  0.4388 -0.6878
 2680TIP3   OH229530   0.361   4.608   0.051  0.3119 -0.1432 -0.0054
 2680TIP3    H129531   0.449   4.646   0.043  0.6478 -0.4581  1.7877
 2680TIP3    H229532   0.337   4.584  -0.039  1.6240  0.8866 -0.6680
 2681TIP3   OH229533   4.768   2.611   1.452 -0.2181 -0.4592  0.0878
 2681TIP3    H129534   4.828   2.685   1.452 -0.0222 -0.5995  1.3283
 2681TIP3    H229535   4.823   2.535   1.471 -0.2270 -1.1383 -2.2487
 2682TIP3   OH229536   5.170   1.095   1.803 -0.4583 -0.3199  0.2653
 2682TIP3    H129537   5.229   1.149   1.751 -1.4467  0.7489  0.2221
 2682TIP3    H229538   5.101   1.069   1.741  0.4363 -2.3756  0.0555
 2683TIP3   OH229539   0.509   0.959  13.521  0.6695  0.5226  0.0454
 2683TIP3    H129540   0.579   1.005  13.476 -0.3603  1.3934 -0.7138
 2683TIP3    H229541   0.511   0.993  13.610  0.1890  1.7533 -0.3980
 2684TIP3   OH229542   6.832   5.728   6.211  0.0498 -0.0433 -0.4886
 2684TIP3    H129543   6.921   5.757   6.192  0.2665  1.2279  1.9677
 2684TIP3    H229544   6.776   5.788   6.162  0.5733  0.8942  0.0136
 2685TIP3   OH229545   4.320   6.057  15.265  0.0060  0.1384 -0.5771
 2685TIP3    H129546   4.362   6.119  15.205  2.2489  0.0679  0.8169
 2685TIP3    H229547   4.277   6.112  15.330  0.7990  0.2490 -0.1352
 2686TIP3   OH229548   4.475   6.636   2.001  0.3246 -0.0338 -0.2107
 2686TIP3    H129549   4.542   6.630   2.069  0.5558  0.7858 -0.3630
 2686TIP3    H229550   4.444   6.546   1.991  0.7574 -0.2744  0.5020
 2687TIP3   OH229551   0.524   3.858   3.980 -0.0106  0.3744 -0.5145
 2687TIP3    H129552   0.483   3.934   3.938 -3.3360 -0.5678  0.7580
 2687TIP3    H229553   0.572   3.896   4.054 -0.1810  1.3751 -0.8900
 2688TIP3   OH229554   2.470   3.856   3.104 -0.0703 -0.1584 -0.3681
 2688TIP3    H129555   2.450   3.764   3.120 -0.2647 -0.2992 -1.3480
 2688TIP3    H229556   2.498   3.859   3.012 -0.7926  0.8607 -0.5760
 2689TIP3   OH229557   0.635   2.566   4.694 -0.3819 -0.4438 -0.1989
 2689TIP3    H129558   0.702   2.543   4.631 -1.8033 -1.2202 -1.4904
 2689TIP3    H229559   0.558   2.516   4.667 -2.1228  1.9700 -0.0728
 2690TIP3   OH229560   5.673   2.790  15.942  0.0836 -0.0119 -0.6369
 2690TIP3    H129561   5.726   2.866  15.964 -0.2594 -0.3250  1.4588
 2690TIP3    H229562   5.607   2.786  16.011  0.6252 -2.6966 -0.1516
 2691TIP3   OH229563   0.725   6.317   6.826 -0.4007 -0.9652 -0.0537
 2691TIP3    H129564   0.807   6.357   6.854 -1.2132  0.7216  0.0975
 2691TIP3    H229565   0.734   6.225   6.848  1.8638 -1.0425 -1.0369
 2692TIP3   OH229566   2.369   1.789   4.761  0.2274  0.2296  0.3333
 2692TIP3    H129567   2.324   1.786   4.677  1.2893  1.0365 -0.2968
 2692TIP3    H229568   2.458   1.761   4.741 -0.1071 -1.9665  1.6655
 2693TIP3   OH229569   4.096   3.754  16.855 -0.7937 -0.1390  0.2900
 2693TIP3    H129570   4.013   3.799  16.840 -0.6324  0.6103  1.4997
 2693TIP3    H229571   4.161   3.823  16.856 -0.1252 -0.7272 -0.6923
 2694TIP3   OH229572   5.975   6.178  13.465 -0.5268  0.1832  0.3991
 2694TIP3    H129573   6.056   6.183  13.515 -1.0029  0.6184  1.1510
 2694TIP3    H229574   5.964   6.266  13.428 -1.4720  0.6087  1.6387
 2695TIP3   OH229575   2.702   2.391  16.745  0.3825 -0.3671  0.3736
 2695TIP3    H129576   2.698   2.296  16.736 -1.5910 -0.1719 -2.6145
 2695TIP3    H229577   2.612   2.420  16.727  1.2304  2.1301 -0.2603
 2696TIP3   OH229578   5.377   0.354   2.943  0.0138  0.1257  0.0098
 2696TIP3    H129579   5.281   0.345   2.942  0.0993 -1.1943  1.1627
 2696TIP3    H229580   5.393   0.422   3.008 -0.1574  0.8179 -0.6594
 2697TIP3   OH229581   6.386   0.047  13.964  0.1500 -0.6580  0.3064
 2697TIP3    H129582   6.369  -0.011  13.889 -2.0398  0.1672  0.0822
 2697TIP3    H229583   6.430  -0.008  14.028 -0.4604 -2.1608 -0.5183
 2698TIP3   OH229584   1.308   1.428  12.712 -0.0553 -0.0479 -0.1278
 2698TIP3    H129585   1.315   1.426  12.617  1.0847 -1.0266 -0.0406
 2698TIP3    H229586   1.273   1.343  12.736 -0.8085  0.3745  0.3089
 2699TIP3   OH229587   6.762   3.380   6.078 -0.4353 -0.7550 -0.2959
 2699TIP3    H129588   6.775   3.470   6.047 -1.0893 -0.2621  0.7910
 2699TIP3    H229589   6.806   3.326   6.013  2.6321  0.4859  0.5815
 2700TIP3   OH229590   0.840   6.173  13.536 -0.6466  0.1279  0.4357
 2700TIP3    H129591   0.907   6.221  13.585 -0.1741 -0.8314  0.7556
 2700TIP3    H229592   0.797   6.239  13.482 -0.2228  0.9570  1.1000
 2701TIP3   OH229593   2.041   0.940  11.313  0.1616  0.3947 -0.4335
 2701TIP3    H129594   1.957   0.960  11.356  0.2524 -0.0173 -0.0600
 2701TIP3    H229595   2.071   0.860  11.355  1.3150  1.1675  0.2819
 2702TIP3   OH229596   3.059   5.950   3.639  0.3723  0.7433  0.6189
 2702TIP3    H129597   2.966   5.939   3.655  0.1745  0.2389 -0.7236
 2702TIP3    H229598   3.082   5.878   3.580  1.4350  1.3074  0.3141
 2703TIP3   OH229599   1.291   5.977   4.420 -0.3134  0.1722  0.1546
 2703TIP3    H129600   1.283   6.027   4.339 -1.1455  1.6355  1.0876
 2703TIP3    H229601   1.279   6.043   4.489  0.0239 -1.0945  1.4569
 2704TIP3   OH229602   4.237   4.276   5.392 -0.4937  1.0416  0.0703
 2704TIP3    H129603   4.143   4.260   5.389 -0.1717 -1.0814 -0.6114
 2704TIP3    H229604   4.250   4.332   5.469 -2.1386 -0.0279  1.1790
 2705TIP3   OH229605   6.325   4.530   6.425 -0.3760  0.6329 -0.3482
 2705TIP3    H129606   6.230   4.526   6.432 -0.4212 -0.3129 -1.1696
 2705TIP3    H229607   6.343   4.614   6.384 -0.8685  0.7558 -0.3190
 2706TIP3   OH229608   0.568   5.248   2.698 -0.2130  0.0549  0.0998
 2706TIP3    H129609   0.585   5.155   2.679  0.1988 -0.0004  0.7112
 2706TIP3    H229610   0.481   5.265   2.661 -0.3624 -0.6154  0.1349
 2707TIP3   OH229611   0.363   0.526   2.010  0.1676 -0.1640 -0.1966
 2707TIP3    H129612   0.300   0.572   1.955  0.8124  1.1256  0.1007
 2707TIP3    H229613   0.409   0.468   1.950 -0.0528  0.2406 -0.7718
 2708TIP3   OH229614   4.332   4.725  14.851 -0.0292  0.0560 -0.1300
 2708TIP3    H129615   4.251   4.737  14.900 -0.5665  0.3203 -1.0692
 2708TIP3    H229616   4.354   4.633  14.863 -1.6818 -0.5819 -1.6835
 2709TIP3   OH229617   3.630   3.045   4.795  0.5542 -0.6841 -0.5980
 2709TIP3    H129618   3.691   2.979   4.764  0.9414 -2.6255  3.6236
 2709TIP3    H229619   3.677   3.092   4.863 -1.0298  1.2905 -0.7669
 2710TIP3   OH229620   1.694   4.624   1.500 -0.5417  0.5049 -0.5719
 2710TIP3    H129621   1.666   4.577   1.421 -2.4622  0.8093 -0.1227
 2710TIP3    H229622   1.781   4.590   1.518 -1.6473 -2.6492 -0.5136
 2711TIP3   OH229623   5.685   2.480   1.419  0.4123  0.1144  0.1110
 2711TIP3    H129624   5.682   2.397   1.466  2.5059 -0.5523 -0.7974
 2711TIP3    H229625   5.597   2.491   1.383  0.1911 -1.9036 -0.0588
 2712TIP3   OH229626   0.517   0.716  16.495 -0.1057 -0.0900 -0.5903
 2712TIP3    H129627   0.604   0.753  16.512  0.0544 -0.1947 -1.1609
 2712TIP3    H229628   0.522   0.626  16.527 -0.7007  0.5385  1.4086
 2713TIP3   OH229629   4.682   4.823  16.170  0.2395 -0.2437 -0.4185
 2713TIP3    H129630   4.718   4.752  16.116  1.8662  1.2008 -1.3642
 2713TIP3    H229631   4.757   4.853  16.222 -0.4887  0.5661  0.1894
 2714TIP3   OH229632   2.245   6.735  12.053  0.2324  0.3541 -0.1142
 2714TIP3    H129633   2.175   6.725  12.118  0.2886  1.3207  0.1223
 2714TIP3    H229634   2.283   6.821  12.073 -0.7235  1.3652 -2.3395
 2715TIP3   OH229635   2.061   4.949  10.528 -0.0877  0.1434  0.2493
 2715TIP3    H129636   2.021   4.973  10.612 -0.3042 -2.1363  0.8712
 2715TIP3    H229637   2.132   4.889  10.553 -0.5511 -1.0588 -1.2206
 2716TIP3   OH229638   4.446   4.459  12.943  0.5127 -0.0044  0.1547
 2716TIP3    H129639   4.358   4.492  12.965  1.3687  1.2249  1.9875
 2716TIP3    H229640   4.479   4.521  12.878  0.2123 -0.1918 -0.1781
 2717TIP3   OH229641   5.652   3.248  16.931 -0.0758  0.3225 -0.3045
 2717TIP3    H129642   5.684   3.183  16.994 -1.4304  0.9326  1.0942
 2717TIP3    H229643   5.720   3.316  16.932  0.5475 -0.2860 -0.5082
 2718TIP3   OH229644   3.283   1.345  13.450 -0.3433  0.2228  0.3036
 2718TIP3    H129645   3.266   1.390  13.532  3.1867 -0.3984  1.5525
 2718TIP3    H229646   3.304   1.415  13.388 -0.5104  0.5816  0.6552
 2719TIP3   OH229647   2.982   3.615   0.838  0.4997 -0.7522  0.0428
 2719TIP3    H129648   2.961   3.585   0.927 -0.1981 -1.0267 -0.2071
 2719TIP3    H229649   3.025   3.540   0.797 -0.2683 -1.0523 -0.2329
 2720TIP3   OH229650   0.590   5.052   2.299 -0.2063  0.0755 -0.2406
 2720TIP3    H129651   0.624   5.046   2.210 -1.1619  0.3274 -0.6337
 2720TIP3    H229652   0.656   5.103   2.347  2.2857 -3.2211  0.2266
 2721TIP3   OH229653   3.687   0.004  12.310  0.4378 -0.6141  0.5983
 2721TIP3    H129654   3.617   0.023  12.247 -1.1411 -0.2272  2.3851
 2721TIP3    H229655   3.730   0.088  12.325  0.4213 -0.5894  0.5059
 2722TIP3   OH229656   3.974   2.789   1.928 -0.5554  0.5132  0.0085
 2722TIP3    H129657   3.917   2.822   1.998  1.6537  0.0705  2.1095
 2722TIP3    H229658   4.051   2.845   1.931  1.5459 -2.2202  1.0020
 2723TIP3   OH229659   1.142   6.496   0.449 -0.1823 -0.4708  0.5909
 2723TIP3    H129660   1.050   6.504   0.421 -0.2426  1.1138  1.1383
 2723TIP3    H229661   1.162   6.403   0.437 -1.1728 -0.4728 -1.6619
 2724TIP3   OH229662   3.311   2.251   2.330 -0.4129  0.5548  0.0096
 2724TIP3    H129663   3.262   2.178   2.368  0.4410 -0.7096 -1.2362
 2724TIP3    H229664   3.249   2.292   2.269 -0.2555 -0.4459 -0.8515
 2725TIP3   OH229665   4.313   3.403   5.403  0.9181 -0.1447 -0.4068
 2725TIP3    H129666   4.300   3.431   5.494 -0.6385  1.4042 -1.0575
 2725TIP3    H229667   4.369   3.471   5.365  0.4084 -0.0326 -0.9628
 2726TIP3   OH229668   4.339   5.498  16.731 -0.2566  0.9991  0.2914
 2726TIP3    H129669   4.430   5.489  16.704  0.2155 -1.9012  2.3965
 2726TIP3    H229670   4.345   5.539  16.818 -1.0150  1.2650  0.2216
 2727TIP3   OH229671   2.865   4.767  14.209 -0.2451 -0.1527  0.2070
 2727TIP3    H129672   2.932   4.776  14.141 -0.3477 -1.4792 -0.0908
 2727TIP3    H229673   2.873   4.676  14.239 -0.3412  0.3485  1.8333
 2728TIP3   OH229674   6.357   0.646  14.348 -0.3189 -0.2125 -0.2070
 2728TIP3    H129675   6.317   0.717  14.397  1.2511  0.0238  0.7796
 2728TIP3    H229676   6.299   0.571  14.363 -0.3530  0.0859  1.2870
 2729TIP3   OH229677   2.190   5.646   5.535 -0.2246  0.0317 -0.0816
 2729TIP3    H129678   2.266   5.637   5.478 -0.4001 -0.0530 -0.3063
 2729TIP3    H229679   2.133   5.707   5.489 -1.6301 -2.1209 -1.4065
 2730TIP3   OH229680   3.164   4.318   4.768  0.2641 -0.3234 -0.6104
 2730TIP3    H129681   3.201   4.330   4.855  2.6216 -1.6586 -1.3422
 2730TIP3    H229682   3.080   4.363   4.771  0.8157  0.6850  1.9646
 2731TIP3   OH229683   1.112   1.218   3.969 -0.4420  0.4158 -0.5718
 2731TIP3    H129684   1.027   1.240   4.007 -0.7626  0.4368 -1.2955
 2731TIP3    H229685   1.154   1.162   4.035 -1.3806 -0.3396 -0.6146
 2732TIP3   OH229686   4.920   6.376  13.225 -0.2717  0.0260  0.1026
 2732TIP3    H129687   4.914   6.456  13.173  0.9487  0.3755  0.4586
 2732TIP3    H229688   4.939   6.307  13.161 -3.6842 -0.4925 -0.5519
 2733TIP3   OH229689   5.022   2.888  11.823 -0.1183  0.7168  0.3012
 2733TIP3    H129690   5.035   2.982  11.835  0.2680  0.7512 -0.3033
 2733TIP3    H229691   5.007   2.878  11.729 -1.4800  0.3173  0.5502
 2734TIP3   OH229692   5.928   4.564   0.210 -0.7179 -0.6457 -0.2284
 2734TIP3    H129693   5.879   4.643   0.187 -1.2349 -0.5865  1.0181
 2734TIP3    H229694   5.882   4.493   0.166 -0.7193 -0.3530 -0.7048
 2735TIP3   OH229695   3.523   1.617   1.511 -0.3468 -0.4435 -0.1283
 2735TIP3    H129696   3.530   1.542   1.452 -1.6566  0.1395 -1.0619
 2735TIP3    H229697   3.430   1.640   1.510 -0.1480  0.5135  1.0160
 2736TIP3   OH229698   3.294   1.951  15.545  0.0356  0.4227 -0.4531
 2736TIP3    H129699   3.246   1.939  15.463  0.7291 -1.4824 -0.6272
 2736TIP3    H229700   3.253   1.890  15.607  1.6261 -0.6468 -0.3843
 2737TIP3   OH229701   2.361   2.043   1.240  0.4796  0.4734 -0.1270
 2737TIP3    H129702   2.403   2.102   1.178  1.8326  1.3690  1.5326
 2737TIP3    H229703   2.405   1.959   1.228  1.0987  0.7801 -0.0380
 2738TIP3   OH229704   5.082   3.800  16.731  0.0247 -0.0142  0.6679
 2738TIP3    H129705   5.019   3.798  16.658 -0.3141  0.0311  0.9585
 2738TIP3    H229706   5.065   3.884  16.774  0.4683  0.1184  0.5885
 2739TIP3   OH229707   5.644   5.091   3.257  0.2833  0.1541 -0.7022
 2739TIP3    H129708   5.664   5.086   3.350  1.9493 -1.9945 -1.0987
 2739TIP3    H229709   5.715   5.144   3.219  0.1187  0.2535 -0.8750
 2740TIP3   OH229710   5.036   3.342  16.729 -0.5082  0.0707 -0.3606
 2740TIP3    H129711   5.024   3.257  16.685  2.0421 -0.3904 -0.3469
 2740TIP3    H229712   5.110   3.327  16.787 -0.6605  2.0691  0.3875
 2741TIP3   OH229713   1.685   1.534   1.502 -0.5793  0.6308  0.1892
 2741TIP3    H129714   1.662   1.548   1.594 -0.2600 -1.9133  0.7188
 2741TIP3    H229715   1.780   1.542   1.499 -0.4756 -0.4694  0.3337
 2742TIP3   OH229716   4.585   3.024  15.507  0.2766  0.1274  0.6017
 2742TIP3    H129717   4.658   2.980  15.462 -0.0490 -0.6790  0.8440
 2742TIP3    H229718   4.615   3.034  15.597  0.5151  0.7914  0.4518
 2743TIP3   OH229719   1.548   3.182  14.686  1.2084  0.0004  0.5393
 2743TIP3    H129720   1.474   3.208  14.741 -0.2431  0.5849 -1.5419
 2743TIP3    H229721   1.619   3.166  14.748 -0.5450 -0.2862  2.6194
 2744TIP3   OH229722   1.581   6.721  16.354  1.1005  0.9016 -0.3120
 2744TIP3    H129723   1.500   6.679  16.325 -0.6352  2.5477  1.7891
 2744TIP3    H229724   1.623   6.749  16.272 -0.6631  0.3557 -1.4820
 2745TIP3   OH229725   0.831   0.099  16.362  0.2447 -0.0320  0.3777
 2745TIP3    H129726   0.768   0.029  16.383  1.0714 -0.6880  0.7519
 2745TIP3    H229727   0.778   0.178  16.356 -0.5802 -0.5132  1.0267
 2746TIP3   OH229728   3.680   3.339  15.546  0.8680  0.5142 -0.4372
 2746TIP3    H129729   3.694   3.413  15.486 -1.4698  0.1393 -1.5599
 2746TIP3    H229730   3.650   3.380  15.627 -1.5038  0.8512 -1.3971
 2747TIP3   OH229731   0.685   2.941  12.592 -0.9224  0.4758 -0.3068
 2747TIP3    H129732   0.682   3.021  12.644 -2.2836  1.4310 -1.7553
 2747TIP3    H229733   0.707   2.971  12.503  0.3718 -0.9878 -0.5312
 2748TIP3   OH229734   3.468   4.357  12.134  0.2725  0.4213  0.0764
 2748TIP3    H129735   3.414   4.436  12.136 -1.6227 -0.8201  0.8687
 2748TIP3    H229736   3.430   4.304  12.063  0.0065 -0.7444  1.0502
 2749TIP3   OH229737   3.025   2.042   0.407 -0.2314  0.1618 -0.1435
 2749TIP3    H129738   3.119   2.028   0.406 -0.4481 -1.5282 -2.1004
 2749TIP3    H229739   3.012   2.125   0.362  0.3745  1.3116  1.6939
 2750TIP3   OH229740   2.901   0.999  11.600  0.1312 -0.0147 -0.6832
 2750TIP3    H129741   2.896   0.926  11.662 -0.4773  1.7307  1.4754
 2750TIP3    H229742   2.915   1.076  11.656 -1.6772  1.8461 -2.6135
 2751TIP3   OH229743   2.397   6.464  14.537  0.1101  0.0983 -0.2524
 2751TIP3    H129744   2.425   6.425  14.620 -0.6349  0.1660  0.0361
 2751TIP3    H229745   2.410   6.558  14.549  0.6036  0.0597 -0.4506
 2752TIP3   OH229746   0.974   4.558  11.628 -0.0413 -0.2555  0.1160
 2752TIP3    H129747   0.934   4.537  11.544  1.1275  1.2747 -0.8822
 2752TIP3    H229748   0.945   4.647  11.648 -1.0219 -0.9032  1.8139
 2753TIP3   OH229749   6.438   0.685  14.984  0.2630  0.0805  0.1886
 2753TIP3    H129750   6.428   0.637  15.066  0.9578  0.3611  0.4406
 2753TIP3    H229751   6.477   0.768  15.009 -2.0183  1.3038 -0.0951
 2754TIP3   OH229752   6.597   0.880  10.351  0.2727 -0.0944 -0.2183
 2754TIP3    H129753   6.504   0.900  10.361  0.2748 -0.5473  0.7372
 2754TIP3    H229754   6.640   0.965  10.356  0.0139 -0.0072  0.6287
 2755TIP3   OH229755   0.759   3.196  11.569 -0.3517 -0.2572 -0.2359
 2755TIP3    H129756   0.725   3.213  11.657  0.1471 -2.3422  0.4190
 2755TIP3    H229757   0.715   3.116  11.542  1.1362 -0.8560 -0.9752
 2756TIP3   OH229758   4.810   2.488   6.130 -0.0345 -0.2042 -0.3656
 2756TIP3    H129759   4.855   2.423   6.076 -0.3318 -0.2641 -0.5458
 2756TIP3    H229760   4.717   2.471   6.115 -0.1237 -0.2785  0.2388
 2757TIP3   OH229761   1.798   6.415  16.862 -0.1104  0.4483  0.3804
 2757TIP3    H129762   1.791   6.442  16.770  1.5801  0.3421  0.1899
 2757TIP3    H229763   1.741   6.339  16.869  0.2338  0.0725 -0.7410
 2758TIP3   OH229764   1.194   1.532   4.140  0.3466 -0.3526  0.0736
 2758TIP3    H129765   1.197   1.458   4.079  0.5540 -2.8735  2.9467
 2758TIP3    H229766   1.102   1.557   4.142  0.5348  0.9100 -2.3747
 2759TIP3   OH229767   5.470   6.756  16.073  0.3482  0.4233 -0.5199
 2759TIP3    H129768   5.559   6.762  16.037 -0.0051  1.0289 -1.3368
 2759TIP3    H229769   5.456   6.663  16.086  1.3597  0.3645  0.2930
 2760TIP3   OH229770   4.641   6.195   5.771 -0.0577 -0.2178 -0.2281
 2760TIP3    H129771   4.647   6.223   5.680 -2.6799 -0.1384 -0.4490
 2760TIP3    H229772   4.569   6.131   5.772 -3.2294  2.9438  2.3628
 2761TIP3   OH229773   5.716   4.442  12.315  0.4171  0.1261 -0.1701
 2761TIP3    H129774   5.800   4.473  12.279  0.2167 -1.5123 -2.2167
 2761TIP3    H229775   5.650   4.492  12.267  0.1787 -0.6665 -0.6738
 2762TIP3   OH229776   4.802   1.563  15.821 -0.0175 -0.0051  0.1975
 2762TIP3    H129777   4.830   1.560  15.729  0.9709 -4.0144  0.4460
 2762TIP3    H229778   4.715   1.522  15.821  0.2926 -0.6813  1.1358
 2763TIP3   OH229779   5.797   6.341  14.368 -0.1069  0.0158  0.2966
 2763TIP3    H129780   5.819   6.276  14.301 -1.6745 -0.0058 -0.2396
 2763TIP3    H229781   5.834   6.423  14.334  1.1697 -0.4065  0.5883
 2764TIP3   OH229782   1.212   2.795   4.577  0.0360 -0.7546 -0.4392
 2764TIP3    H129783   1.118   2.781   4.583 -0.1164  0.4795  0.1932
 2764TIP3    H229784   1.224   2.847   4.497 -0.4944  4.0487  2.2565
 2765TIP3   OH229785   0.867   0.372   1.362 -0.1943  1.0906  0.1194
 2765TIP3    H129786   0.899   0.284   1.378  0.5999  1.5490  1.1940
 2765TIP3    H229787   0.943   0.420   1.329 -0.0971  1.8411  1.3660
 2766TIP3   OH229788   4.970   2.626  15.528  0.6529  0.6803 -0.1548
 2766TIP3    H129789   4.922   2.544  15.516  0.5519  0.7256 -0.0618
 2766TIP3    H229790   4.926   2.688  15.470  2.0638  0.1387 -1.8761
 2767TIP3   OH229791   4.228   5.864  14.620 -0.1654  0.1074  0.2173
 2767TIP3    H129792   4.174   5.843  14.696 -1.8229  1.3383 -0.5635
 2767TIP3    H229793   4.271   5.781  14.597 -0.9145 -0.6597  1.4946
 2768TIP3   OH229794   1.525   3.375  13.697 -0.2309  0.0844 -0.1246
 2768TIP3    H129795   1.612   3.400  13.666 -0.3726  0.3200 -0.3352
 2768TIP3    H229796   1.464   3.426  13.643 -0.5482 -0.9893 -0.8169
 2769TIP3   OH229797   5.195   5.408  15.197  0.1990  0.0583 -0.0189
 2769TIP3    H129798   5.117   5.418  15.253  0.0889  1.0907 -0.3522
 2769TIP3    H229799   5.215   5.314  15.203  0.1518  0.1117  1.7031
 2770TIP3   OH229800   3.464   3.563   0.936  0.6439 -0.6698 -0.1067
 2770TIP3    H129801   3.551   3.554   0.975  0.4354  0.7316  0.7553
 2770TIP3    H229802   3.445   3.657   0.942 -1.4111 -1.0951  0.7640
 2771TIP3   OH229803   3.947   0.330  17.107  0.1148 -0.4878  0.0215
 2771TIP3    H129804   3.980   0.265  17.170 -0.5993 -2.3771 -1.4755
 2771TIP3    H229805   3.998   0.313  17.027 -1.6613 -0.7728 -1.0906
 2772TIP3   OH229806   0.994   5.457   0.072 -0.6872  0.4018 -0.3115
 2772TIP3    H129807   1.089   5.453   0.063 -0.3454  1.5552  2.0499
 2772TIP3    H229808   0.962   5.379   0.026  1.3608  0.1428 -1.3868
 2773TIP3   OH229809   5.309   3.205  10.334  0.3628 -0.0422  0.4711
 2773TIP3    H129810   5.240   3.214  10.399  0.5990  1.2417  0.5762
 2773TIP3    H229811   5.346   3.293  10.326  0.2753 -0.1328 -1.4715
 2774TIP3   OH229812   3.028   3.694  13.324  0.1644  0.3765 -0.1994
 2774TIP3    H129813   3.020   3.600  13.309  2.2408 -0.2413  1.9604
 2774TIP3    H229814   3.014   3.733  13.238 -2.0598 -1.7650 -0.9253
 2775TIP3   OH229815   6.260   3.898  11.876 -0.0100 -0.0800  0.6654
 2775TIP3    H129816   6.184   3.939  11.916 -0.3788 -0.4538  0.3602
 2775TIP3    H229817   6.336   3.940  11.917 -0.3622  1.4862 -0.2067
 2776TIP3   OH229818   1.838   2.330   3.233 -0.3389 -0.4289  0.3682
 2776TIP3    H129819   1.877   2.341   3.319 -0.3445 -2.1636  0.6244
 2776TIP3    H229820   1.780   2.254   3.242 -0.0800 -0.8558 -1.2492
 2777TIP3   OH229821   5.505   1.445   5.519  0.1173  0.1311 -0.7519
 2777TIP3    H129822   5.417   1.477   5.500 -1.1915 -2.8239 -0.3108
 2777TIP3    H229823   5.539   1.414   5.435  1.6782  3.0508 -1.3270
 2778TIP3   OH229824   4.637   5.618  16.489 -0.1655 -0.1961 -0.7254
 2778TIP3    H129825   4.583   5.570  16.426 -0.9549  0.0672 -0.2607
 2778TIP3    H229826   4.658   5.700  16.444 -0.1613 -0.2928 -0.9010
 2779TIP3   OH229827   1.840   4.260   0.165 -0.0024 -0.5760 -0.9241
 2779TIP3    H129828   1.892   4.338   0.185 -1.8394  0.1187  1.7099
 2779TIP3    H229829   1.884   4.189   0.213 -0.3130 -0.3930 -0.3534
 2780TIP3   OH229830   4.508   4.259  12.776  0.2859 -0.1767 -0.0005
 2780TIP3    H129831   4.451   4.298  12.842  0.4385 -0.2825  0.1955
 2780TIP3    H229832   4.580   4.320  12.767  1.0679 -0.9024  1.0806
 2781TIP3   OH229833   0.190   4.432  14.665  0.3563 -0.1579  0.5825
 2781TIP3    H129834   0.146   4.363  14.615 -2.0726  0.6949  1.3916
 2781TIP3    H229835   0.176   4.512  14.614 -0.3017  0.3667  1.5507
 2782TIP3   OH229836   3.243   5.089  14.464 -1.1260 -0.1903 -0.1732
 2782TIP3    H129837   3.152   5.078  14.435 -0.8720 -1.0213 -0.6994
 2782TIP3    H229838   3.242   5.170  14.514 -1.7848  0.8467 -1.7629
 2783TIP3   OH229839   3.477   1.710   0.794 -0.0803 -0.2328  0.8044
 2783TIP3    H129840   3.420   1.769   0.844  0.3147  1.4664 -0.6180
 2783TIP3    H229841   3.445   1.717   0.704 -0.8757 -3.3205  0.7330
 2784TIP3   OH229842   0.442   5.043  16.815 -0.0716  0.0141 -0.1443
 2784TIP3    H129843   0.445   5.041  16.719  2.3390  0.2670 -0.1446
 2784TIP3    H229844   0.378   5.111  16.835 -0.8637 -0.2699 -1.5736
 2785TIP3   OH229845   0.418   0.215   2.024 -0.2677 -0.0637 -0.6204
 2785TIP3    H129846   0.360   0.230   1.950  0.1014 -0.8530 -1.0793
 2785TIP3    H229847   0.377   0.262   2.096 -1.3673 -0.4435 -0.9752
 2786TIP3   OH229848   2.915   5.896  16.126 -0.3185 -0.3050  0.6230
 2786TIP3    H129849   2.897   5.986  16.099 -2.5138 -1.0861 -0.7956
 2786TIP3    H229850   2.993   5.902  16.180 -0.3779  2.4397  0.5237
 2787TIP3   OH229851   2.352   6.051  12.449 -0.0963  0.4115 -0.3016
 2787TIP3    H129852   2.296   6.000  12.508  0.2607 -0.5508 -0.7834
 2787TIP3    H229853   2.292   6.084  12.382 -0.4082  1.0358  0.2757
 2788TIP3   OH229854   3.476   4.380  16.832 -0.4506 -0.5889 -0.3071
 2788TIP3    H129855   3.407   4.377  16.897 -0.6162 -0.3576 -0.4722
 2788TIP3    H229856   3.436   4.343  16.753 -0.1515 -1.1809 -0.1885
 2789TIP3   OH229857   5.290   6.238  14.831  0.2746 -0.0099 -0.3814
 2789TIP3    H129858   5.213   6.207  14.877  0.3199 -1.7112 -1.3910
 2789TIP3    H229859   5.309   6.171  14.766  2.9242  0.0838  0.1713
 2790TIP3   OH229860   6.591   4.486   3.030  0.1112  0.3268  0.5803
 2790TIP3    H129861   6.544   4.411   3.065  1.0621  0.2880  1.8588
 2790TIP3    H229862   6.535   4.519   2.960 -0.6186 -1.1844  0.4067
 2791TIP3   OH229863   4.397   4.364   4.121 -0.4525  0.4163  0.0252
 2791TIP3    H129864   4.408   4.338   4.029  0.0125  1.2857 -0.1771
 2791TIP3    H229865   4.484   4.394   4.148 -0.4542 -0.3519  0.9266
 2792TIP3   OH229866   4.369   5.521  17.019 -0.1147 -0.0768  0.3172
 2792TIP3    H129867   4.329   5.500  17.103  0.2394 -0.4581  0.3958
 2792TIP3    H229868   4.451   5.566  17.043 -0.2480  0.2485  0.1689
 2793TIP3   OH229869   6.402   0.132   5.420 -0.0900  0.3192 -0.2408
 2793TIP3    H129870   6.373   0.157   5.333 -0.5479 -1.8784 -0.7655
 2793TIP3    H229871   6.325   0.142   5.475  0.3712  2.3796  0.1272
 2794TIP3   OH229872   4.436   3.888   2.150 -0.1608  0.1939 -0.1649
 2794TIP3    H129873   4.385   3.853   2.077 -2.3199  1.5162  0.6213
 2794TIP3    H229874   4.376   3.885   2.224  1.4522  0.3744  1.1912
 2795TIP3   OH229875   2.031   0.028   2.884  0.0773  0.6669  0.1028
 2795TIP3    H129876   1.996  -0.021   2.958 -0.8908  0.0555 -0.7286
 2795TIP3    H229877   2.002   0.118   2.898 -0.2388  0.5187  0.3808
 2796TIP3   OH229878   0.753   4.289   2.512 -0.1464  0.2267 -0.1828
 2796TIP3    H129879   0.744   4.238   2.432  0.1090 -2.7173  1.5033
 2796TIP3    H229880   0.663   4.303   2.542 -0.2776 -3.0551  1.4176
 2797TIP3   OH229881   5.838   2.159   3.065  0.1348  0.2173 -0.2315
 2797TIP3    H129882   5.907   2.141   3.128  0.6859  1.4832 -0.4594
 2797TIP3    H229883   5.819   2.073   3.026 -2.0063 -1.1460  3.3577
 2798TIP3   OH229884   0.287   3.038   0.277  0.1217 -0.0012  0.7128
 2798TIP3    H129885   0.362   3.047   0.218 -0.1967  2.1455  0.5565
 2798TIP3    H229886   0.326   3.017   0.362  0.8322  0.1001  0.4199
 2799TIP3   OH229887   3.561   1.936  16.479  0.1773 -0.0503 -0.5137
 2799TIP3    H129888   3.487   1.915  16.421 -0.3583  0.5619 -0.0735
 2799TIP3    H229889   3.589   1.852  16.514 -1.5028 -0.1434  0.7341
 2800TIP3   OH229890   2.017   1.210   4.974 -0.2726 -0.0165  0.2774
 2800TIP3    H129891   1.942   1.151   4.961  0.2204 -0.7775  0.8178
 2800TIP3    H229892   2.090   1.151   4.992  1.0316  0.5243 -2.6484
 2801TIP3   OH229893   3.997   5.668   3.693  0.0068 -0.0431  0.2779
 2801TIP3    H129894   4.063   5.703   3.632  0.1494 -0.1205  0.3862
 2801TIP3    H229895   3.934   5.624   3.636  0.7451 -1.1149  0.2499
 2802TIP3   OH229896   2.896   0.076   6.538 -0.7329  0.2047 -0.0856
 2802TIP3    H129897   2.980   0.045   6.572 -0.2324  2.0988  0.5174
 2802TIP3    H229898   2.911   0.089   6.444 -1.3556 -2.5262 -0.6573
 2803TIP3   OH229899   5.160   5.155   4.288 -0.1396  0.1041  0.3119
 2803TIP3    H129900   5.225   5.217   4.322  0.5584 -1.1314  1.3005
 2803TIP3    H229901   5.095   5.211   4.245  0.3945  1.5404  1.2725
 2804TIP3   OH229902   5.319   4.616   1.888  0.2478  0.0013  0.0201
 2804TIP3    H129903   5.298   4.529   1.922  1.7782 -1.5242 -2.5827
 2804TIP3    H229904   5.395   4.644   1.939 -0.3020 -0.1336  0.9345
 2805TIP3   OH229905   4.516   2.252  11.704 -0.4438  0.3591 -0.0890
 2805TIP3    H129906   4.502   2.347  11.702 -2.9623  0.0548 -0.6745
 2805TIP3    H229907   4.561   2.233  11.622 -1.5597  0.8665 -0.8414
 2806TIP3   OH229908   1.410   0.806   4.120 -0.5909  0.8675 -0.0300
 2806TIP3    H129909   1.339   0.781   4.178 -0.6894 -2.1015 -1.2528
 2806TIP3    H229910   1.462   0.868   4.171 -2.1068  0.4259  2.1832
 2807TIP3   OH229911   1.110   4.489  14.766  0.3828  0.1308 -0.0492
 2807TIP3    H129912   1.197   4.463  14.798  0.6350  1.5128  0.4632
 2807TIP3    H229913   1.049   4.453  14.830  0.6499 -0.0945  0.0822
 2808TIP3   OH229914   1.811   5.357   0.710  0.1828  0.0597 -0.0046
 2808TIP3    H129915   1.792   5.431   0.768  2.3413  1.0874 -0.5115
 2808TIP3    H229916   1.743   5.362   0.642  0.5407  1.8826 -0.2752
 2809TIP3   OH229917   2.474   4.994  11.725 -0.9272  0.0740 -0.2069
 2809TIP3    H129918   2.393   4.969  11.769 -0.7851 -0.7606 -0.4057
 2809TIP3    H229919   2.522   5.043  11.791 -1.3582  0.1073  0.0899
 2810TIP3   OH229920   5.522   4.950  16.124 -0.4791  0.5799 -0.1418
 2810TIP3    H129921   5.562   4.966  16.039 -0.8424  1.3039 -0.1875
 2810TIP3    H229922   5.465   4.874  16.111  0.0075  0.2509 -0.3615
 2811TIP3   OH229923   4.254   6.544  11.979 -0.0833  0.0477  0.2434
 2811TIP3    H129924   4.317   6.563  11.910 -0.1444  0.1575  0.2163
 2811TIP3    H229925   4.295   6.476  12.032 -0.4052 -0.6687 -0.4136
 2812TIP3   OH229926   1.077   6.335   5.496  0.2279 -0.0197  0.0673
 2812TIP3    H129927   1.067   6.350   5.402  0.4540  0.5821  0.1354
 2812TIP3    H229928   0.987   6.341   5.530  0.2332  0.5227 -0.0047
 2813TIP3   OH229929   0.353   4.145  12.287 -0.3632  0.3853 -0.2543
 2813TIP3    H129930   0.270   4.187  12.266 -1.9855 -1.5267  1.9005
 2813TIP3    H229931   0.331   4.053  12.301  2.0483 -0.1125  0.7767
 2814TIP3   OH229932   1.961   0.762  12.973 -0.0998  0.1981 -0.2027
 2814TIP3    H129933   2.039   0.818  12.977 -0.6859  1.0609 -0.4679
 2814TIP3    H229934   1.901   0.809  12.914 -0.6531 -0.6588 -0.3346
 2815TIP3   OH229935   6.419   1.392  12.154  0.0072 -0.5243  0.0872
 2815TIP3    H129936   6.327   1.421  12.152 -0.2422 -1.3167 -0.7595
 2815TIP3    H229937   6.414   1.298  12.135  0.8409 -0.9954  1.9887
 2816TIP3   OH229938   2.832   0.744   3.654  0.5743  0.0533 -0.0655
 2816TIP3    H129939   2.738   0.735   3.641  0.2683  0.8472  1.4225
 2816TIP3    H229940   2.856   0.672   3.713  1.1201 -0.8095 -1.3006
 2817TIP3   OH229941   1.518   3.334   4.462 -0.2176  0.3138  0.3492
 2817TIP3    H129942   1.512   3.421   4.422 -0.8638  0.0115 -0.2373
 2817TIP3    H229943   1.428   3.313   4.488  0.1328  0.3488  1.6596
 2818TIP3   OH229944   2.081   4.033   0.009  0.1424 -0.6257 -0.8209
 2818TIP3    H129945   2.019   3.962   0.025 -0.0623 -0.4534 -0.8448
 2818TIP3    H229946   2.163   3.989  -0.015 -0.5450 -0.8417 -2.9717
 2819TIP3   OH229947   5.288   4.867   0.010  0.1189 -0.3872  1.1558
 2819TIP3    H129948   5.321   4.945  -0.036 -1.5483  0.2417  0.9420
 2819TIP3    H229949   5.298   4.796  -0.054  1.4212 -0.3250  1.2618
 2820TIP3   OH229950   6.257   4.729   0.146 -0.6680  0.4620  0.1374
 2820TIP3    H129951   6.199   4.653   0.150  0.7155 -0.6002  0.6377
 2820TIP3    H229952   6.316   4.711   0.074  0.6896  0.2786  1.2559
 2821TIP3   OH229953   3.803   6.327   1.570 -0.4753 -0.5315  0.5050
 2821TIP3    H129954   3.728   6.376   1.605 -1.1172 -0.3435 -1.0064
 2821TIP3    H229955   3.860   6.395   1.533 -0.0163 -0.7452  0.8106
 2822TIP3   OH229956   5.025   3.595  13.547 -0.2446 -0.0391  0.5576
 2822TIP3    H129957   4.943   3.642  13.565 -0.5121 -0.8950  1.6269
 2822TIP3    H229958   4.999   3.520  13.494 -0.1503 -0.3353  0.9332
 2823TIP3   OH229959   0.560   0.941  11.150  0.5153 -0.7107 -0.6812
 2823TIP3    H129960   0.625   1.012  11.157  0.7600 -1.0244  0.3471
 2823TIP3    H229961   0.585   0.879  11.218  0.1958 -1.7114 -1.4626
 2824TIP3   OH229962   1.914   1.098  15.605 -0.3925 -0.8756  0.2946
 2824TIP3    H129963   1.990   1.046  15.631  1.7750  0.5851 -2.5564
 2824TIP3    H229964   1.869   1.044  15.540  0.2371 -0.4272 -0.5465
 2825TIP3   OH229965   4.448   2.930   2.447  0.3348  0.9361  1.0510
 2825TIP3    H129966   4.420   2.963   2.532  0.2439 -0.1555  1.4572
 2825TIP3    H229967   4.371   2.940   2.391  0.5552  2.1480  0.9343
 2826TIP3   OH229968   1.404   1.637  14.293  0.1430  0.3294 -0.1716
 2826TIP3    H129969   1.424   1.642  14.387  0.1495 -1.9610 -0.0043
 2826TIP3    H229970   1.410   1.544  14.272  0.3118  0.8043 -2.5062
 2827TIP3   OH229971   5.371   2.375   1.675  0.3860 -0.4220  0.6871
 2827TIP3    H129972   5.346   2.425   1.752  0.7709 -0.4706  0.8455
 2827TIP3    H229973   5.293   2.324   1.653 -0.3594  1.0054 -0.0900
 2828TIP3   OH229974   0.133   4.463   1.734 -0.1807  0.4255 -0.1053
 2828TIP3    H129975   0.078   4.499   1.664  0.3370  0.4341 -0.5099
 2828TIP3    H229976   0.146   4.371   1.710  0.1508  0.4750 -0.1168
 2829TIP3   OH229977   3.488   0.310   6.012 -0.1796  0.1990  0.0353
 2829TIP3    H129978   3.553   0.262   6.063 -2.0705 -0.7928  1.6317
 2829TIP3    H229979   3.504   0.402   6.034  2.2006  0.2515 -1.5281
 2830TIP3   OH229980   0.549   5.451  13.273  0.0073  0.0526  0.4146
 2830TIP3    H129981   0.554   5.359  13.248 -0.6267  0.6505 -2.2701
 2830TIP3    H229982   0.467   5.458  13.322  1.1645 -1.1409  2.7065
 2831TIP3   OH229983   1.981   2.741  12.503 -0.1193  0.6847  0.0736
 2831TIP3    H129984   2.019   2.659  12.473 -1.2030 -0.0014  0.5511
 2831TIP3    H229985   2.056   2.800  12.512  0.8449 -0.6292  1.0003
 2832TIP3   OH229986   2.029   2.564   1.356 -0.1377  0.6226 -0.4104
 2832TIP3    H129987   2.103   2.625   1.357 -1.2756  2.0752  1.0245
 2832TIP3    H229988   1.962   2.609   1.304 -1.0932  0.8025  0.9027
 2833TIP3   OH229989   1.763   5.486   0.980  0.0091 -0.0608  0.0610
 2833TIP3    H129990   1.858   5.485   0.984  0.0270 -0.9458 -0.3848
 2833TIP3    H229991   1.735   5.499   1.071  0.5477  1.2337  0.0602
 2834TIP3   OH229992   1.848   5.201  15.190  0.3533  0.1159 -0.4665
 2834TIP3    H129993   1.925   5.247  15.224  0.6757  0.7837 -2.0097
 2834TIP3    H229994   1.874   5.109  15.188  0.5434  0.1413  0.4620
 2835TIP3   OH229995   4.468   3.922   4.468 -0.0138  0.0457 -0.1952
 2835TIP3    H129996   4.476   3.992   4.402 -3.0008  1.4208  0.7300
 2835TIP3    H229997   4.482   3.841   4.419 -0.0510  1.1137 -2.0703
 2836TIP3   OH229998   4.197   0.045  12.897  0.7478  0.3293  0.2457
 2836TIP3    H129999   4.153   0.131  12.894 -1.3716 -0.6751  0.6885
 2836TIP3    H230000   4.156  -0.005  12.827  0.4276 -0.9923  1.3429
 2837TIP3   OH230001   2.955   1.119  17.102  0.0037  0.0882 -0.0411
 2837TIP3    H130002   2.951   1.055  17.172  2.0998 -1.4078 -1.2031
 2837TIP3    H230003   3.016   1.186  17.134  2.3400 -1.4702 -1.0168
 2838TIP3   OH230004   1.494   6.309  10.630 -0.4125  0.3261  0.1808
 2838TIP3    H130005   1.545   6.267  10.560 -0.1645 -1.3493  1.3146
 2838TIP3    H230006   1.556   6.367  10.674 -0.5425  1.3098 -0.8851
 2839TIP3   OH230007   0.828   5.057  15.327 -0.2106  0.4618 -0.1929
 2839TIP3    H130008   0.787   4.986  15.376  1.4475  0.7034  1.6489
 2839TIP3    H230009   0.920   5.032  15.322  0.4489  2.5386  0.6584
 2840TIP3   OH230010   1.600   3.461   1.582  0.5960 -0.4791 -0.2342
 2840TIP3    H130011   1.668   3.454   1.648  0.8430 -1.3156 -0.5597
 2840TIP3    H230012   1.524   3.417   1.620  0.3057  0.2387  0.0313
 2841TIP3   OH230013   3.714   4.563  15.841 -0.5369 -0.1623 -0.5938
 2841TIP3    H130014   3.633   4.538  15.884  1.2493 -1.3295  2.4136
 2841TIP3    H230015   3.706   4.658  15.826 -2.6061 -0.3494 -0.9472
 2842TIP3   OH230016   6.016   6.124   0.794 -0.4424 -0.2318 -0.4274
 2842TIP3    H130017   6.019   6.104   0.888 -0.9177 -1.5961 -0.6750
 2842TIP3    H230018   6.086   6.071   0.756  0.2129  0.8545 -0.7733
 2843TIP3   OH230019   5.855   3.759  12.277  0.3806 -0.0124 -0.2880
 2843TIP3    H130020   5.902   3.752  12.194 -0.9925 -2.6251 -0.9314
 2843TIP3    H230021   5.765   3.781  12.253 -0.0676 -0.9442  0.4701
 2844TIP3   OH230022   1.884   3.394   3.603  0.0451 -0.1608  0.0547
 2844TIP3    H130023   1.845   3.376   3.517 -0.6119  2.7178 -0.3488
 2844TIP3    H230024   1.978   3.404   3.584 -0.0574  0.1780 -0.3058
 2845TIP3   OH230025   2.754   2.223   0.428 -0.4028  0.1182  0.3168
 2845TIP3    H130026   2.820   2.224   0.359  1.4117  0.5055  1.9762
 2845TIP3    H230027   2.738   2.316   0.447 -0.8456  0.0157  0.4596
 2846TIP3   OH230028   5.406   0.788   3.258 -0.4969  0.0426  0.1607
 2846TIP3    H130029   5.326   0.834   3.283  0.2579  1.6557 -0.2201
 2846TIP3    H230030   5.476   0.850   3.277  0.5186 -0.6685 -1.0705
 2847TIP3   OH230031   2.184   1.920  14.841 -0.2490 -0.3312  0.4669
 2847TIP3    H130032   2.107   1.868  14.862  0.3229 -1.5105 -0.2694
 2847TIP3    H230033   2.256   1.857  14.838  0.7515  0.7288  1.0674
 2848TIP3   OH230034   1.536   1.600   6.259 -0.2933 -0.0734 -0.1585
 2848TIP3    H130035   1.470   1.607   6.328  0.0919  0.0502  0.2048
 2848TIP3    H230036   1.488   1.570   6.182 -0.4945 -1.6574  0.5366
 2849TIP3   OH230037   0.016   3.666   5.662  0.7183  0.4762 -0.0872
 2849TIP3    H130038  -0.040   3.593   5.634  1.4158 -0.6147  1.2988
 2849TIP3    H230039   0.101   3.627   5.679  1.0599  1.5803  0.8739
 2850TIP3   OH230040   2.671   0.628   1.137 -0.4592  0.2753  0.5710
 2850TIP3    H130041   2.668   0.724   1.130 -0.6743  0.2381  0.0913
 2850TIP3    H230042   2.709   0.611   1.223  1.0353  0.7840  0.0336
 2851TIP3   OH230043   6.226   2.036  13.887  0.5429  0.1493 -0.1140
 2851TIP3    H130044   6.262   1.950  13.907  4.3567  1.4338 -0.5519
 2851TIP3    H230045   6.227   2.042  13.792  0.9769  0.8998 -0.0720
 2852TIP3   OH230046   1.666   0.068  13.930  0.1053  0.3803  0.5876
 2852TIP3    H130047   1.650  -0.024  13.914  0.6928  0.2541  0.6786
 2852TIP3    H230048   1.743   0.089  13.877  0.7886  0.4751  1.5827
 2853TIP3   OH230049   6.119   3.567  10.268  0.5024 -0.0684 -0.0516
 2853TIP3    H130050   6.155   3.489  10.225 -1.2478 -0.5537 -0.7398
 2853TIP3    H230051   6.108   3.541  10.360 -1.6062 -1.2878 -0.5798
 2854TIP3   OH230052   4.916   2.067  15.385 -0.3079  0.5985 -0.4812
 2854TIP3    H130053   4.898   1.976  15.405 -2.1190  0.4224 -2.6657
 2854TIP3    H230054   4.878   2.116  15.459 -2.0494 -0.2726 -0.7671
 2855TIP3   OH230055   2.344   3.166   0.824 -0.6528 -0.1802 -0.0264
 2855TIP3    H130056   2.301   3.206   0.900  0.7065  1.4222 -0.0569
 2855TIP3    H230057   2.389   3.239   0.781 -0.2593 -1.3133 -1.6025
 2856TIP3   OH230058   2.707   5.248  16.465  0.2464  0.0739 -0.2031
 2856TIP3    H130059   2.801   5.235  16.478  0.3890  1.0829 -0.1876
 2856TIP3    H230060   2.700   5.318  16.400 -0.4872  0.6211  0.4416
 2857TIP3   OH230061   5.553   0.990  12.913  0.5961  0.1321  0.3836
 2857TIP3    H130062   5.524   0.907  12.950  1.1174 -0.8744 -1.3559
 2857TIP3    H230063   5.615   1.025  12.978  1.1316 -1.3197  0.6936
 2858TIP3   OH230064   6.009   5.021   4.231 -0.4610 -0.0501 -0.4057
 2858TIP3    H130065   6.029   5.081   4.158 -1.4692  0.2392 -0.4582
 2858TIP3    H230066   6.073   4.950   4.221  0.2718  0.6378 -0.7870
 2859TIP3   OH230067   2.478   1.538   1.874  0.3804  0.4837 -0.6586
 2859TIP3    H130068   2.535   1.530   1.798 -0.5154 -1.2149 -1.2102
 2859TIP3    H230069   2.417   1.607   1.851  1.9966  2.1532 -0.1628
 2860TIP3   OH230070   5.857   0.697   3.681 -0.4509 -0.6201 -0.2826
 2860TIP3    H130071   5.900   0.617   3.711  1.2559  0.5387  0.4698
 2860TIP3    H230072   5.781   0.706   3.739  0.8325 -0.3063  1.4200
 2861TIP3   OH230073   2.297   2.020  11.016 -0.7543 -0.0170  0.4955
 2861TIP3    H130074   2.364   2.083  11.041  0.1769 -0.3155 -1.0942
 2861TIP3    H230075   2.226   2.074  10.981  0.2887  0.2021 -1.4366
 2862TIP3   OH230076   0.197   6.768  12.671  0.1270 -0.4211 -0.5011
 2862TIP3    H130077   0.184   6.673  12.668 -1.9538 -0.1687 -0.6688
 2862TIP3    H230078   0.235   6.789  12.585  0.7984 -1.1002 -0.3841
 2863TIP3   OH230079   4.145   4.367  14.652 -0.3383 -0.5264 -0.1245
 2863TIP3    H130080   4.103   4.309  14.589 -0.8793 -0.0061 -0.2562
 2863TIP3    H230081   4.074   4.392  14.712  0.0358 -0.5278  0.3207
 2864TIP3   OH230082   2.703   1.353   2.440 -0.0519 -0.1598 -0.2660
 2864TIP3    H130083   2.691   1.442   2.473  1.2083 -0.4765  1.1541
 2864TIP3    H230084   2.655   1.298   2.502  1.1790 -0.6515  0.2742
 2865TIP3   OH230085   5.852   4.441   3.441  0.2478 -0.1431  0.4834
 2865TIP3    H130086   5.817   4.393   3.366 -0.6380  0.2084  0.6538
 2865TIP3    H230087   5.776   4.454   3.498  0.1060  2.7598 -0.2315
 2866TIP3   OH230088   1.276   0.612  12.586 -0.4254 -0.5385 -0.3645
 2866TIP3    H130089   1.251   0.696  12.625 -1.0189 -1.5053  1.4626
 2866TIP3    H230090   1.372   0.614  12.585 -0.4402  0.3050 -0.6896
 2867TIP3   OH230091   6.501   5.817   3.243 -0.2459 -0.8503  0.5062
 2867TIP3    H130092   6.433   5.872   3.205 -0.1578 -1.7775 -1.0885
 2867TIP3    H230093   6.569   5.878   3.271  0.4794 -0.1259 -2.4736
 2868TIP3   OH230094   4.159   5.452   3.765  0.1289  0.6550  0.2024
 2868TIP3    H130095   4.080   5.505   3.750  1.5294  3.0865  0.9186
 2868TIP3    H230096   4.135   5.394   3.838 -1.5239  0.0821 -0.7372
 2869TIP3   OH230097   4.082   1.961   2.437  0.5979 -0.3725  0.1314
 2869TIP3    H130098   4.117   1.874   2.456 -2.3851 -1.3815  1.6039
 2869TIP3    H230099   3.988   1.948   2.428  0.3662  2.2186 -3.1789
 2870TIP3   OH230100   0.677   4.830   3.896 -0.2493  0.8221  0.0121
 2870TIP3    H130101   0.651   4.773   3.968  1.3678  0.5798  0.4508
 2870TIP3    H230102   0.685   4.917   3.936  0.7676  0.6651  0.1797
 2871TIP3   OH230103   1.076   1.722  16.165  0.4075 -0.7287  0.4640
 2871TIP3    H130104   1.010   1.740  16.232  1.7573 -2.3371  2.3612
 2871TIP3    H230105   1.034   1.744  16.083 -1.6002  0.6465  1.7802
 2872TIP3   OH230106   2.580   5.742   5.098  0.9519  0.6234  0.0328
 2872TIP3    H130107   2.629   5.804   5.151 -1.6322  3.1009 -0.2594
 2872TIP3    H230108   2.570   5.785   5.013 -1.6295  0.2627  0.0742
 2873TIP3   OH230109   2.184   1.400  11.123  0.5131 -0.1325  0.4468
 2873TIP3    H130110   2.190   1.307  11.145 -1.1358 -0.0758  1.1987
 2873TIP3    H230111   2.093   1.413  11.096  0.5386  1.4134  1.0388
 2874TIP3   OH230112   4.861   3.574  11.809  0.2582  0.4891  0.5887
 2874TIP3    H130113   4.817   3.619  11.738  1.4947  0.1091 -0.4676
 2874TIP3    H230114   4.804   3.500  11.830 -0.7368  1.3228  0.8929
 2875TIP3   OH230115   6.139   2.893  10.850  0.1856  0.1423  0.0394
 2875TIP3    H130116   6.044   2.888  10.857  0.3381 -1.4435  1.7438
 2875TIP3    H230117   6.155   2.935  10.766 -2.0055 -0.8994 -0.9613
 2876TIP3   OH230118   0.153   4.911  13.012  0.0420  0.0159  0.0892
 2876TIP3    H130119   0.166   4.878  13.100  1.2270 -1.1090 -0.4835
 2876TIP3    H230120   0.166   4.835  12.955 -1.2035  0.6023 -1.0351
 2877TIP3   OH230121   2.380   0.297  13.142  0.7416 -0.4196  0.1294
 2877TIP3    H130122   2.377   0.204  13.166 -1.1923 -0.3452  0.3174
 2877TIP3    H230123   2.402   0.341  13.224  2.4169 -0.7313 -0.1194
 2878TIP3   OH230124   3.385   4.895  16.427 -0.0040  0.2384 -0.5898
 2878TIP3    H130125   3.361   4.946  16.504  0.3250  1.9688 -1.5891
 2878TIP3    H230126   3.313   4.833  16.415 -0.0808 -0.0255  1.0495
 2879TIP3   OH230127   1.166   2.701  12.236  0.1340 -0.2971 -0.1150
 2879TIP3    H130128   1.118   2.731  12.159  1.5118  1.2634 -0.4307
 2879TIP3    H230129   1.212   2.622  12.207  2.9437  1.8015 -1.9240
 2880TIP3   OH230130   1.026   3.756   5.519 -0.0774 -0.4376  0.1193
 2880TIP3    H130131   1.110   3.791   5.489 -0.6369  0.2200 -0.7064
 2880TIP3    H230132   1.014   3.794   5.606  0.8682 -1.1980  0.5924
 2881TIP3   OH230133   1.890   0.589  16.553  0.1355  0.1922  0.1399
 2881TIP3    H130134   1.858   0.660  16.498 -0.2575 -0.9323 -1.1209
 2881TIP3    H230135   1.984   0.585  16.536  0.1170  0.2531  0.0219
 2882TIP3   OH230136   5.699   4.856  16.989  0.0511  0.1175  0.2224
 2882TIP3    H130137   5.713   4.773  16.945 -0.2528  0.2781 -0.1800
 2882TIP3    H230138   5.743   4.921  16.934  0.2714  0.2319  0.5234
 2883TIP3   OH230139   0.527   2.560   1.362 -0.1838  0.0965 -0.3497
 2883TIP3    H130140   0.598   2.621   1.341 -0.1542 -0.0234 -0.6076
 2883TIP3    H230141   0.462   2.574   1.293 -1.0658  1.2203  0.6806
 2884TIP3   OH230142   5.092   5.888   5.757 -0.2439  0.5965 -0.2615
 2884TIP3    H130143   5.160   5.889   5.824 -0.3981 -0.0238 -0.0882
 2884TIP3    H230144   5.136   5.860   5.677  0.5875  4.0146 -1.1886
 2885TIP3   OH230145   4.826   4.305  15.683  0.1295 -0.0596  0.1191
 2885TIP3    H130146   4.770   4.256  15.743 -0.5054  1.1986  0.5908
 2885TIP3    H230147   4.765   4.345  15.620  0.7696 -1.2789 -1.3554
 2886TIP3   OH230148   4.739   1.457  11.511  0.0784 -0.0297  0.3270
 2886TIP3    H130149   4.750   1.541  11.466 -0.1199  0.0329  0.3963
 2886TIP3    H230150   4.647   1.455  11.536  0.5765  0.8847  2.5578
 2887TIP3   OH230151   2.647   6.595   3.436  0.0416  0.1444  0.1407
 2887TIP3    H130152   2.647   6.511   3.483 -1.6727 -0.6084 -1.0828
 2887TIP3    H230153   2.681   6.573   3.349  0.6592  0.9806  0.1615
 2888TIP3   OH230154   0.559   4.730  11.881  0.1449  0.3281  0.2118
 2888TIP3    H130155   0.510   4.753  11.960  1.2289  1.3948  0.6150
 2888TIP3    H230156   0.514   4.653  11.846  0.0731 -0.6446  2.2811
 2889TIP3   OH230157   1.978   5.480  14.902  0.4845  0.2770  0.3404
 2889TIP3    H130158   2.034   5.521  14.968  1.8636  1.6466 -1.5667
 2889TIP3    H230159   1.894   5.524  14.911  0.7570  0.6806  0.9695
 2890TIP3   OH230160   3.164   5.866   2.817  0.1772  0.1777  0.4788
 2890TIP3    H130161   3.111   5.891   2.892 -0.5630  0.2693 -0.0558
 2890TIP3    H230162   3.205   5.947   2.788  1.4540 -0.0645  1.5053
 2891TIP3   OH230163   0.483   3.029   4.360 -0.1457  0.5832 -1.0543
 2891TIP3    H130164   0.425   3.104   4.362  0.1089  0.8338 -2.4943
 2891TIP3    H230165   0.555   3.053   4.418 -1.7330 -0.0093  1.3151
 2892TIP3   OH230166   5.216   1.787   4.988  0.1101 -0.1232 -0.1700
 2892TIP3    H130167   5.218   1.757   4.897  0.2211  0.2403 -0.2891
 2892TIP3    H230168   5.280   1.858   4.992 -2.3171  2.2223 -0.6499
 2893TIP3   OH230169   1.521   3.254  14.084  0.7243 -0.0930  0.3318
 2893TIP3    H130170   1.578   3.312  14.133  0.8654  0.8518 -0.8951
 2893TIP3    H230171   1.575   3.178  14.063  1.8000  1.0942 -1.4111
 2894TIP3   OH230172   2.048   1.048  16.380 -0.4166 -0.5173 -0.4873
 2894TIP3    H130173   2.072   1.117  16.319  1.5775 -0.2980  0.4481
 2894TIP3    H230174   2.098   1.068  16.460  2.0051 -4.1297 -0.8372
 2895TIP3   OH230175   4.346   2.514   5.671 -0.3138  0.0618  0.3050
 2895TIP3    H130176   4.425   2.527   5.619 -1.0571  2.7250 -0.3151
 2895TIP3    H230177   4.275   2.545   5.615 -1.7370 -1.3947  1.2017
 2896TIP3   OH230178   5.350   2.926  12.609 -0.4916  0.1352 -0.0005
 2896TIP3    H130179   5.369   3.020  12.611  0.2873  0.0253 -1.1558
 2896TIP3    H230180   5.263   2.920  12.569 -0.9990  0.4053  1.0345
 2897TIP3   OH230181   0.191   3.678   0.449 -0.2708 -0.6074 -0.1786
 2897TIP3    H130182   0.222   3.711   0.365 -0.3974 -0.0208  0.0014
 2897TIP3    H230183   0.259   3.617   0.479  0.0791 -0.3217 -0.3983
 2898TIP3   OH230184   2.782   5.409   4.290  0.2164 -0.3208 -0.1470
 2898TIP3    H130185   2.728   5.484   4.313 -1.0283 -1.1738 -0.2251
 2898TIP3    H230186   2.800   5.420   4.197  3.1836  1.8073  0.4958
 2899TIP3   OH230187   0.799   4.982   0.026  0.3303 -0.3223  0.1369
 2899TIP3    H130188   0.756   5.003   0.108 -0.0813  0.1214 -0.1891
 2899TIP3    H230189   0.850   4.903   0.045  0.6889  0.1062  0.9604
 2900TIP3   OH230190   2.731   5.180   4.384 -0.5920  0.9257  0.0010
 2900TIP3    H130191   2.637   5.172   4.400 -0.8896  1.8972 -1.1069
 2900TIP3    H230192   2.747   5.274   4.384  0.6747  0.7466  1.6752
 2901TIP3   OH230193   6.781   4.713  12.132  0.6918  0.2255 -0.7070
 2901TIP3    H130194   6.746   4.798  12.160  1.4859  0.9868 -1.9089
 2901TIP3    H230195   6.717   4.649  12.161  0.1855  1.2149  0.4388
 2902TIP3   OH230196   5.691   1.512   4.255  0.5073 -0.0484  0.0680
 2902TIP3    H130197   5.727   1.434   4.295  0.7181  0.1867  0.3384
 2902TIP3    H230198   5.615   1.481   4.205  0.3998 -0.3762  0.4355
 2903TIP3   OH230199   6.523   3.866  11.454 -0.3058 -0.7388 -0.3762
 2903TIP3    H130200   6.482   3.937  11.504 -0.5014  0.3039 -1.9514
 2903TIP3    H230201   6.503   3.787  11.505  0.3995  0.3478  1.7307
 2904TIP3   OH230202   1.176   0.741   5.343 -0.2370 -0.6603  0.5835
 2904TIP3    H130203   1.215   0.654   5.328 -0.7828 -1.0910  1.5614
 2904TIP3    H230204   1.227   0.778   5.414  1.2665  0.6792 -1.0820
 2905TIP3   OH230205   5.264   3.788  15.183  0.0869  0.2418  0.3712
 2905TIP3    H130206   5.283   3.879  15.160  1.3485  0.3119  1.5324
 2905TIP3    H230207   5.212   3.794  15.263  0.4934 -0.0563  0.6601
 2906TIP3   OH230208   2.382   5.731  14.588  0.1141  0.1412 -0.5987
 2906TIP3    H130209   2.429   5.664  14.538 -0.9981 -0.0756 -1.4052
 2906TIP3    H230210   2.415   5.814  14.554  0.3454 -0.0072 -0.7359
 2907TIP3   OH230211   2.345   0.495   4.448  0.4038 -1.0224 -0.2150
 2907TIP3    H130212   2.349   0.511   4.354  2.3001 -0.3772 -0.0677
 2907TIP3    H230213   2.258   0.527   4.474 -0.0233 -0.9346 -1.6796
 2908TIP3   OH230214   0.477   3.008  15.512  0.0252  0.1840  0.8845
 2908TIP3    H130215   0.460   2.997  15.605 -0.2717  0.7260  0.9021
 2908TIP3    H230216   0.403   2.966  15.469  0.6836 -0.9765  0.8630
 2909TIP3   OH230217   3.219   4.584   6.049  0.3113  0.7937 -0.2887
 2909TIP3    H130218   3.227   4.669   6.092  2.4631 -0.5395  2.2641
 2909TIP3    H230219   3.303   4.541   6.064 -0.2604 -1.3674 -2.5524
 2910TIP3   OH230220   0.867   3.453   0.684  0.0882 -0.2169 -0.3344
 2910TIP3    H130221   0.840   3.421   0.598  0.5298 -0.6122 -0.3247
 2910TIP3    H230222   0.930   3.389   0.716  0.0825  0.0341  0.1988
 2911TIP3   OH230223   2.697   5.186  15.693  0.0879 -0.5962 -0.4697
 2911TIP3    H130224   2.622   5.236  15.661  0.7430  0.0022 -1.0983
 2911TIP3    H230225   2.733   5.143  15.615 -1.0367 -2.9008  0.1820
 2912TIP3   OH230226   2.669   3.940   0.863 -0.0026  0.3093 -0.1254
 2912TIP3    H130227   2.694   3.932   0.955  1.9883 -1.0412 -0.7224
 2912TIP3    H230228   2.669   4.034   0.846  3.8846  0.5680  0.2809
 2913TIP3   OH230229   6.561   2.725  14.062 -0.0848  0.8384 -0.9156
 2913TIP3    H130230   6.472   2.723  14.097  1.1429 -0.0711  2.5914
 2913TIP3    H230231   6.566   2.649  14.004 -1.4791  0.6447 -0.8076
 2914TIP3   OH230232   4.300   2.932  11.836 -0.2717 -0.1198  0.2241
 2914TIP3    H130233   4.275   2.845  11.803  1.0842 -0.1585 -0.7620
 2914TIP3    H230234   4.298   2.923  11.931 -0.5551 -1.1113  0.1341
 2915TIP3   OH230235   4.984   5.422   5.868  0.2271 -0.1449  0.0071
 2915TIP3    H130236   4.930   5.354   5.829  0.0307 -1.3844  2.2763
 2915TIP3    H230237   5.074   5.389   5.860  0.2628 -0.0219 -0.1030
 2916TIP3   OH230238   6.783   0.237  14.398 -0.5420  0.1533 -0.2722
 2916TIP3    H130239   6.738   0.246  14.482  0.0688  2.2670 -0.1185
 2916TIP3    H230240   6.870   0.273  14.413 -0.7679  1.6156 -2.0565
 2917TIP3   OH230241   6.829   0.746   5.407 -0.4397  0.7565 -0.0441
 2917TIP3    H130242   6.860   0.765   5.496 -0.2265  1.5159 -0.2758
 2917TIP3    H230243   6.735   0.764   5.409 -0.7216 -0.6861  0.4217
 2918TIP3   OH230244   5.102   2.780  11.256  0.1764 -0.0816  0.5179
 2918TIP3    H130245   5.049   2.700  11.260  1.2303 -1.0079 -1.8178
 2918TIP3    H230246   5.066   2.828  11.181  2.1912 -0.4724 -0.7715
 2919TIP3   OH230247   1.598   1.035  10.721  0.2581 -0.3534 -0.0738
 2919TIP3    H130248   1.560   1.030  10.808  1.4520  1.8243  0.6395
 2919TIP3    H230249   1.659   0.961  10.717 -1.0018 -1.4413  0.2813
 2920TIP3   OH230250   2.712   6.200   2.041  0.1659  0.1455  0.5001
 2920TIP3    H130251   2.682   6.119   2.083  0.7509  0.1311  0.9029
 2920TIP3    H230252   2.632   6.249   2.022 -0.3816 -1.4208 -1.6512
 2921TIP3   OH230253   5.394   3.377   0.673 -0.5800  0.1557 -0.0544
 2921TIP3    H130254   5.391   3.375   0.578 -1.8535 -0.4660 -0.0258
 2921TIP3    H230255   5.458   3.445   0.694 -0.1738  0.1878 -1.3468
 2922TIP3   OH230256   4.636   6.300   2.337  0.1274  0.1203  0.5505
 2922TIP3    H130257   4.612   6.221   2.289 -0.5718  0.8567 -0.3343
 2922TIP3    H230258   4.569   6.307   2.406  0.9121 -0.7263  1.4317
 2923TIP3   OH230259   5.817   3.626  11.542  0.4620 -0.1312 -0.5138
 2923TIP3    H130260   5.878   3.587  11.479  2.3893  1.7304  0.1012
 2923TIP3    H230261   5.776   3.551  11.585  3.4227 -1.5289  0.0963
 2924TIP3   OH230262   6.826   0.896  10.589 -0.3021 -0.6553  0.4094
 2924TIP3    H130263   6.898   0.919  10.647 -0.5444  0.1549  0.3973
 2924TIP3    H230264   6.748   0.904  10.643 -0.4511 -0.7709  0.2107
 2925TIP3   OH230265   2.283   0.755  13.306 -0.4797  0.2563 -0.0943
 2925TIP3    H130266   2.369   0.791  13.325 -0.6294  1.0212 -0.7843
 2925TIP3    H230267   2.222   0.822  13.336 -1.0071 -1.4586  3.0466
 2926TIP3   OH230268   3.894   2.657   1.564 -0.2229 -0.4991 -0.0362
 2926TIP3    H130269   3.833   2.712   1.514 -1.2298 -0.9444  0.6690
 2926TIP3    H230270   3.915   2.585   1.505 -0.9086 -0.6930 -0.0483
 2927TIP3   OH230271   6.772   1.825  11.467  0.0341  0.3646  0.9354
 2927TIP3    H130272   6.677   1.819  11.481 -0.2607  2.0032 -0.1324
 2927TIP3    H230273   6.809   1.761  11.529 -1.6729  0.7968  2.5060
 2928TIP3   OH230274   2.267   6.099   3.642 -0.6446  0.2485  0.0655
 2928TIP3    H130275   2.225   6.115   3.727 -1.6924  0.7375 -0.5266
 2928TIP3    H230276   2.327   6.172   3.630 -0.8755  0.4513  0.1519
 2929TIP3   OH230277   5.832   4.934  11.759 -0.2435  0.3193 -0.0397
 2929TIP3    H130278   5.827   4.997  11.687 -2.1677  1.2269  0.8001
 2929TIP3    H230279   5.769   4.866  11.736  0.9067 -0.6658 -0.3388
 2930TIP3   OH230280   3.675   5.821  13.483  0.3624 -0.1178  0.0972
 2930TIP3    H130281   3.721   5.825  13.567 -1.2810 -2.9448  1.2471
 2930TIP3    H230282   3.740   5.786  13.422  1.1841  0.7596  0.4255
 2931TIP3   OH230283   2.473   4.460   0.351  0.3399 -0.0831 -0.3529
 2931TIP3    H130284   2.504   4.476   0.262  0.5949  0.8860 -0.1029
 2931TIP3    H230285   2.422   4.538   0.373 -0.1062 -0.5186  0.1894
 2932TIP3   OH230286   3.742   3.863   3.341 -0.3557  0.5777  0.6659
 2932TIP3    H130287   3.658   3.909   3.344 -0.3939  0.5046  0.7470
 2932TIP3    H230288   3.727   3.784   3.394 -0.1194  0.7556  1.0009
 2933TIP3   OH230289   2.021   2.785  15.411  0.1362 -0.1762 -0.4540
 2933TIP3    H130290   2.061   2.858  15.364 -0.8589 -0.8453 -2.4194
 2933TIP3    H230291   2.096   2.733  15.441  0.8185  0.9300 -0.1696
 2934TIP3   OH230292   1.162   6.159   3.388  0.2133  0.4448 -0.2117
 2934TIP3    H130293   1.139   6.086   3.330  0.9665  0.1629 -0.1675
 2934TIP3    H230294   1.080   6.180   3.433 -0.2847  0.3856 -1.0587
 2935TIP3   OH230295   3.277   2.525  13.015 -0.2091  0.0492 -0.0971
 2935TIP3    H130296   3.295   2.619  13.007 -1.1064  0.1139 -1.8657
 2935TIP3    H230297   3.344   2.483  12.961  0.0666 -0.3311  0.5285
 2936TIP3   OH230298   6.416   0.188   4.821 -0.3359  0.5847 -0.4336
 2936TIP3    H130299   6.430   0.162   4.911 -0.0551 -2.9695 -1.3759
 2936TIP3    H230300   6.321   0.178   4.807 -0.1991 -0.1437 -0.8657
 2937TIP3   OH230301   1.519   6.260  13.302  0.2289  0.0919  0.2088
 2937TIP3    H130302   1.511   6.219  13.216 -0.3406 -1.0482  0.7897
 2937TIP3    H230303   1.613   6.261  13.319  0.3016 -0.2670 -0.1596
 2938TIP3   OH230304   4.601   2.135   0.989  0.1225  0.2015  0.1089
 2938TIP3    H130305   4.622   2.228   0.979  0.3195  0.0935 -0.4914
 2938TIP3    H230306   4.681   2.090   0.964 -0.3321 -0.1648 -0.7158
 2939TIP3   OH230307   0.340   0.022   1.801 -0.2563 -0.0822 -0.2437
 2939TIP3    H130308   0.297   0.107   1.804 -1.7495 -0.7665 -1.0305
 2939TIP3    H230309   0.270  -0.039   1.775  0.4030 -1.7902  1.7126
 2940TIP3   OH230310   2.562   5.477  15.407  0.3691 -0.2022 -0.1607
 2940TIP3    H130311   2.521   5.562  15.422  0.5889  0.0282 -0.8507
 2940TIP3    H230312   2.609   5.487  15.324  1.1930 -0.6940  0.2330
 2941TIP3   OH230313   4.743   1.411   2.186  0.2531 -0.5170 -0.5025
 2941TIP3    H130314   4.755   1.324   2.223 -3.2041 -0.5084  1.1310
 2941TIP3    H230315   4.811   1.465   2.227 -0.1076 -1.6539  1.7520
 2942TIP3   OH230316   4.814   4.997   4.145  0.1989 -0.2454  0.2678
 2942TIP3    H130317   4.734   5.001   4.092  1.2156 -1.8580 -1.5205
 2942TIP3    H230318   4.817   4.907   4.177  2.2285 -0.8087 -1.3187
 2943TIP3   OH230319   4.701   2.129   4.339  0.1668  0.3148  0.0117
 2943TIP3    H130320   4.644   2.205   4.333 -0.2765 -0.0933 -1.8127
 2943TIP3    H230321   4.661   2.073   4.406 -1.1567  0.3973 -0.6828
 2944TIP3   OH230322   0.112   1.852   2.839  0.1041 -0.0478 -0.5346
 2944TIP3    H130323   0.027   1.808   2.832 -1.3137  2.4155 -0.1550
 2944TIP3    H230324   0.157   1.832   2.758  0.2402 -3.3548  0.2148
 2945TIP3   OH230325   3.250   2.030  16.612  0.2047 -0.4150  0.5749
 2945TIP3    H130326   3.316   2.092  16.643 -0.2311  0.0190  0.6345
 2945TIP3    H230327   3.172   2.083  16.597  0.5401 -0.5097 -1.7735
 2946TIP3   OH230328   6.543   6.017   0.731 -0.3828  0.5158  0.5182
 2946TIP3    H130329   6.627   6.051   0.699  0.0308 -0.6914  0.2665
 2946TIP3    H230330   6.550   5.922   0.720 -0.8020  0.1616  2.7940
 2947TIP3   OH230331   3.293   1.385   1.556  0.3443 -0.5012  0.3140
 2947TIP3    H130332   3.226   1.320   1.579 -1.4004  1.9288  2.7222
 2947TIP3    H230333   3.367   1.365   1.614 -0.0927 -0.4816  0.8841
 2948TIP3   OH230334   3.019   6.552   1.804  0.5605  0.3717  0.6315
 2948TIP3    H130335   3.009   6.486   1.736  1.1746  0.8013  0.1117
 2948TIP3    H230336   3.056   6.628   1.759  3.0162 -0.0189  1.8210
 2949TIP3   OH230337   4.135   0.594  16.754  0.3740  0.0790 -0.2354
 2949TIP3    H130338   4.134   0.594  16.849  0.8028 -0.5066 -0.2256
 2949TIP3    H230339   4.064   0.653  16.729 -1.7752 -2.0422  0.4416
 2950TIP3   OH230340   3.566   4.738  11.112  0.2786 -0.5043 -0.0388
 2950TIP3    H130341   3.561   4.800  11.039  0.8532  0.4962  0.7529
 2950TIP3    H230342   3.646   4.761  11.159  0.3754 -1.6940  0.4273
 2951TIP3   OH230343   1.845   4.008   5.428 -0.3842 -0.3117 -0.2152
 2951TIP3    H130344   1.920   4.049   5.383  1.0150 -1.3299  1.0971
 2951TIP3    H230345   1.862   3.914   5.421 -2.3874 -0.6544 -1.2252
 2952TIP3   OH230346   3.811   5.881   3.602  0.1962 -0.1220  0.1070
 2952TIP3    H130347   3.855   5.873   3.687 -0.7813 -1.7708  0.5145
 2952TIP3    H230348   3.730   5.928   3.622  1.2294  1.9766 -0.4520
 2953TIP3   OH230349   4.416   2.583  16.103 -0.1692  0.0944  0.0544
 2953TIP3    H130350   4.452   2.610  16.019  0.4156 -0.9001 -0.0249
 2953TIP3    H230351   4.491   2.583  16.163 -0.3836 -0.2507  0.3220
 2954TIP3   OH230352   3.797   5.958   5.657  0.7169 -0.8479  0.0587
 2954TIP3    H130353   3.718   5.926   5.614  0.7171 -0.0366 -0.5798
 2954TIP3    H230354   3.867   5.901   5.625  0.9222  0.4553 -2.0234
 2955TIP3   OH230355   1.908   2.769  15.070 -0.1280 -0.4352 -0.0471
 2955TIP3    H130356   1.850   2.795  15.141 -1.0378  1.9316 -1.5129
 2955TIP3    H230357   1.995   2.794  15.101 -0.4588  0.1850  0.4191
 2956TIP3   OH230358   1.684   4.982   2.480  0.1236  0.1334  0.3744
 2956TIP3    H130359   1.748   4.943   2.420 -0.1863  1.0703 -0.5847
 2956TIP3    H230360   1.728   5.059   2.515 -0.6694  1.1303 -0.7546
 2957TIP3   OH230361   6.696   1.831   6.021 -0.1821 -0.0329 -0.1988
 2957TIP3    H130362   6.685   1.925   6.032  0.4752 -0.0780  1.1303
 2957TIP3    H230363   6.766   1.822   5.956 -0.6176  0.3788 -0.7325
 2958TIP3   OH230364   5.173   6.522  14.266  0.1821 -0.4619 -0.6701
 2958TIP3    H130365   5.218   6.457  14.212  0.4018 -0.1906 -0.8150
 2958TIP3    H230366   5.102   6.473  14.308  2.0202 -1.5203  1.4732
 2959TIP3   OH230367   3.205   2.522   5.726 -0.3998  0.5032  0.3050
 2959TIP3    H130368   3.184   2.436   5.761 -2.7032  0.7168 -0.3424
 2959TIP3    H230369   3.262   2.562   5.792 -1.3918 -0.5614  1.8765
 2960TIP3   OH230370   2.478   4.427   3.465 -0.5677 -0.3939 -0.0150
 2960TIP3    H130371   2.395   4.474   3.469 -0.6893 -0.6686  0.8451
 2960TIP3    H230372   2.512   4.447   3.378 -1.3022  0.1106 -0.1995
 2961TIP3   OH230373   1.009   3.265   4.729  0.1755 -0.1287  0.2102
 2961TIP3    H130374   1.087   3.302   4.771  0.2923  1.1829 -1.0820
 2961TIP3    H230375   1.017   3.171   4.742  1.2860  0.0838  1.2567
 2962TIP3   OH230376   5.764   5.228  14.166  0.0316 -0.5700  0.1681
 2962TIP3    H130377   5.853   5.255  14.190 -1.2082  3.2476  1.2536
 2962TIP3    H230378   5.761   5.238  14.071  0.6663 -0.3668  0.1640
 2963TIP3   OH230379   6.254   0.468   6.427 -0.5732  0.1067 -0.1889
 2963TIP3    H130380   6.299   0.498   6.348 -0.4693  0.7005  0.0892
 2963TIP3    H230381   6.325   0.437   6.484 -0.6380 -0.2095 -0.2790
 2964TIP3   OH230382   5.558   4.181  10.465  0.2532  0.3846 -0.2137
 2964TIP3    H130383   5.530   4.127  10.540 -0.6780 -1.4573 -1.8082
 2964TIP3    H230384   5.622   4.126  10.419  0.3605  1.2441 -1.1117
 2965TIP3   OH230385   4.303   0.586   2.707 -0.1805  0.1854 -0.6704
 2965TIP3    H130386   4.253   0.634   2.773 -0.4646 -1.6974  0.5680
 2965TIP3    H230387   4.245   0.585   2.630 -0.6912  0.7330 -0.3035
 2966TIP3   OH230388   5.510   0.517  11.238  0.4664 -0.3713  0.1258
 2966TIP3    H130389   5.459   0.596  11.219  1.4972  0.0945 -0.9009
 2966TIP3    H230390   5.556   0.499  11.155  1.5476 -1.0553  0.8532
 2967TIP3   OH230391   3.678   4.660   2.058 -0.4002  0.7162 -0.3022
 2967TIP3    H130392   3.704   4.684   1.969 -2.1234  1.4686 -0.6333
 2967TIP3    H230393   3.585   4.682   2.063 -0.3832  0.5002  1.6299
 2968TIP3   OH230394   5.601   0.939  11.506 -0.0080 -0.3843 -0.3543
 2968TIP3    H130395   5.644   1.022  11.526 -0.1573 -0.6070  1.0125
 2968TIP3    H230396   5.652   0.902  11.434  1.5007 -0.1996  0.5801
 2969TIP3   OH230397   1.229   3.734   0.778 -0.0516  0.7415 -0.6815
 2969TIP3    H130398   1.153   3.779   0.816  1.1747  0.7562  1.9433
 2969TIP3    H230399   1.304   3.781   0.813  1.2206 -0.8437 -1.1785
 2970TIP3   OH230400   5.152   0.899   4.857  0.0765  0.6833 -0.0110
 2970TIP3    H130401   5.059   0.878   4.853 -0.0085  1.1102 -0.4153
 2970TIP3    H230402   5.170   0.912   4.950  0.1527 -1.1958  0.2623
 2971TIP3   OH230403   2.148   2.257  10.674  0.4750 -0.6134  0.0717
 2971TIP3    H130404   2.162   2.313  10.751  0.9653 -1.0583  0.3135
 2971TIP3    H230405   2.075   2.200  10.699  0.3330 -0.4503  0.0314
 2972TIP3   OH230406   5.928   5.427   4.652  0.3222 -0.0204  0.1329
 2972TIP3    H130407   5.985   5.414   4.576 -1.4022 -0.7620 -1.0872
 2972TIP3    H230408   5.975   5.384   4.724  0.9583 -1.3112 -1.0010
 2973TIP3   OH230409   1.998   5.932  11.816  0.1427 -0.3240 -0.1674
 2973TIP3    H130410   2.028   5.880  11.741  0.3913 -0.0876 -0.2347
 2973TIP3    H230411   1.968   5.867  11.879 -0.3245 -0.5163 -0.5782
 2974TIP3   OH230412   1.972   4.772   0.885 -0.1906  0.8461 -0.6019
 2974TIP3    H130413   1.949   4.682   0.863  2.2387  0.1426 -0.5266
 2974TIP3    H230414   1.963   4.820   0.802 -0.2492  0.2633 -0.9363
 2975TIP3   OH230415   4.373   0.683  12.590 -0.6639  0.0856  0.8581
 2975TIP3    H130416   4.367   0.776  12.612  0.5689  0.4649 -0.2579
 2975TIP3    H230417   4.369   0.638  12.674 -1.9031  1.1062  1.3706
 2976TIP3   OH230418   6.393   5.140   5.576  0.7495  0.3322 -0.0935
 2976TIP3    H130419   6.461   5.132   5.642 -0.3006  0.6319  1.0595
 2976TIP3    H230420   6.327   5.197   5.616  0.4606  1.1897 -1.7101
 2977TIP3   OH230421   6.842   3.536  13.143 -0.2219  0.1623 -0.0279
 2977TIP3    H130422   6.926   3.570  13.174  0.1426 -0.1756 -0.6142
 2977TIP3    H230423   6.818   3.593  13.070  0.6791 -1.1109 -1.3942
 2978TIP3   OH230424   3.729   2.609   5.209 -0.1379  0.1242  0.4386
 2978TIP3    H130425   3.808   2.644   5.251 -0.0230  0.3872  0.0046
 2978TIP3    H230426   3.761   2.543   5.149 -0.1953  0.6317 -0.1611
 2979TIP3   OH230427   2.224   2.430   2.743 -0.0518  0.1821 -0.1926
 2979TIP3    H130428   2.215   2.398   2.653 -0.7245  0.1928 -0.1329
 2979TIP3    H230429   2.153   2.493   2.754 -0.2957 -0.1976  0.5031
 2980TIP3   OH230430   0.578   2.505   2.423 -0.4066  0.1647 -0.4898
 2980TIP3    H130431   0.490   2.523   2.390 -0.4949  0.4548 -0.1005
 2980TIP3    H230432   0.634   2.568   2.378 -0.7545  1.6658  1.0867
 2981TIP3   OH230433   6.255   2.836   0.337  0.0501  0.4505  0.1982
 2981TIP3    H130434   6.327   2.797   0.287  0.6519  0.1993  1.2383
 2981TIP3    H230435   6.283   2.926   0.353  0.7819 -0.0297  1.7785
 2982TIP3   OH230436   1.932   2.028  12.011  0.3601 -0.0386  0.0378
 2982TIP3    H130437   1.987   2.075  12.074 -0.0548  1.5333 -0.7091
 2982TIP3    H230438   1.991   2.008  11.938  0.7930 -1.6846  0.7913
 2983TIP3   OH230439   1.729   0.324  16.921 -0.3492  0.0770 -0.5177
 2983TIP3    H130440   1.752   0.417  16.915  1.6937 -0.4303 -1.2406
 2983TIP3    H230441   1.738   0.292  16.831  1.2537 -1.2878  0.0861
 2984TIP3   OH230442   4.260   5.298  13.287 -0.8316 -0.2719  0.0070
 2984TIP3    H130443   4.316   5.265  13.217 -0.7930 -0.0420 -0.0725
 2984TIP3    H230444   4.190   5.345  13.242 -0.8430 -0.1799  0.1207
 2985TIP3   OH230445   0.259   1.516   5.141 -0.1065 -0.2209  0.3455
 2985TIP3    H130446   0.232   1.445   5.083 -0.6855  0.7993 -0.6736
 2985TIP3    H230447   0.178   1.566   5.156  0.7939  1.8780 -1.3155
 2986TIP3   OH230448   4.380   1.517  11.961 -0.4265 -0.1649 -0.1568
 2986TIP3    H130449   4.358   1.425  11.979 -1.2507  0.0503 -0.0339
 2986TIP3    H230450   4.337   1.536  11.878  2.6505 -0.8957 -2.0633
 2987TIP3   OH230451   2.432   2.846  11.061 -0.0399  0.4262 -0.3579
 2987TIP3    H130452   2.487   2.894  11.123 -1.4641  1.6026  0.0412
 2987TIP3    H230453   2.392   2.776  11.113  0.5450 -0.0179 -0.4959
 2988TIP3   OH230454   5.306   4.310   1.590 -0.2499  0.1551 -0.0076
 2988TIP3    H130455   5.240   4.379   1.586 -1.2491 -0.8264 -0.9530
 2988TIP3    H230456   5.260   4.235   1.627  0.1757 -0.7078 -1.1725
 2989TIP3   OH230457   5.849   3.000   3.908  0.4663 -0.6243  0.6069
 2989TIP3    H130458   5.911   3.004   3.836  1.1299  1.7444  1.2261
 2989TIP3    H230459   5.891   2.943   3.972  0.3556 -1.8817 -0.4119
 2990TIP3   OH230460   2.261   4.585   0.064 -0.2440 -0.4823 -0.2764
 2990TIP3    H130461   2.323   4.658   0.055  0.0321 -0.6586  0.1257
 2990TIP3    H230462   2.309   4.510   0.029  0.5417 -1.0155  1.7894
 2991TIP3   OH230463   2.599   4.292   2.661 -0.0617  0.3186  0.1458
 2991TIP3    H130464   2.668   4.244   2.706  0.5446  0.4587 -0.6144
 2991TIP3    H230465   2.587   4.371   2.714 -0.4160 -0.2114  0.8816
 2992TIP3   OH230466   0.665   2.013  17.110 -0.6377 -0.3321  0.3215
 2992TIP3    H130467   0.737   2.060  17.069 -1.2078  0.1143 -0.1808
 2992TIP3    H230468   0.654   1.935  17.056 -0.9717 -0.0631  0.0010
 2993TIP3   OH230469   5.696   1.180  12.614 -0.5008  0.0328  0.2764
 2993TIP3    H130470   5.709   1.219  12.527 -1.9708 -0.4254 -0.1722
 2993TIP3    H230471   5.632   1.111  12.600  0.5324 -1.2114  1.4440
 2994TIP3   OH230472   0.827   5.210  14.801 -0.5493  0.1767 -0.0773
 2994TIP3    H130473   0.866   5.146  14.860 -0.6192 -0.0011 -0.2203
 2994TIP3    H230474   0.733   5.201  14.815 -0.5969 -0.3206 -0.6770
 2995TIP3   OH230475   0.230   2.966  16.884  0.0463 -0.2807 -0.6070
 2995TIP3    H130476   0.214   3.041  16.942  1.6653 -0.0301 -0.4508
 2995TIP3    H230477   0.206   2.998  16.797  1.3117  0.6589 -0.6377
 2996TIP3   OH230478   5.622   5.048  11.236 -0.4856 -0.0009  0.3177
 2996TIP3    H130479   5.618   5.142  11.256  2.3570  0.1343  0.6046
 2996TIP3    H230480   5.539   5.013  11.270 -0.4131  1.9501  2.7718
 2997TIP3   OH230481   4.603   1.265   5.050 -0.5245 -0.6043  0.0654
 2997TIP3    H130482   4.631   1.191   4.996  0.2010 -0.7843  0.6747
 2997TIP3    H230483   4.638   1.246   5.137  1.7391  1.5392 -0.2606
 2998TIP3   OH230484   5.206   3.577   3.271  0.2002  0.0295 -0.3407
 2998TIP3    H130485   5.134   3.516   3.255  1.6584 -2.4437  1.8759
 2998TIP3    H230486   5.169   3.641   3.333 -0.8772  0.5518 -1.4687
 2999TIP3   OH230487   3.109   6.830  10.138 -0.5297 -0.2993  0.8121
 2999TIP3    H130488   3.150   6.900  10.187  0.8390 -0.4047 -0.1262
 2999TIP3    H230489   3.051   6.787  10.201  0.2807  0.2955  1.9977
 3000TIP3   OH230490   1.128   1.876  11.819 -0.3521  0.3784  0.3519
 3000TIP3    H130491   1.167   1.922  11.745 -1.2242  1.3853  0.4852
 3000TIP3    H230492   1.038   1.858  11.792 -0.1815 -0.8182  0.5118
 3001TIP3   OH230493   4.948   4.956  14.738  0.4944  0.6955  0.1529
 3001TIP3    H130494   4.982   4.966  14.827  0.5955 -2.4236  0.5523
 3001TIP3    H230495   4.855   4.981  14.746 -0.8917 -4.0602  2.4712
 3002TIP3   OH230496   0.200   5.390  15.798  0.3476  0.2422  0.2840
 3002TIP3    H130497   0.163   5.451  15.734  1.2670 -0.4138 -0.8940
 3002TIP3    H230498   0.223   5.445  15.872  1.7853  1.4679 -1.0129
 3003TIP3   OH230499   5.966   5.950  11.848 -0.0538 -0.0624 -0.1368
 3003TIP3    H130500   5.885   5.953  11.796 -0.1629  0.7711  0.0709
 3003TIP3    H230501   6.033   5.924  11.785 -0.5324 -1.0977 -0.2433
 3004TIP3   OH230502   2.473   1.350  15.753 -0.0230  0.3574  0.2891
 3004TIP3    H130503   2.451   1.257  15.765 -0.7404  0.6753  1.7091
 3004TIP3    H230504   2.474   1.363  15.659  1.7125 -1.4728 -0.0225
 3005TIP3   OH230505   0.153   4.517   5.491 -0.1935 -0.2488 -0.1043
 3005TIP3    H130506   0.119   4.544   5.406 -1.1160  1.4503  0.7528
 3005TIP3    H230507   0.138   4.592   5.548  1.5446 -0.8672  1.2771
 3006TIP3   OH230508   1.099   5.803   4.497 -0.2461 -0.9780 -0.0382
 3006TIP3    H130509   1.154   5.877   4.469 -1.0464  0.3805  1.8019
 3006TIP3    H230510   1.078   5.822   4.588 -1.9325 -2.6100 -0.0342
 3007TIP3   OH230511   4.408   6.505   1.450 -0.1463 -0.0296  0.0012
 3007TIP3    H130512   4.474   6.435   1.453 -0.0493  0.0138 -0.8206
 3007TIP3    H230513   4.387   6.522   1.542 -0.1898 -1.1537  0.2164
 3008TIP3   OH230514   3.613   1.382  12.957  0.1023  0.2915  0.2334
 3008TIP3    H130515   3.661   1.309  12.917 -1.1643 -0.9456  0.8774
 3008TIP3    H230516   3.548   1.339  13.014 -1.4718  1.9055 -0.2747
 3009TIP3   OH230517   5.062   2.436   4.905 -0.2092 -0.1625  0.1012
 3009TIP3    H130518   4.973   2.463   4.930  0.1362  1.6213 -0.4562
 3009TIP3    H230519   5.071   2.463   4.814  1.1401  0.3543  0.3637
 3010TIP3   OH230520   6.613   0.161   0.778  0.5028 -0.4948 -0.1683
 3010TIP3    H130521   6.543   0.121   0.727 -0.7844  1.9902 -0.4893
 3010TIP3    H230522   6.582   0.160   0.868  0.7389 -0.7166 -0.0862
 3011TIP3   OH230523   3.566   3.059  11.011  0.2893 -0.5850 -0.0754
 3011TIP3    H130524   3.556   3.119  10.938  0.5507 -0.9774 -0.4372
 3011TIP3    H230525   3.649   3.082  11.051 -0.0422 -0.1069  0.3454
 3012TIP3   OH230526   0.489   6.800  13.341 -0.1787 -0.3385 -0.0990
 3012TIP3    H130527   0.488   6.715  13.384 -1.9377 -1.3903 -2.0159
 3012TIP3    H230528   0.482   6.780  13.247 -0.8812  1.9110 -0.6114
 3013TIP3   OH230529   3.941   4.883   1.720 -0.1471  0.3417  0.0988
 3013TIP3    H130530   3.913   4.862   1.809  2.1127  0.3498  0.8681
 3013TIP3    H230531   3.894   4.963   1.699 -0.5091  0.4953  1.3927
 3014TIP3   OH230532   4.228   4.144  12.225 -0.0977 -0.5856 -0.3537
 3014TIP3    H130533   4.225   4.131  12.319  1.0730  1.9582  0.1002
 3014TIP3    H230534   4.137   4.133  12.196 -0.3166 -2.3730  0.8645
 3015TIP3   OH230535   6.303   6.289  12.313  0.0037 -0.2686  0.2613
 3015TIP3    H130536   6.361   6.302  12.238  1.4772 -0.0082  1.4074
 3015TIP3    H230537   6.285   6.377  12.345 -4.8332  0.2158 -2.6956
 3016TIP3   OH230538   3.938   1.787   1.987  0.1623 -0.2331 -0.6070
 3016TIP3    H130539   3.904   1.757   1.903  0.7149  1.3845 -1.4546
 3016TIP3    H230540   3.863   1.831   2.029  0.1426 -0.1942 -0.6834
 3017TIP3   OH230541   6.179   4.383   1.185 -0.0441  0.1726 -0.1020
 3017TIP3    H130542   6.089   4.353   1.198  0.0068  1.0708  3.1162
 3017TIP3    H230543   6.177   4.476   1.205  1.6440  0.1212  0.5018
 3018TIP3   OH230544   3.016   0.767   1.765  0.2179  0.5021 -0.6806
 3018TIP3    H130545   2.991   0.852   1.729 -1.7524 -0.3829 -1.5644
 3018TIP3    H230546   3.006   0.706   1.692  0.0839 -0.7162  0.3118
 3019TIP3   OH230547   2.787   3.621  11.811  0.1823 -0.0109  0.0246
 3019TIP3    H130548   2.841   3.544  11.791 -0.6476 -0.6759  0.3166
 3019TIP3    H230549   2.777   3.665  11.727  0.7051 -0.1893 -0.1364
 3020TIP3   OH230550   1.340   0.257  13.560 -0.1676 -0.0943 -0.2196
 3020TIP3    H130551   1.403   0.247  13.631 -0.2228 -0.1674 -0.1806
 3020TIP3    H230552   1.255   0.238  13.600 -0.1809 -0.3078 -0.3442
 3021TIP3   OH230553   4.742   0.484   6.584  0.0903 -0.1478 -0.6497
 3021TIP3    H130554   4.718   0.400   6.545 -0.4428  0.4868 -1.7408
 3021TIP3    H230555   4.673   0.502   6.647 -0.1856 -0.1878 -0.9385
 3022TIP3   OH230556   5.639   0.508  13.220  0.0896 -0.0743  0.7285
 3022TIP3    H130557   5.588   0.471  13.292 -2.0386  1.2165 -0.0142
 3022TIP3    H230558   5.672   0.591  13.254  1.0320 -0.5198  0.9308
 3023TIP3   OH230559   3.474   0.106  11.229 -0.0195 -0.5981 -0.3729
 3023TIP3    H130560   3.441   0.016  11.239  0.7539 -1.0764 -1.8134
 3023TIP3    H230561   3.569   0.097  11.232  0.1822 -0.2504 -3.1547
 3024TIP3   OH230562   5.069   1.329   6.333 -0.3042  0.1104 -0.3119
 3024TIP3    H130563   5.143   1.367   6.379 -0.5280  1.6992 -1.1945
 3024TIP3    H230564   5.108   1.265   6.273  0.2424  0.1284  0.0234
 3025TIP3   OH230565   6.767   4.535   2.459 -0.1370 -0.1653  0.7461
 3025TIP3    H130566   6.734   4.603   2.517 -0.4115 -0.3251  0.7789
 3025TIP3    H230567   6.714   4.542   2.380  0.7639  0.5751  0.1815
 3026TIP3   OH230568   4.664   0.127  14.461  0.4193  0.4923 -0.4829
 3026TIP3    H130569   4.643   0.037  14.488  0.3199  0.0382 -1.9711
 3026TIP3    H230570   4.757   0.136  14.481  0.4933 -0.0378 -0.5599
 3027TIP3   OH230571   4.789   6.490   1.705  0.9603  0.2772  0.1558
 3027TIP3    H130572   4.755   6.555   1.644  1.2954  4.3159  3.7436
 3027TIP3    H230573   4.721   6.424   1.711 -0.9357  1.9802 -1.4262
 3028TIP3   OH230574   2.742   2.503   0.504  0.1213 -0.0558 -0.2418
 3028TIP3    H130575   2.828   2.523   0.466  0.6276 -1.1356  0.2635
 3028TIP3    H230576   2.680   2.547   0.447  1.0258  1.1207 -0.3694
 3029TIP3   OH230577   0.796   1.709   5.594 -0.0781  0.4922 -0.3131
 3029TIP3    H130578   0.755   1.671   5.672 -0.7542 -0.5637 -1.1607
 3029TIP3    H230579   0.862   1.769   5.629  1.1271 -1.5412  1.0925
 3030TIP3   OH230580   0.991   2.392   5.933  0.3509 -0.0008  0.0962
 3030TIP3    H130581   1.032   2.353   5.856  0.7196 -1.1222  0.8256
 3030TIP3    H230582   1.041   2.473   5.949 -0.9884  1.3151 -1.9597
 3031TIP3   OH230583   5.120   6.547  15.734  0.5670  0.0833 -0.3795
 3031TIP3    H130584   5.073   6.546  15.650  2.3673  0.4140 -1.4422
 3031TIP3    H230585   5.121   6.640  15.758  0.5551  0.0561 -0.2762
 3032TIP3   OH230586   3.399   5.908  12.665  0.1659 -0.6290  0.0428
 3032TIP3    H130587   3.478   5.963  12.663  0.4308 -1.0227 -0.5268
 3032TIP3    H230588   3.385   5.882  12.574 -0.3257 -0.9866  0.2146
 3033TIP3   OH230589   6.827   4.903   3.465 -0.3653 -0.3468  0.2370
 3033TIP3    H130590   6.734   4.890   3.482 -0.2354 -1.5944  0.0855
 3033TIP3    H230591   6.853   4.828   3.411  0.5805  0.3302 -0.2829
 3034TIP3   OH230592   3.782   2.903   3.108  0.0930 -0.0753  0.4322
 3034TIP3    H130593   3.700   2.862   3.080  0.8209 -1.7807  0.6873
 3034TIP3    H230594   3.760   2.996   3.118 -1.6679 -0.4099  0.0076
 3035TIP3   OH230595   6.507   2.463   5.592 -0.6202  0.3238  0.4718
 3035TIP3    H130596   6.539   2.374   5.603 -2.8747 -0.3745  1.9143
 3035TIP3    H230597   6.420   2.453   5.552 -0.7295  1.9054  0.2482
 3036TIP3   OH230598   6.218   0.562   3.148 -0.7585  0.0658  0.2940
 3036TIP3    H130599   6.156   0.631   3.172 -0.9922 -0.3510  0.9121
 3036TIP3    H230600   6.170   0.481   3.163 -0.6433 -0.2346 -0.8642
 3037TIP3   OH230601   4.994   0.045  13.443  0.6114 -0.0638 -0.2270
 3037TIP3    H130602   5.039  -0.006  13.510  0.1408 -0.4466 -0.1934
 3037TIP3    H230603   5.046   0.125  13.434 -0.4857  1.0342  2.1981
 3038TIP3   OH230604   6.677   0.873  13.687  0.9679  0.0073 -0.5957
 3038TIP3    H130605   6.592   0.831  13.704  2.1683 -2.9450 -1.1906
 3038TIP3    H230606   6.741   0.810  13.721  3.0225  0.1894 -3.7766
 3039TIP3   OH230607   6.013   3.318  11.905 -0.4472  0.0754  0.0710
 3039TIP3    H130608   5.950   3.266  11.955  0.0252 -0.6420 -0.0749
 3039TIP3    H230609   5.993   3.298  11.813 -0.6765  0.6454 -0.0129
 3040TIP3   OH230610   6.830   1.815  10.345 -0.0711 -0.0884 -0.3708
 3040TIP3    H130611   6.818   1.773  10.430 -0.6756 -0.8902 -0.8377
 3040TIP3    H230612   6.901   1.766  10.304  0.8744  0.8951  0.0236
 3041TIP3   OH230613   5.668   1.461   3.196 -0.8729  0.0502 -0.2872
 3041TIP3    H130614   5.753   1.491   3.162 -0.7401 -0.6844 -0.6235
 3041TIP3    H230615   5.667   1.368   3.177  0.6456 -1.2667  4.4734
 3042TIP3   OH230616   2.386   4.310  12.629 -0.7932 -0.1567  0.3085
 3042TIP3    H130617   2.457   4.347  12.576 -0.1112 -3.8057 -1.6931
 3042TIP3    H230618   2.306   4.334  12.582 -0.4855 -0.1642 -0.2289
 3043TIP3   OH230619   4.814   1.035   1.840  0.2752  0.2020 -0.1386
 3043TIP3    H130620   4.818   1.034   1.935  1.6296  0.5026 -0.1748
 3043TIP3    H230621   4.750   1.104   1.820 -0.5737 -0.3651  0.5415
 3044TIP3   OH230622   6.285   2.985  15.369  0.0566  0.0121 -0.1885
 3044TIP3    H130623   6.356   2.990  15.305 -0.5258 -0.2291 -0.8760
 3044TIP3    H230624   6.308   2.911  15.425 -1.0720 -2.0491 -2.2575
 3045TIP3   OH230625   4.155   6.154   2.193 -0.2672 -0.6211  0.1017
 3045TIP3    H130626   4.242   6.130   2.161 -0.2357 -0.2558 -0.0844
 3045TIP3    H230627   4.096   6.131   2.122 -0.3559 -1.1283  0.3368
 3046TIP3   OH230628   4.167   5.269   4.883  0.2295  0.5917 -0.2263
 3046TIP3    H130629   4.125   5.325   4.817 -1.6168 -2.5115 -1.9015
 3046TIP3    H230630   4.244   5.234   4.838  0.3207  0.3474  0.1233
 3047TIP3   OH230631   2.772   6.795  11.618 -0.4597  0.4143 -0.2952
 3047TIP3    H130632   2.747   6.753  11.701  0.0291 -0.4635 -0.5819
 3047TIP3    H230633   2.817   6.875  11.645 -1.3591  0.7517  0.2652
 3048TIP3   OH230634   4.166   4.665   4.462 -0.6280 -0.1073  0.5628
 3048TIP3    H130635   4.198   4.754   4.452  0.2208 -0.5465 -1.2328
 3048TIP3    H230636   4.084   4.663   4.412 -1.8620  0.1962  2.4789
 3049TIP3   OH230637   3.029   5.657  16.052  0.9521 -0.3679 -0.3564
 3049TIP3    H130638   2.993   5.745  16.067 -0.3424 -0.9196 -0.1620
 3049TIP3    H230639   3.002   5.607  16.129  0.7857 -1.2092 -0.9540
 3050TIP3   OH230640   6.224   2.047  14.156 -0.0167  0.3103  0.1959
 3050TIP3    H130641   6.212   2.038  14.061  0.5543 -0.2887  0.1777
 3050TIP3    H230642   6.179   2.129  14.178 -2.6094 -0.9283 -0.1264
 3051TIP3   OH230643   4.045   4.423   5.154  0.0689  0.3400  0.8245
 3051TIP3    H130644   3.977   4.460   5.210 -0.8936 -0.4483  0.2140
 3051TIP3    H230645   4.018   4.332   5.140  0.3929  0.4457 -0.7135
 3052TIP3   OH230646   0.656   6.676   1.110  0.2902  0.2046 -0.1034
 3052TIP3    H130647   0.594   6.745   1.085 -1.9737 -1.5018  0.4205
 3052TIP3    H230648   0.629   6.600   1.058  0.5653 -1.1802  1.6665
 3053TIP3   OH230649   5.639   6.715   2.120 -0.3438  0.2964 -0.1362
 3053TIP3    H130650   5.580   6.651   2.161 -0.3733 -0.2037 -0.9270
 3053TIP3    H230651   5.716   6.663   2.095 -0.4156  0.5473 -0.8905
 3054TIP3   OH230652   5.503   5.502   4.164 -0.0688  0.0846  0.3448
 3054TIP3    H130653   5.586   5.527   4.204  0.3981 -0.1307 -0.4714
 3054TIP3    H230654   5.486   5.571   4.100 -0.9326  0.5564  1.0565
 3055TIP3   OH230655   5.613   3.549  12.725 -0.0022 -0.3539  0.1491
 3055TIP3    H130656   5.664   3.630  12.727  0.1202 -0.4386  0.3554
 3055TIP3    H230657   5.621   3.519  12.634  1.8845 -1.3787  0.6084
 3056TIP3   OH230658   1.999   6.027   3.278 -0.4579  0.5336 -0.0007
 3056TIP3    H130659   1.940   6.011   3.204  1.2792 -0.5357 -1.2303
 3056TIP3    H230660   2.083   5.991   3.250  0.3110  0.2153  2.4674
 3057TIP3   OH230661   4.488   6.073  14.332 -0.3258  0.2687  0.0683
 3057TIP3    H130662   4.564   6.075  14.273 -0.2415  0.4157  0.1816
 3057TIP3    H230663   4.431   6.005  14.294 -0.6605  0.9412 -0.6656
 3058TIP3   OH230664   0.952   1.271   3.583 -0.3022  0.1892  0.4920
 3058TIP3    H130665   1.028   1.253   3.527  0.9245 -0.0239  2.1693
 3058TIP3    H230666   0.939   1.365   3.576 -0.0266  0.1995  0.0307
 3059TIP3   OH230667   2.686   4.859   5.708  0.4791 -0.3010 -0.1331
 3059TIP3    H130668   2.729   4.926   5.654  0.0905 -0.7083 -0.9607
 3059TIP3    H230669   2.757   4.799   5.731  0.6244 -0.2096 -0.3343
 3060TIP3   OH230670   5.668   0.605  14.950 -0.4207 -0.0820 -0.4661
 3060TIP3    H130671   5.588   0.572  14.908 -0.3099  0.9618 -1.5580
 3060TIP3    H230672   5.648   0.695  14.975 -0.3210 -0.5352  1.3763
 3061TIP3   OH230673   1.108   6.790   0.313 -0.0546 -0.3221 -0.0748
 3061TIP3    H130674   1.156   6.747   0.242  0.5199 -1.2506  0.8554
 3061TIP3    H230675   1.122   6.735   0.389 -2.3982 -0.5034  0.3248
 3062TIP3   OH230676   2.933   5.539   3.810  0.1368  0.2839  0.0899
 3062TIP3    H130677   2.984   5.493   3.743 -0.9060  2.7777 -2.6870
 3062TIP3    H230678   2.846   5.500   3.805  0.3824 -0.4122  1.0056
 3063TIP3   OH230679   5.249   0.401   1.836  0.3281  0.0835 -0.1314
 3063TIP3    H130680   5.290   0.486   1.850 -0.6656  0.6903 -0.8376
 3063TIP3    H230681   5.287   0.370   1.753  0.0474  0.2309 -0.3157
 3064TIP3   OH230682   2.203   5.613   3.692 -0.2514 -0.6434 -0.1417
 3064TIP3    H130683   2.166   5.692   3.653 -1.2918 -2.0089 -2.1192
 3064TIP3    H230684   2.186   5.621   3.786 -2.3744  0.4614 -0.5661
 3065TIP3   OH230685   4.160   5.240   3.978 -0.3857  0.3895  0.0887
 3065TIP3    H130686   4.071   5.264   4.004  0.3198  0.9650  2.1479
 3065TIP3    H230687   4.195   5.193   4.053  1.1917  0.5473 -0.5125
 3066TIP3   OH230688   0.790   3.299   1.302  0.0160  0.6364  0.0778
 3066TIP3    H130689   0.868   3.274   1.252  0.0741  0.2574  0.3485
 3066TIP3    H230690   0.760   3.380   1.261  2.0409  2.2377  1.5827
 3067TIP3   OH230691   4.653   5.525   4.634 -0.5760 -0.5024 -0.5609
 3067TIP3    H130692   4.727   5.463   4.629 -1.5834 -1.8904  0.7339
 3067TIP3    H230693   4.614   5.522   4.547  0.2683 -0.5437 -0.9560
 3068TIP3   OH230694   1.783   1.120  17.016  0.2958  0.2033 -0.4023
 3068TIP3    H130695   1.764   1.049  16.955 -0.9833 -0.0148  0.2242
 3068TIP3    H230696   1.734   1.099  17.095  2.0730  0.3864  0.8180
 3069TIP3   OH230697   6.691   4.938   0.863  0.7929  0.0733  0.1091
 3069TIP3    H130698   6.694   4.849   0.900 -0.3278  0.3240  0.8702
 3069TIP3    H230699   6.604   4.945   0.824  1.0693  0.6661 -0.4283
 3070TIP3   OH230700   0.818   2.788   4.141 -0.5629  0.1294 -0.3265
 3070TIP3    H130701   0.764   2.780   4.220 -0.3081 -0.5676 -0.2161
 3070TIP3    H230702   0.868   2.869   4.155 -0.1992 -0.2151  0.4343
 3071TIP3   OH230703   4.648   6.712   5.835  0.6170 -0.3887  0.4661
 3071TIP3    H130704   4.592   6.779   5.876  0.0490 -0.5529 -0.0269
 3071TIP3    H230705   4.593   6.674   5.767  1.4383 -0.3433 -0.2355
 3072TIP3   OH230706   0.186   3.810  11.430  0.0362  0.3030 -0.1979
 3072TIP3    H130707   0.094   3.785  11.421  0.1512 -1.1098  1.7257
 3072TIP3    H230708   0.234   3.727  11.431  1.0617  0.8607  1.0331
 3073TIP3   OH230709   5.815   1.911  14.550 -0.3198 -0.3415 -0.0323
 3073TIP3    H130710   5.841   1.839  14.493  0.5745  0.3241 -0.4977
 3073TIP3    H230711   5.839   1.990  14.501 -0.3653  0.2554  0.8798
 3074TIP3   OH230712   6.723   1.007   1.922 -0.0248 -0.4359 -0.1453
 3074TIP3    H130713   6.793   0.941   1.920  1.2994  0.8942  0.3894
 3074TIP3    H230714   6.723   1.039   2.012  0.2207  1.1564 -0.6806
 3075TIP3   OH230715   5.511   5.922  15.334  0.0142 -0.5192 -0.4027
 3075TIP3    H130716   5.480   6.009  15.310  0.8143 -0.4631 -1.2888
 3075TIP3    H230717   5.484   5.865  15.262 -0.8155 -1.0881  0.3366
 3076TIP3   OH230718   2.090   0.178   2.612  0.4562  0.0587  0.0134
 3076TIP3    H130719   2.104   0.179   2.517 -1.0298  1.4034 -0.2401
 3076TIP3    H230720   2.143   0.251   2.644  1.1323 -0.5305  0.2826
 3077TIP3   OH230721   5.780   5.561   4.242 -0.9775 -0.3341  0.2089
 3077TIP3    H130722   5.788   5.479   4.290  0.1068  0.0977  0.8113
 3077TIP3    H230723   5.859   5.564   4.187 -2.3058 -0.9400 -1.8380
 3078TIP3   OH230724   2.673   2.326  12.982  0.0288  0.3680  0.8323
 3078TIP3    H130725   2.686   2.233  13.002  1.7063 -0.1976 -2.2711
 3078TIP3    H230726   2.596   2.351  13.034 -2.1706 -3.4517 -0.1724
 3079TIP3   OH230727   5.622   6.544  13.562 -0.3459  0.1562 -0.1836
 3079TIP3    H130728   5.585   6.620  13.606 -0.4984 -0.8107  1.4198
 3079TIP3    H230729   5.550   6.480  13.559 -0.5726  0.4113 -2.5175
 3080TIP3   OH230730   3.883   1.696   4.577 -0.3249  0.3337 -0.2749
 3080TIP3    H130731   3.804   1.669   4.530 -0.0572  0.8797 -1.0431
 3080TIP3    H230732   3.949   1.708   4.509  0.8872 -1.6195  0.4821
 3081TIP3   OH230733   3.515   1.171   5.791  0.2807  0.5287 -0.0074
 3081TIP3    H130734   3.475   1.229   5.857 -1.2936  0.5811 -0.9479
 3081TIP3    H230735   3.577   1.227   5.744  1.1064  0.6016  1.1273
 3082TIP3   OH230736   4.865   2.513   5.513 -0.0973 -0.4346  0.3986
 3082TIP3    H130737   4.882   2.446   5.447 -0.6081  0.2329 -0.4299
 3082TIP3    H230738   4.921   2.489   5.587  1.1344 -0.7012 -0.6012
 3083TIP3   OH230739   1.655   3.909  16.994 -0.3083 -0.1439 -0.0170
 3083TIP3    H130740   1.650   3.970  17.067 -2.8739 -1.3893  0.9538
 3083TIP3    H230741   1.600   3.947  16.926 -0.8560 -0.7194  0.0943
 3084TIP3   OH230742   5.923   2.835  14.453  0.3902  0.2398 -0.2819
 3084TIP3    H130743   5.841   2.798  14.485  1.7858 -2.0648  0.9227
 3084TIP3    H230744   5.955   2.771  14.389  2.2236 -0.0022  0.8126
 3085TIP3   OH230745   1.954   5.354   3.348  0.6684 -0.3793 -0.2925
 3085TIP3    H130746   1.981   5.417   3.280  0.1172  0.2224  0.0281
 3085TIP3    H230747   2.008   5.377   3.424  2.4259 -2.0743 -0.9633
 3086TIP3   OH230748   5.423   3.863  10.921  0.4607 -0.2918 -0.1381
 3086TIP3    H130749   5.343   3.885  10.873 -0.7602 -1.4631  1.2774
 3086TIP3    H230750   5.405   3.890  11.011  1.7380 -0.4263  0.1807
 3087TIP3   OH230751   5.726   5.327  16.365  0.1901  0.1212 -1.2189
 3087TIP3    H130752   5.812   5.343  16.327  0.8958  1.3747  0.7303
 3087TIP3    H230753   5.668   5.317  16.290  1.7320  0.9983 -2.5955
 3088TIP3   OH230754   3.321   6.139   5.571 -0.3012 -0.7760 -0.0296
 3088TIP3    H130755   3.261   6.139   5.646 -0.6348  3.2004 -0.0516
 3088TIP3    H230756   3.406   6.116   5.609 -0.1577  2.4981  2.1007
 3089TIP3   OH230757   3.946   1.854  12.427  0.7054  0.3079  0.1671
 3089TIP3    H130758   3.870   1.897  12.466  0.4201 -0.4125  0.4156
 3089TIP3    H230759   3.942   1.764  12.459  1.5924  0.2275  0.0816
 3090TIP3   OH230760   4.850   3.993   3.585  0.3898  0.2500  0.3719
 3090TIP3    H130761   4.893   4.041   3.515 -0.5349 -1.0680 -1.1576
 3090TIP3    H230762   4.836   3.905   3.550  0.8765 -0.8130  2.6103
 3091TIP3   OH230763   0.959   0.191  15.863 -0.0512  0.3465 -0.2871
 3091TIP3    H130764   0.952   0.270  15.809  0.3308  0.8788  0.4377
 3091TIP3    H230765   1.017   0.215  15.935 -0.7801 -0.2698  0.5306
 3092TIP3   OH230766   5.881   6.027  14.579  0.4270  0.0824  1.0967
 3092TIP3    H130767   5.970   6.026  14.614  0.4780  0.8629  1.0116
 3092TIP3    H230768   5.837   6.097  14.628  1.0563  2.6582 -1.7011
 3093TIP3   OH230769   1.952   3.328  12.521  0.1373 -0.3849  0.2753
 3093TIP3    H130770   2.024   3.360  12.575 -1.3555 -1.4678  3.1823
 3093TIP3    H230771   1.885   3.396  12.528 -0.2949 -0.8037  0.3372
 3094TIP3   OH230772   5.153   3.690  15.861 -0.0724  0.0613 -0.1019
 3094TIP3    H130773   5.197   3.606  15.849 -1.0458 -0.2225 -2.0119
 3094TIP3    H230774   5.064   3.675  15.830 -0.8001  1.3353  1.2364
 3095TIP3   OH230775   3.692   6.269  16.991  0.0344  0.4065 -0.2600
 3095TIP3    H130776   3.707   6.241  17.081  1.8305  2.0499  0.0314
 3095TIP3    H230777   3.643   6.351  17.000  0.0540  0.4775 -0.7820
 3096TIP3   OH230778   0.434   5.219   1.402 -0.2699  0.2683 -0.6254
 3096TIP3    H130779   0.487   5.225   1.323  2.6919 -0.9172  1.1125
 3096TIP3    H230780   0.453   5.300   1.449  0.4751 -0.3910  0.2441
 3097TIP3   OH230781   2.251   1.084  16.640 -0.1199  0.1707  0.0823
 3097TIP3    H130782   2.336   1.107  16.678  0.2313  0.8576 -1.0547
 3097TIP3    H230783   2.211   1.169  16.618 -1.9860 -0.0217  2.3578
 3098TIP3   OH230784   4.805   0.732   2.672 -0.0597  0.1707  0.0138
 3098TIP3    H130785   4.894   0.760   2.652  0.1294  0.6365  1.3927
 3098TIP3    H230786   4.770   0.800   2.729 -1.0646 -0.3425  0.0446
 3099TIP3   OH230787   3.658   0.432  13.952 -0.2115  0.0181 -0.4813
 3099TIP3    H130788   3.690   0.390  13.872  1.4194 -0.1940  0.2417
 3099TIP3    H230789   3.571   0.395  13.966  0.1087 -1.0927 -1.3304
 3100TIP3   OH230790   1.032   0.700  13.313 -0.5934 -0.2008  0.0575
 3100TIP3    H130791   0.963   0.749  13.269  0.0356  1.8405  1.2173
 3100TIP3    H230792   1.001   0.690  13.403  0.0096 -0.5173  0.2335
 3101TIP3   OH230793   2.669   5.428   3.757  0.3190  0.2009 -0.0819
 3101TIP3    H130794   2.674   5.333   3.742 -0.0464  0.0183  0.9053
 3101TIP3    H230795   2.611   5.460   3.688  0.8665 -0.2069 -0.7494
 3102TIP3   OH230796   6.345   4.075   0.243  0.2622  0.5003 -0.3380
 3102TIP3    H130797   6.408   4.115   0.302 -0.6672 -0.3921  1.3254
 3102TIP3    H230798   6.388   3.995   0.212 -0.1706 -0.3534  1.1579
 3103TIP3   OH230799   0.329   0.709   2.437 -0.3160 -0.2261  0.1061
 3103TIP3    H130800   0.282   0.626   2.444 -0.4925 -0.0592  1.0321
 3103TIP3    H230801   0.339   0.739   2.527  1.8722 -0.4297 -0.0056
 3104TIP3   OH230802   1.866   2.449  13.523 -0.1481  0.2926  0.3250
 3104TIP3    H130803   1.899   2.501  13.596 -0.1683  0.8941 -0.0908
 3104TIP3    H230804   1.888   2.500  13.445  0.4575 -0.6508 -0.1389
 3105TIP3   OH230805   4.670   3.740   0.156 -0.2702 -0.0646  0.0645
 3105TIP3    H130806   4.602   3.723   0.091 -1.9570 -2.7378  2.2888
 3105TIP3    H230807   4.623   3.778   0.231  0.7291 -1.2724  1.3720
 3106TIP3   OH230808   6.239   3.494   1.922  0.6305  0.1203 -0.2879
 3106TIP3    H130809   6.193   3.576   1.903  1.0001  0.0438 -1.6028
 3106TIP3    H230810   6.271   3.464   1.837 -0.4776 -2.0039 -0.0184
 3107TIP3   OH230811   4.206   1.941  14.057  0.0168 -0.2053  0.2608
 3107TIP3    H130812   4.208   2.034  14.081  0.7778 -0.7781  2.6704
 3107TIP3    H230813   4.282   1.903  14.101 -1.6891 -2.4200  1.4941
 3108TIP3   OH230814   2.971   0.830   3.438  0.2404 -0.4859  0.2215
 3108TIP3    H130815   2.956   0.784   3.520  0.9427 -0.6229  0.2802
 3108TIP3    H230816   2.885   0.861   3.411  0.0331 -0.2819  1.1033
 3109TIP3   OH230817   3.602   1.311  16.491  0.1180 -0.1495  0.0177
 3109TIP3    H130818   3.526   1.370  16.485  2.2352  2.8519  0.2589
 3109TIP3    H230819   3.653   1.330  16.413  0.5136 -2.3591 -0.3120
 3110TIP3   OH230820   5.200   6.822   3.077 -0.2292  0.1763  0.3100
 3110TIP3    H130821   5.204   6.915   3.096  0.7520  0.8671 -2.8132
 3110TIP3    H230822   5.107   6.801   3.080 -0.5070  1.3699  0.4801
 3111TIP3   OH230823   4.743   2.188  14.365  0.1729 -0.3410 -0.0535
 3111TIP3    H130824   4.789   2.120  14.317 -1.6636 -1.3153 -0.5515
 3111TIP3    H230825   4.801   2.211  14.437  2.0613 -0.3699 -1.5157
 3112TIP3   OH230826   5.040   6.069  17.081 -0.3240  0.2491 -0.1830
 3112TIP3    H130827   5.012   6.147  17.034  0.4830  0.5943 -0.1119
 3112TIP3    H230828   4.966   6.009  17.075 -0.9888  1.0513 -0.1618
 3113TIP3   OH230829   2.695   2.844   3.224  0.4545  0.5191  0.0769
 3113TIP3    H130830   2.648   2.766   3.254  0.5098 -0.0607 -1.2896
 3113TIP3    H230831   2.673   2.911   3.288 -2.0506  0.2145 -0.3754
 3114TIP3   OH230832   2.279   0.895   1.059 -0.0680 -0.4854  0.1981
 3114TIP3    H130833   2.184   0.882   1.054 -0.1332 -0.5622  1.3311
 3114TIP3    H230834   2.311   0.872   0.972 -1.4010  2.4263 -1.1868
 3115TIP3   OH230835   6.311   6.183  13.438  0.1540 -0.3276 -0.3187
 3115TIP3    H130836   6.256   6.225  13.373 -0.2310  1.2989  0.9926
 3115TIP3    H230837   6.380   6.246  13.456  0.5467 -0.9633  0.4868
 3116TIP3   OH230838   3.862   5.231   3.070 -0.2067  0.1108  0.4169
 3116TIP3    H130839   3.864   5.184   2.986 -1.1515 -1.3732  1.1913
 3116TIP3    H230840   3.817   5.313   3.050  0.4722  0.2355 -0.7194
 3117TIP3   OH230841   0.703   3.742   3.824 -0.0584 -0.0146  0.2957
 3117TIP3    H130842   0.639   3.785   3.881  0.3557  0.9046  0.0866
 3117TIP3    H230843   0.751   3.683   3.882  2.1827  2.8211  1.5982
 3118TIP3   OH230844   5.552   0.833  13.223  0.3634 -0.1667 -0.5904
 3118TIP3    H130845   5.488   0.887  13.269  0.7407 -0.1176 -0.1114
 3118TIP3    H230846   5.510   0.812  13.140  1.2093  3.1746 -2.0663
 3119TIP3   OH230847   3.201   0.337   0.477  0.8063  0.5188 -0.2120
 3119TIP3    H130848   3.218   0.251   0.516 -0.1269 -0.1221 -1.1561
 3119TIP3    H230849   3.257   0.339   0.399 -0.1611  0.1947 -0.9311
 3120TIP3   OH230850   5.091   4.603  13.331  0.3587 -0.1631 -0.2522
 3120TIP3    H130851   5.011   4.553  13.313  1.0207 -1.2869 -0.1511
 3120TIP3    H230852   5.059   4.689  13.359 -0.8245 -0.6575 -0.0017
 3121TIP3   OH230853   4.379   2.087  16.612 -0.0426 -0.1871  0.8660
 3121TIP3    H130854   4.297   2.043  16.634 -0.8682 -0.0143 -1.5215
 3121TIP3    H230855   4.438   2.017  16.586  0.5430 -0.2959  2.4148
 3122TIP3   OH230856   4.657   0.021  12.815  0.0786 -0.1692  0.4048
 3122TIP3    H130857   4.604   0.090  12.777  1.8088  0.6918 -0.5929
 3122TIP3    H230858   4.634   0.021  12.908 -2.0238 -0.2433 -0.0705
 3123TIP3   OH230859   2.650   0.317   1.325  0.0362 -1.2127  0.7136
 3123TIP3    H130860   2.580   0.254   1.308 -0.3787 -0.3543 -1.0416
 3123TIP3    H230861   2.605   0.394   1.361  0.0995 -0.8275  0.0014
 3124TIP3   OH230862   1.825   5.623  13.589 -0.4251 -0.3777  0.6157
 3124TIP3    H130863   1.822   5.573  13.508 -1.0888  2.8730 -1.5182
 3124TIP3    H230864   1.899   5.682  13.579 -2.2263  2.1328  0.9380
 3125TIP3   OH230865   6.452   0.090   1.504  0.0586  0.6381  0.2632
 3125TIP3    H130866   6.425   0.058   1.590 -0.7605 -0.5410 -0.3949
 3125TIP3    H230867   6.373   0.131   1.468  0.8701  2.7304  0.7454
 3126TIP3   OH230868   2.392   6.095   5.903  0.0265 -0.1041  0.0181
 3126TIP3    H130869   2.475   6.052   5.924 -1.0423 -2.7426 -0.6738
 3126TIP3    H230870   2.331   6.022   5.891 -2.2989  1.7394  0.1071
 3127TIP3   OH230871   4.360   5.121  13.498 -0.5718  0.2019  0.1011
 3127TIP3    H130872   4.287   5.108  13.558 -0.6642  1.2861  0.2289
 3127TIP3    H230873   4.323   5.171  13.426 -0.2438 -0.3260 -0.4436
 3128TIP3   OH230874   2.828   0.316   0.709 -0.1288  0.3396 -0.2352
 3128TIP3    H130875   2.825   0.399   0.756 -1.0567 -0.1890  0.6521
 3128TIP3    H230876   2.884   0.259   0.762  1.5731  0.7444 -1.4778
 3129TIP3   OH230877   5.442   0.242   5.309 -0.1496 -0.2248  0.2228
 3129TIP3    H130878   5.416   0.217   5.220 -3.0437  0.2716  0.8296
 3129TIP3    H230879   5.411   0.333   5.318 -1.4172 -0.7842  2.2097
 3130TIP3   OH230880   4.108   2.630   5.844 -0.1211 -0.3215  0.1383
 3130TIP3    H130881   4.189   2.592   5.877 -0.5353 -0.4839  0.9818
 3130TIP3    H230882   4.072   2.678   5.918  0.5090  1.9634 -0.9437
 3131TIP3   OH230883   1.820   6.507  16.573 -0.5069  0.2943  0.2831
 3131TIP3    H130884   1.816   6.494  16.478 -1.6727 -0.6108  0.4344
 3131TIP3    H230885   1.740   6.555  16.593 -0.2114  0.5746  0.8033
 3132TIP3   OH230886   2.526   5.510  12.390 -0.0006  0.3070 -0.3856
 3132TIP3    H130887   2.618   5.533  12.373 -0.0033  1.6656  1.1804
 3132TIP3    H230888   2.509   5.545  12.477 -0.9055 -3.2210  1.0550
 3133TIP3   OH230889   1.024   0.606   0.488 -0.4634 -0.1069 -0.1516
 3133TIP3    H130890   1.108   0.590   0.532 -0.9434 -2.9596 -0.1108
 3133TIP3    H230891   0.966   0.637   0.557  0.2970  1.1081 -0.0215
 3134TIP3   OH230892   3.826   5.601  16.269  0.0792  0.2009 -0.3950
 3134TIP3    H130893   3.834   5.508  16.252  2.0033 -0.4306  3.0141
 3134TIP3    H230894   3.737   5.611  16.303 -0.2399 -0.3019 -1.0542
 3135TIP3   OH230895   1.241   5.874  13.024 -0.1052  0.2611 -0.4582
 3135TIP3    H130896   1.305   5.858  13.094 -1.2715  0.7570  0.7583
 3135TIP3    H230897   1.271   5.955  12.982  0.8926 -0.3193 -0.8981
 3136TIP3   OH230898   2.144   2.484   2.159 -0.0391  0.0498 -0.1272
 3136TIP3    H130899   2.153   2.579   2.163  0.5545  0.0059 -0.3419
 3136TIP3    H230900   2.104   2.460   2.242 -1.7975  0.6620 -0.7608
 3137TIP3   OH230901   2.830   1.898  10.223 -0.5543 -0.1273  0.1153
 3137TIP3    H130902   2.875   1.814  10.230  0.4857  0.4051  0.1722
 3137TIP3    H230903   2.831   1.933  10.312  0.9752  0.8765 -0.2473
 3138TIP3   OH230904   4.791   5.313  16.259 -0.6829 -0.2667 -0.1489
 3138TIP3    H130905   4.705   5.324  16.219 -0.6539 -0.9719 -0.4140
 3138TIP3    H230906   4.776   5.249  16.329 -0.2536 -0.8596 -0.5958
 3139TIP3   OH230907   3.712   5.556   0.746  0.5704  0.1384  0.4157
 3139TIP3    H130908   3.681   5.638   0.785 -0.2053  0.0807 -0.0446
 3139TIP3    H230909   3.636   5.522   0.698  1.4893  0.2354 -1.1856
 3140TIP3   OH230910   5.910   6.816  10.970  0.2915 -0.2921 -0.0764
 3140TIP3    H130911   5.868   6.769  10.898  1.5651 -1.9197  0.1782
 3140TIP3    H230912   5.878   6.773  11.049  1.1023 -0.4070  0.1932
 3141TIP3   OH230913   3.108   2.807  14.224 -0.7458  0.2019  0.4700
 3141TIP3    H130914   3.135   2.874  14.286 -1.5516  1.0598 -0.0771
 3141TIP3    H230915   3.133   2.842  14.138 -0.6065 -0.4840  0.2255
 3142TIP3   OH230916   3.999   4.448  15.278  0.2020  0.5417 -0.0720
 3142TIP3    H130917   4.069   4.389  15.248 -1.4290 -2.4311  1.4870
 3142TIP3    H230918   3.971   4.411  15.361 -4.4452  0.4026 -1.4183
 3143TIP3   OH230919   2.881   6.224  13.627  0.2513  0.3398 -0.2742
 3143TIP3    H130920   2.795   6.192  13.601 -0.2488  1.5501 -0.2192
 3143TIP3    H230921   2.888   6.310  13.586 -0.2602  2.0251  2.8248
 3144TIP3   OH230922   1.383   4.880   1.338  0.8169  0.1083  0.2302
 3144TIP3    H130923   1.328   4.845   1.268 -0.1698 -0.1198  1.1052
 3144TIP3    H230924   1.463   4.908   1.293  0.0814  0.2630 -1.0364
 3145TIP3   OH230925   3.705   3.803   4.223  0.4186  0.5541 -0.0972
 3145TIP3    H130926   3.706   3.790   4.318  1.1336 -0.9977 -0.2834
 3145TIP3    H230927   3.788   3.847   4.204  0.5836  0.2645 -0.0613
 3146TIP3   OH230928   6.553   2.285  13.286  0.2664 -0.6089  0.1731
 3146TIP3    H130929   6.614   2.221  13.250 -0.8069 -0.3229 -2.3249
 3146TIP3    H230930   6.479   2.232  13.316  0.4024 -0.7019  0.3509
 3147TIP3   OH230931   1.319   1.272   9.971 -0.2871  0.1648  0.3117
 3147TIP3    H130932   1.348   1.189  10.010  2.1653  0.3577 -0.9109
 3147TIP3    H230933   1.225   1.259   9.955 -0.1485 -2.0593  0.9027
 3148TIP3   OH230934   6.468   3.157  14.653  0.0742  0.2824 -0.5427
 3148TIP3    H130935   6.385   3.110  14.644  1.0526 -1.2099 -2.4705
 3148TIP3    H230936   6.498   3.171  14.564  1.2687  2.0162  0.0780
 3149TIP3   OH230937   6.177   0.608   0.974 -0.1833  0.2032  0.0305
 3149TIP3    H130938   6.098   0.568   1.011 -0.4931  0.8532  0.0861
 3149TIP3    H230939   6.146   0.686   0.929  0.2250 -0.4102 -1.3794
 3150TIP3   OH230940   3.754   1.783   1.445 -0.1653  0.3868 -0.5543
 3150TIP3    H130941   3.820   1.731   1.399  1.4612  1.7318  0.0978
 3150TIP3    H230942   3.682   1.723   1.462  1.9987 -1.9464  1.0495
 3151TIP3   OH230943   3.148   4.746   4.657  0.0438 -0.3634  0.0231
 3151TIP3    H130944   3.186   4.829   4.687 -0.4154 -0.3780  0.6605
 3151TIP3    H230945   3.220   4.701   4.613  0.3480  0.2868 -0.1536
 3152TIP3   OH230946   0.402   0.576   1.667  0.2028  0.4708 -0.2925
 3152TIP3    H130947   0.385   0.516   1.595  0.1391 -1.6071  1.3758
 3152TIP3    H230948   0.320   0.579   1.716  0.1906  1.9933 -0.3501
 3153TIP3   OH230949   4.395   5.986   2.425  0.1128 -0.5356 -0.0665
 3153TIP3    H130950   4.394   6.080   2.408  2.0513 -0.8711 -2.4884
 3153TIP3    H230951   4.322   5.951   2.373  0.8340 -0.6109 -1.0425
 3154TIP3   OH230952   0.795   4.809  11.618 -0.5102 -0.4338  0.2860
 3154TIP3    H130953   0.861   4.876  11.601  0.5545 -1.8738 -1.6925
 3154TIP3    H230954   0.726   4.827  11.553 -0.4562 -0.9321  0.0873
 3155TIP3   OH230955   2.252   0.593  14.808  0.4199  0.4681 -0.2890
 3155TIP3    H130956   2.208   0.571  14.726  0.5501 -1.0594  0.0212
 3155TIP3    H230957   2.312   0.520  14.823  0.4100  0.7336  1.1647
 3156TIP3   OH230958   6.757   2.290   0.534  0.2929 -0.2277  0.4095
 3156TIP3    H130959   6.750   2.223   0.601 -3.3224 -0.1910  0.2843
 3156TIP3    H230960   6.745   2.243   0.451  0.8295  0.1939  0.0832
 3157TIP3   OH230961   4.207   2.899   2.846 -0.0675 -0.2585  1.3245
 3157TIP3    H130962   4.157   2.819   2.868  1.6326 -1.2749  1.6486
 3157TIP3    H230963   4.251   2.877   2.764  0.8851  0.1209  1.7277
 3158TIP3   OH230964   5.030   0.596  15.034  0.5979 -0.1342  0.5122
 3158TIP3    H130965   4.940   0.585  15.065  0.4954 -1.1552 -0.0734
 3158TIP3    H230966   5.041   0.526  14.969  1.0615  1.3812 -1.1256
 3159TIP3   OH230967   5.482   5.813  15.081 -0.3454 -0.3443 -0.0882
 3159TIP3    H130968   5.563   5.846  15.042 -0.8652  0.0593 -0.8592
 3159TIP3    H230969   5.413   5.846  15.023 -1.1357  0.0911  1.0709
 3160TIP3   OH230970   2.146   1.341  15.871  0.0935  0.1157  0.5770
 3160TIP3    H130971   2.092   1.415  15.845  0.6491  0.6646  0.9605
 3160TIP3    H230972   2.200   1.374  15.942 -0.7902 -1.1076  1.8818
 3161TIP3   OH230973   4.728   0.690   4.342  0.0465  0.3313 -0.3434
 3161TIP3    H130974   4.773   0.757   4.394 -0.3293 -1.5637  2.6303
 3161TIP3    H230975   4.668   0.740   4.286 -0.7554  2.5045  2.2526
 3162TIP3   OH230976   0.122   1.211   1.135 -0.3159  0.0716  0.3816
 3162TIP3    H130977   0.139   1.230   1.227  0.1227  0.1701  0.2785
 3162TIP3    H230978   0.138   1.117   1.127  0.4583  0.2149  0.2225
 3163TIP3   OH230979   0.241   2.676   1.861  0.1971  0.4812  0.4259
 3163TIP3    H130980   0.165   2.707   1.810 -0.2102 -0.7532  0.2461
 3163TIP3    H230981   0.221   2.585   1.881  1.2334  0.3986  1.1732
 3164TIP3   OH230982   5.055   5.531  13.023 -0.3792 -0.5134  0.2455
 3164TIP3    H130983   5.078   5.449  12.979 -0.4960 -0.8292  0.7532
 3164TIP3    H230984   5.098   5.599  12.972 -0.1847 -0.9037 -0.1181
 3165TIP3   OH230985   5.852   5.314   2.119  0.4922 -0.0836  0.5489
 3165TIP3    H130986   5.828   5.240   2.063  0.1492 -0.2026  0.8449
 3165TIP3    H230987   5.931   5.285   2.164  0.5958 -0.1059  0.3521
 3166TIP3   OH230988   3.429   1.328   2.683 -0.1610  0.1369 -0.3974
 3166TIP3    H130989   3.500   1.346   2.622  1.1018 -0.3806  0.8474
 3166TIP3    H230990   3.351   1.320   2.628 -0.0637  4.4084 -1.5536
 3167TIP3   OH230991   2.679   2.757  10.546 -0.3087 -0.0094  0.0546
 3167TIP3    H130992   2.679   2.827  10.481  2.5231 -0.8974 -1.0340
 3167TIP3    H230993   2.632   2.685  10.503  1.0074 -0.3787 -0.8274
 3168TIP3   OH230994   6.158   6.351   3.013 -0.2752 -0.5226 -0.3642
 3168TIP3    H130995   6.098   6.374   2.942  0.8419 -0.2282 -1.2483
 3168TIP3    H230996   6.108   6.366   3.093 -0.9822  0.8635 -1.0372
 3169TIP3   OH230997   0.670   1.226  12.666 -0.0585  0.5931  0.5211
 3169TIP3    H130998   0.697   1.312  12.635  0.2332 -0.6215 -3.0166
 3169TIP3    H230999   0.728   1.165  12.621  0.1185 -1.5107  3.3324
 3170TIP3   OH231000   6.346   0.969   0.951 -0.4555  0.4675 -0.0769
 3170TIP3    H131001   6.341   0.889   0.899  1.7660  0.5090 -0.4617
 3170TIP3    H231002   6.334   1.040   0.888 -1.5886  0.4743  0.1286
 3171TIP3   OH231003   4.172   5.023  12.733  0.0128 -0.1749  0.1183
 3171TIP3    H131004   4.258   4.980  12.735 -0.2852 -0.8347 -0.8726
 3171TIP3    H231005   4.118   4.971  12.793  0.6331  1.0381  1.8192
 3172TIP3   OH231006   4.591   6.850  17.001  0.4248 -0.1692 -0.1746
 3172TIP3    H131007   4.642   6.878  16.925  1.5353  1.2861  1.0533
 3172TIP3    H231008   4.536   6.926  17.022  0.3675 -0.4270  0.6461
 3173TIP3   OH231009   3.013   2.279   5.703 -0.0004 -0.4746 -0.3889
 3173TIP3    H131010   2.954   2.314   5.769  1.0682  0.7263 -0.0401
 3173TIP3    H231011   2.991   2.327   5.623  0.3485 -0.1796 -0.3098
 3174TIP3   OH231012   0.508   1.169   1.565  0.4472 -0.2382 -0.1752
 3174TIP3    H131013   0.437   1.186   1.627  1.5828 -0.9538  1.4002
 3174TIP3    H231014   0.464   1.139   1.485 -1.0728  0.9531  0.1712
 3175TIP3   OH231015   6.543   3.864   2.254  0.1481 -0.3322  0.8378
 3175TIP3    H131016   6.458   3.840   2.218  0.8294 -0.1170 -1.0211
 3175TIP3    H231017   6.563   3.796   2.318 -0.2621 -1.8337 -0.5944
 3176TIP3   OH231018   1.774   1.067   4.908  0.2592  0.3564 -0.0348
 3176TIP3    H131019   1.689   1.088   4.945  0.5869  0.5967  0.5901
 3176TIP3    H231020   1.754   1.028   4.823 -0.4850  0.0292  0.2842
 3177TIP3   OH231021   4.434   1.423  13.269 -0.3017 -0.2971 -0.3288
 3177TIP3    H131022   4.430   1.329  13.255 -0.0860 -0.2136 -1.0065
 3177TIP3    H231023   4.525   1.446  13.252 -0.2959 -0.0035  0.0856
 3178TIP3   OH231024   1.299   4.483   6.143  0.4710 -0.3715  0.1041
 3178TIP3    H131025   1.309   4.430   6.064  1.1564 -0.0510 -0.0388
 3178TIP3    H231026   1.253   4.426   6.205  0.1459 -0.7105 -0.4400
 3179TIP3   OH231027   1.853   4.603  16.680  0.2003 -0.0673 -0.0074
 3179TIP3    H131028   1.779   4.577  16.735 -0.7136  1.0968 -0.6406
 3179TIP3    H231029   1.834   4.693  16.655 -0.9265 -1.3283 -4.5664
 3180TIP3   OH231030   0.205   4.715   4.660  0.2373 -0.5470 -0.3606
 3180TIP3    H131031   0.193   4.757   4.575 -0.4528 -0.6754 -0.3330
 3180TIP3    H231032   0.132   4.654   4.668  0.0306 -0.2022  0.5213
 3181TIP3   OH231033   5.424   6.449   2.883  0.7525 -0.1220 -0.1678
 3181TIP3    H131034   5.412   6.368   2.932 -0.3925  0.8343  1.1995
 3181TIP3    H231035   5.456   6.512   2.947 -0.8244  1.1769 -0.5907
 3182TIP3   OH231036   2.683   2.075  13.055  0.2507 -0.2993  0.0248
 3182TIP3    H131037   2.641   2.061  13.140  0.2884  0.7932  0.2498
 3182TIP3    H231038   2.711   1.988  13.027 -0.1915 -0.7426  0.9058
 3183TIP3   OH231039   0.154   0.822   3.459 -0.2246 -0.0807  0.5104
 3183TIP3    H131040   0.188   0.749   3.511 -0.4163  0.2594  1.1287
 3183TIP3    H231041   0.214   0.830   3.385  0.2454 -0.3575  0.8618
 3184TIP3   OH231042   1.348   1.994  16.399  0.6365 -0.4739  0.1081
 3184TIP3    H131043   1.391   2.017  16.317  1.4530  1.6966  1.0829
 3184TIP3    H231044   1.417   2.002  16.465 -0.2219 -1.3129  1.1325
 3185TIP3   OH231045   4.754   1.016  11.190  0.8759 -0.7790  0.7909
 3185TIP3    H131046   4.768   0.942  11.250 -1.1407 -2.3888 -0.5514
 3185TIP3    H231047   4.716   0.976  11.112  0.3523  1.6381 -0.2789
 3186TIP3   OH231048   1.663   6.798   3.929  0.2589 -0.0252  0.6440
 3186TIP3    H131049   1.591   6.818   3.988  0.3779 -0.1017  0.8164
 3186TIP3    H231050   1.694   6.712   3.958 -0.6609 -0.7687 -0.4917
 3187TIP3   OH231051   2.456   0.116   4.249  0.4213 -0.3580  0.1750
 3187TIP3    H131052   2.392   0.186   4.242  0.1583 -0.6618 -0.5356
 3187TIP3    H231053   2.441   0.062   4.172  0.5833 -1.2230  0.7284
 3188TIP3   OH231054   5.650   6.699   4.764  0.5448 -0.2464 -0.7159
 3188TIP3    H131055   5.581   6.640   4.736  1.5968 -2.2210  0.6831
 3188TIP3    H231056   5.731   6.651   4.749  1.3059 -0.8901  4.0300
 3189TIP3   OH231057   2.171   5.203   1.716 -0.1377  0.1493 -0.1843
 3189TIP3    H131058   2.185   5.297   1.715 -1.3804  0.3972  1.3087
 3189TIP3    H231059   2.253   5.166   1.747 -0.4169  0.9881  1.7469
 3190TIP3   OH231060   2.754   5.273  12.955 -0.0703  0.0149 -0.3510
 3190TIP3    H131061   2.762   5.366  12.933  2.5486  0.3508  1.5798
 3190TIP3    H231062   2.691   5.271  13.028  1.4092  0.6089  1.0010
 3191TIP3   OH231063   2.919   1.234  12.692  0.9753  0.0357 -0.1097
 3191TIP3    H131064   3.010   1.227  12.720  1.2441  1.2593 -0.6313
 3191TIP3    H231065   2.888   1.143  12.686  2.4232 -0.4268 -0.8168
 3192TIP3   OH231066   1.310   6.556  15.078 -0.5615 -0.9040 -0.2301
 3192TIP3    H131067   1.272   6.555  15.166 -2.4238 -0.8001 -0.9773
 3192TIP3    H231068   1.234   6.565  15.020  0.7756  1.5998 -1.7640
 3193TIP3   OH231069   4.628   5.792  15.831  0.4421  0.1211  0.2002
 3193TIP3    H131070   4.669   5.835  15.756  2.0583  0.4454  1.2303
 3193TIP3    H231071   4.625   5.859  15.899  1.3227 -0.8367  1.2351
 3194TIP3   OH231072   3.034   4.710  15.968  0.2597  0.6432 -0.0047
 3194TIP3    H131073   3.033   4.633  16.024  0.8915  0.3224 -0.4291
 3194TIP3    H231074   2.976   4.772  16.013 -1.0446 -0.4176 -0.1655
 3195TIP3   OH231075   0.521   6.685  15.166 -0.2649 -0.6949 -0.3466
 3195TIP3    H131076   0.481   6.662  15.250  1.8222 -1.6071  0.4419
 3195TIP3    H231077   0.529   6.780  15.169 -0.4516 -0.6962  0.3743
 3196TIP3   OH231078   0.217   5.869   0.090 -0.2944  0.1941  0.1151
 3196TIP3    H131079   0.200   5.939   0.027  0.1569 -1.3086 -1.7751
 3196TIP3    H231080   0.312   5.861   0.092 -0.2837  0.4287  1.2687
 3197TIP3   OH231081   6.185   4.894  13.946 -0.0489  0.5780 -0.5099
 3197TIP3    H131082   6.155   4.983  13.962  0.1525  0.2744  1.9366
 3197TIP3    H231083   6.112   4.852  13.900 -0.8713  1.5289 -0.0969
 3198TIP3   OH231084   5.678   0.756   0.079 -0.0716  0.2950  0.2365
 3198TIP3    H131085   5.729   0.798   0.149  1.8578 -1.1460 -0.2225
 3198TIP3    H231086   5.611   0.705   0.124  2.3265 -2.1662  1.2573
 3199TIP3   OH231087   1.602   0.003  10.516 -0.1989 -0.1405 -0.6028
 3199TIP3    H131088   1.626   0.095  10.523 -1.1236 -0.0113  2.2635
 3199TIP3    H231089   1.675  -0.044  10.557 -0.7400 -0.4657  0.0096
 3200TIP3   OH231090   1.440   3.536  11.377  0.1530 -0.0869  0.6805
 3200TIP3    H131091   1.522   3.502  11.341  0.7055  0.8628  1.0061
 3200TIP3    H231092   1.427   3.486  11.457 -0.2573 -1.1132 -0.0047
 3201TIP3   OH231093   3.996   5.441  11.835 -0.3226 -0.1878  0.4473
 3201TIP3    H131094   3.990   5.518  11.893  0.7267  0.1213  0.1675
 3201TIP3    H231095   3.935   5.460  11.764 -1.5429 -0.5178  1.3588
 3202TIP3   OH231096   3.865   3.467   2.870 -0.3674  0.2453  0.5664
 3202TIP3    H131097   3.866   3.533   2.939 -0.0268  1.0738 -0.2162
 3202TIP3    H231098   3.773   3.450   2.854 -0.4888  1.3144  0.0556
 3203TIP3   OH231099   6.270   5.301  14.532  0.6643 -0.2936 -0.4529
 3203TIP3    H131100   6.290   5.304  14.625  1.4567  1.0368 -0.6440
 3203TIP3    H231101   6.353   5.320  14.489 -0.0513  0.8155 -1.3899
 3204TIP3   OH231102   4.325   5.093   1.589 -0.7230 -0.8832 -0.0322
 3204TIP3    H131103   4.275   5.128   1.664  1.6623 -1.3223  1.8838
 3204TIP3    H231104   4.366   5.014   1.623  2.0769 -0.0264 -1.1236
 3205TIP3   OH231105   2.483   2.077  15.345 -0.0979 -0.2960  0.4362
 3205TIP3    H131106   2.425   2.030  15.405 -0.9471 -0.5962 -0.6000
 3205TIP3    H231107   2.505   2.013  15.277  1.0672 -0.0355  0.5495
 3206TIP3   OH231108   6.323   5.635  13.833 -0.3207  0.1622  0.6012
 3206TIP3    H131109   6.388   5.651  13.902 -0.4123  0.8578  0.5294
 3206TIP3    H231110   6.283   5.551  13.857 -0.5826  0.5552  1.5798
 3207TIP3   OH231111   3.117   6.393  13.378 -0.2655  0.0594  0.4202
 3207TIP3    H131112   3.030   6.407  13.416 -0.3319  2.0286 -0.3450
 3207TIP3    H231113   3.117   6.446  13.298  1.0037 -1.4044 -0.6121
 3208TIP3   OH231114   1.316   6.435  14.548 -0.4898 -0.4837  0.3271
 3208TIP3    H131115   1.343   6.486  14.471 -0.0103 -0.4642  0.5077
 3208TIP3    H231116   1.389   6.375  14.564 -0.1847  0.1218  1.3081
 3209TIP3   OH231117   6.452   2.050   4.724  0.1022 -0.1603  0.0001
 3209TIP3    H131118   6.375   1.999   4.749 -0.6607  0.0966 -1.6511
 3209TIP3    H231119   6.417   2.125   4.676  1.2382  1.6430  1.8291
 3210TIP3   OH231120   6.799   2.098  13.275 -0.2221  0.5088 -0.1336
 3210TIP3    H131121   6.827   2.067  13.361  1.5252  0.3839 -0.7195
 3210TIP3    H231122   6.869   2.072  13.215 -1.4746  0.4610 -1.6381
 3211TIP3   OH231123   2.574   4.116  11.844  0.2615 -0.3716 -0.0132
 3211TIP3    H131124   2.496   4.164  11.872 -0.4167 -1.9261  0.9267
 3211TIP3    H231125   2.546   4.024  11.842  1.8698 -0.8934 -0.3999
 3212TIP3   OH231126   1.621   4.457  12.689  0.1811 -0.5168  0.0776
 3212TIP3    H131127   1.574   4.437  12.608  0.0265 -0.4075  0.1396
 3212TIP3    H231128   1.709   4.421  12.675  0.4518  0.3270 -0.5190
 3213TIP3   OH231129   1.057   5.550   3.278 -0.7123 -0.1796 -0.1548
 3213TIP3    H131130   1.125   5.565   3.212 -2.8132  0.5060 -2.3252
 3213TIP3    H231131   1.060   5.628   3.333  0.4660 -0.3373  0.0447
 3214TIP3   OH231132   0.198   3.275  12.904 -0.3656 -0.0739 -0.1584
 3214TIP3    H131133   0.242   3.355  12.931 -1.1502  0.4419 -0.3771
 3214TIP3    H231134   0.138   3.255  12.976 -0.1260 -0.5108 -0.0717
 3215TIP3   OH231135   4.808   1.159   6.299  0.2259  0.6856  0.0087
 3215TIP3    H131136   4.883   1.218   6.306  0.8651 -0.2924  2.0364
 3215TIP3    H231137   4.735   1.216   6.274  1.4270  1.8094 -1.0821
 3216TIP3   OH231138   2.944   0.662   4.032  0.0321 -0.4892  0.5540
 3216TIP3    H131139   2.922   0.754   4.018  0.6336 -0.4294 -0.0093
 3216TIP3    H231140   2.987   0.661   4.118  1.7606  0.0689 -0.2595
 3217TIP3   OH231141   2.576   3.640   4.749 -0.4249 -0.4504  0.1287
 3217TIP3    H131142   2.618   3.572   4.695 -2.2838 -1.5930  0.0044
 3217TIP3    H231143   2.577   3.604   4.838  0.8410  0.5326  0.5336
 3218TIP3   OH231144   3.158   4.193   5.635 -0.0368 -0.1496 -0.0118
 3218TIP3    H131145   3.142   4.205   5.541  1.1187 -0.3420 -0.2488
 3218TIP3    H231146   3.245   4.231   5.650 -0.0003 -0.5525  0.8894
 3219TIP3   OH231147   1.722   2.621   3.984 -0.1634 -0.0731 -0.2992
 3219TIP3    H131148   1.716   2.702   3.933  0.5968 -0.2921 -0.7608
 3219TIP3    H231149   1.773   2.646   4.061 -0.7744  0.1097  0.0550
 3220TIP3   OH231150   3.381   3.202   3.859 -0.1690 -0.7119 -0.1758
 3220TIP3    H131151   3.405   3.110   3.852  2.0179 -0.2368  0.1799
 3220TIP3    H231152   3.449   3.240   3.914 -0.4460  1.3086 -1.1283
 3221TIP3   OH231153   5.994   4.382  16.910  0.9135 -0.2922  0.5244
 3221TIP3    H131154   6.067   4.347  16.960  0.2724 -1.3247  0.7839
 3221TIP3    H231155   6.000   4.338  16.825  2.6777  2.2937 -0.8281
 3222TIP3   OH231156   0.947   6.052  14.836 -0.2311  0.1305 -0.7387
 3222TIP3    H131157   0.907   6.024  14.919  0.3087 -0.4702 -0.6774
 3222TIP3    H231158   1.041   6.056  14.855  0.0654 -1.4240 -1.7101
 3223TIP3   OH231159   5.652   6.316   3.905  0.3128  0.2688  0.0512
 3223TIP3    H131160   5.565   6.349   3.925  0.7071  0.3920  1.6624
 3223TIP3    H231161   5.641   6.221   3.896  0.1983  0.1348  1.4333
 3224TIP3   OH231162   6.495   5.155  16.813  0.3405 -0.1253 -1.0263
 3224TIP3    H131163   6.469   5.123  16.727 -1.4094  0.4721 -0.7536
 3224TIP3    H231164   6.415   5.153  16.865  1.2355  0.1001  0.4174
 3225TIP3   OH231165   2.585   3.089   2.149  0.0446  0.1644 -0.0170
 3225TIP3    H131166   2.638   3.016   2.180  0.0649  0.3952  0.5072
 3225TIP3    H231167   2.582   3.078   2.054  0.8585  0.0277 -0.0371
 3226TIP3   OH231168   1.863   2.895  14.379  0.0818  0.1716  0.3409
 3226TIP3    H131169   1.873   2.990  14.381 -0.8183  0.2906 -0.3739
 3226TIP3    H231170   1.953   2.861  14.377  0.4000  1.0129  0.2099
 3227TIP3   OH231171   2.516   4.905  15.184  0.1738  0.4223  0.3548
 3227TIP3    H131172   2.508   4.923  15.090 -2.6696  0.8026  0.5882
 3227TIP3    H231173   2.563   4.980  15.219 -0.0459  1.0069 -0.5647
 3228TIP3   OH231174   1.761   4.592  12.324 -0.0750  0.1092 -0.5590
 3228TIP3    H131175   1.837   4.574  12.268  0.8638  2.0041  0.0380
 3228TIP3    H231176   1.703   4.643  12.269 -0.1722  0.0635 -0.4981
 3229TIP3   OH231177   6.025   6.449   3.572  0.4225 -0.4218  0.3956
 3229TIP3    H131178   5.967   6.474   3.500  0.1839  3.8417  1.7906
 3229TIP3    H231179   6.111   6.481   3.545  1.4281 -3.1310  0.0816
 3230TIP3   OH231180   4.586   5.164  12.088 -0.0285  0.2839 -0.2248
 3230TIP3    H131181   4.596   5.093  12.151  0.4290  1.2711  0.8523
 3230TIP3    H231182   4.526   5.130  12.022  1.1708 -1.5467 -0.4219
 3231TIP3   OH231183   4.425   4.542   1.614  0.5770  0.1892  0.3961
 3231TIP3    H131184   4.332   4.524   1.600 -0.6149  5.0179  0.3708
 3231TIP3    H231185   4.464   4.456   1.629 -3.6446 -2.1939 -0.6255
 3232TIP3   OH231186   3.867   6.322  11.433  0.0135  0.1732 -0.5661
 3232TIP3    H131187   3.866   6.306  11.339 -3.0763  1.8462 -0.9527
 3232TIP3    H231188   3.809   6.255  11.469 -0.7490  1.0118 -0.2081
 3233TIP3   OH231189   6.670   0.178   3.821  0.0259 -0.0330  0.0389
 3233TIP3    H131190   6.604   0.246   3.809  0.4009  0.3560  0.1888
 3233TIP3    H231191   6.667   0.127   3.740  0.2265  0.5768 -0.3537
 3234TIP3   OH231192   4.626   6.247   0.942  0.0431 -0.5569  0.0825
 3234TIP3    H131193   4.689   6.305   0.985 -1.0200  0.8296 -0.1371
 3234TIP3    H231194   4.659   6.159   0.957  1.2177  0.0600  1.2515
 3235TIP3   OH231195   4.934   3.809  13.084 -0.7682  0.3413  0.1934
 3235TIP3    H131196   5.027   3.787  13.087 -0.6455  0.1794 -2.4335
 3235TIP3    H231197   4.894   3.752  13.151  0.8468 -0.4201  0.5698
 3236TIP3   OH231198   5.087   3.359   2.985 -0.5022 -0.0098  0.7012
 3236TIP3    H131199   5.063   3.359   3.078 -0.2648 -2.6133  0.8395
 3236TIP3    H231200   5.181   3.338   2.985 -0.7902 -1.3843 -0.1472
 3237TIP3   OH231201   4.328   6.391  12.377 -0.3035  0.9784  0.0177
 3237TIP3    H131202   4.239   6.369  12.407  0.0783 -1.7807 -0.5223
 3237TIP3    H231203   4.385   6.334  12.429  0.9742  1.2899 -1.0000
 3238TIP3   OH231204   2.907   3.603   5.730  0.2788 -0.2048 -0.2917
 3238TIP3    H131205   2.893   3.567   5.818 -0.3116  0.6716 -0.0088
 3238TIP3    H231206   2.831   3.659   5.715  1.0996  0.8088 -0.7748
 3239TIP3   OH231207   3.798   0.310  16.196 -0.1863 -0.1800 -0.4328
 3239TIP3    H131208   3.884   0.302  16.239  0.0791 -3.0518 -1.2730
 3239TIP3    H231209   3.735   0.280  16.262 -0.5288  1.4946  0.0293
 3240TIP3   OH231210   2.135   4.788   6.054 -0.2037 -0.1184 -0.5490
 3240TIP3    H131211   2.207   4.849   6.037 -0.3625  0.5118  0.8674
 3240TIP3    H231212   2.056   4.842   6.048 -0.2988  0.0677  1.5463
 3241TIP3   OH231213   1.790   2.459  13.883 -0.3563 -0.2754 -0.4540
 3241TIP3    H131214   1.846   2.536  13.872  1.2860 -0.8336  2.6832
 3241TIP3    H231215   1.702   2.491  13.865  0.5937  1.4645 -2.4650
 3242TIP3   OH231216   2.956   0.662  11.404 -0.7632  0.2119 -0.2945
 3242TIP3    H131217   3.029   0.605  11.381  0.3532  1.0379  1.0430
 3242TIP3    H231218   2.879   0.606  11.399 -0.0054 -0.7843 -1.3341
 3243TIP3   OH231219   0.560   6.678   5.201 -0.3280 -0.2072  0.4351
 3243TIP3    H131220   0.601   6.764   5.209  0.7019 -0.5752 -0.5975
 3243TIP3    H231221   0.541   6.668   5.108 -1.1365 -0.7983  0.6429
 3244TIP3   OH231222   4.248   5.592   2.603 -0.0332  0.0259  0.0305
 3244TIP3    H131223   4.311   5.524   2.576 -0.3836  0.1004 -1.0446
 3244TIP3    H231224   4.302   5.661   2.642  0.5178 -0.0992 -0.4925
 3245TIP3   OH231225   6.244   4.392   3.279  0.3589 -0.0403 -0.3121
 3245TIP3    H131226   6.177   4.415   3.344  1.2569 -0.1164  0.6833
 3245TIP3    H231227   6.234   4.457   3.210 -0.7202 -0.0346 -0.1692
 3246TIP3   OH231228   0.081   6.392  14.204  0.2292  0.1027  0.0086
 3246TIP3    H131229   0.116   6.373  14.117  0.3200  2.4497 -0.5362
 3246TIP3    H231230  -0.010   6.364  14.200  0.8758 -2.2091  0.0652
 3247TIP3   OH231231   5.782   0.932   3.233 -0.1767 -0.6870 -0.0168
 3247TIP3    H131232   5.761   0.850   3.277 -0.1616 -0.8431 -0.2980
 3247TIP3    H231233   5.863   0.913   3.185 -1.0548 -1.0155 -1.4365
 3248TIP3   OH231234   0.057   4.160  16.042 -0.3475  0.1976 -0.1530
 3248TIP3    H131235   0.088   4.134  15.955  1.0160  2.0861 -0.3171
 3248TIP3    H231236   0.061   4.080  16.094  0.5208 -0.6111 -1.3886
 3249TIP3   OH231237   1.498   3.543   4.268  1.0891  0.2390  0.1568
 3249TIP3    H131238   1.551   3.491   4.208 -0.4249 -0.5698 -0.5084
 3249TIP3    H231239   1.563   3.596   4.316  2.4828 -0.6235 -0.6918
 3250TIP3   OH231240   2.007   3.294  11.596  0.4629  0.1839  0.5456
 3250TIP3    H131241   1.978   3.239  11.524  0.6886  1.8387 -0.8753
 3250TIP3    H231242   1.948   3.370  11.593  0.0834  0.0428  2.5047
 3251TIP3   OH231243   3.933   5.762  16.067 -0.7545 -0.3693 -0.0407
 3251TIP3    H131244   3.876   5.735  15.995 -0.6945 -0.7956  0.0657
 3251TIP3    H231245   3.895   5.721  16.144 -0.1503 -0.9001 -0.0115
 3252TIP3   OH231246   6.768   1.705  16.193  0.1767 -0.0596  0.2765
 3252TIP3    H131247   6.689   1.757  16.181  0.2013  0.2734  1.5143
 3252TIP3    H231248   6.802   1.693  16.104 -1.5197 -0.6346 -0.3458
 3253TIP3   OH231249   6.648   3.650   2.413  0.0716  0.3328 -0.5153
 3253TIP3    H131250   6.719   3.619   2.357  1.1973  0.5216  0.7588
 3253TIP3    H231251   6.615   3.571   2.455  0.5424  0.4195  0.0255
 3254TIP3   OH231252   0.563   3.550  16.894  0.2163  0.1592  0.4668
 3254TIP3    H131253   0.601   3.516  16.814 -2.5425 -0.1007 -0.8471
 3254TIP3    H231254   0.602   3.637  16.904  0.5821  0.2026 -1.1683
 3255TIP3   OH231255   1.887   2.071  14.064  0.3900  0.5151 -0.3146
 3255TIP3    H131256   1.838   2.080  13.982  1.7250 -0.5967 -1.2831
 3255TIP3    H231257   1.938   2.151  14.071  0.2495  0.6257 -0.5634
 3256TIP3   OH231258   0.187   1.367   4.912 -0.7438  0.1780 -0.2532
 3256TIP3    H131259   0.109   1.393   4.959 -0.2965  1.8185 -0.3634
 3256TIP3    H231260   0.167   1.279   4.878 -2.1801  0.2169  0.4448
 3257TIP3   OH231261   5.846   1.582  16.201  0.2411 -0.3950  0.2128
 3257TIP3    H131262   5.877   1.670  16.182 -0.5838  0.0095  0.6547
 3257TIP3    H231263   5.922   1.536  16.236  0.5577  0.3033  0.4569
 3258TIP3   OH231264   1.787   3.543  12.930  0.3209 -0.5032 -0.6544
 3258TIP3    H131265   1.727   3.513  12.862  0.0430  0.3764 -0.8077
 3258TIP3    H231266   1.857   3.587  12.882 -0.8192  1.8080 -0.3358
 3259TIP3   OH231267   4.656   1.516   1.891 -0.0424 -0.5813  0.3984
 3259TIP3    H131268   4.660   1.480   1.980  1.4329  0.4894  0.8088
 3259TIP3    H231269   4.569   1.491   1.859  0.3030 -3.1005  1.2141
 3260TIP3   OH231270   1.183   0.831  14.182 -0.2912  0.1520 -0.4722
 3260TIP3    H131271   1.206   0.820  14.274 -1.2497 -0.6252 -0.3187
 3260TIP3    H231272   1.113   0.768  14.166 -1.1571  1.2723 -1.3541
 3261TIP3   OH231273   0.583   5.354   1.041  0.7839 -0.0408 -0.3861
 3261TIP3    H131274   0.666   5.357   0.993  0.3584  1.0915 -1.0771
 3261TIP3    H231275   0.581   5.266   1.078  1.8477 -0.4203 -1.1660
 3262TIP3   OH231276   2.368   4.943   6.019 -0.3423  0.2677 -0.3433
 3262TIP3    H131277   2.373   5.004   5.945  0.2082 -0.5588 -1.0003
 3262TIP3    H231278   2.421   4.868   5.993 -0.5216 -0.2479  0.7016
 3263TIP3   OH231279   2.131   6.618   3.338  0.1378  0.9890  0.2153
 3263TIP3    H131280   2.089   6.604   3.423  1.5312  2.7330  1.2692
 3263TIP3    H231281   2.147   6.713   3.335  0.9001  0.8361 -1.6241
 3264TIP3   OH231282   6.839   4.697  16.572  0.0854  0.0192  0.0437
 3264TIP3    H131283   6.816   4.624  16.515  0.1869  0.3144 -0.3826
 3264TIP3    H231284   6.881   4.656  16.648  1.6988 -0.2731 -0.9590
 3265TIP3   OH231285   0.740   0.052   2.479  0.0809 -0.2221  0.3586
 3265TIP3    H131286   0.729   0.137   2.522  0.9404 -1.3682  3.0581
 3265TIP3    H231287   0.653   0.013   2.479 -0.2585  0.4778 -0.6211
 3266TIP3   OH231288   1.534   6.153   2.195  0.3313 -0.3614  0.7602
 3266TIP3    H131289   1.531   6.212   2.270 -1.6861  0.0288  0.4330
 3266TIP3    H231290   1.471   6.190   2.132 -1.3457 -3.0143  0.6931
 3267TIP3   OH231291   1.586   6.309   5.664 -0.8734  0.2243  0.4057
 3267TIP3    H131292   1.681   6.294   5.663 -0.7672  0.8159  1.1032
 3267TIP3    H231293   1.555   6.265   5.585  0.1597  1.1530 -0.5695
 3268TIP3   OH231294   6.439   1.601  11.901 -0.1332 -0.2913  1.0146
 3268TIP3    H131295   6.360   1.638  11.861 -0.2047 -2.5355 -1.1586
 3268TIP3    H231296   6.424   1.610  11.995 -2.3628  0.5387  0.6628
 3269TIP3   OH231297   0.265   0.155   4.727  0.5138  0.2735 -0.1144
 3269TIP3    H131298   0.338   0.217   4.726  1.2334 -0.4968  1.0822
 3269TIP3    H231299   0.259   0.127   4.818 -0.8580 -0.1919 -0.3227
 3270TIP3   OH231300   1.443   1.373  14.286  0.2230 -0.2404 -0.2979
 3270TIP3    H131301   1.382   1.301  14.300  0.4200 -0.8155 -2.1540
 3270TIP3    H231302   1.523   1.331  14.254  0.8294  0.6890 -0.0536
 3271TIP3   OH231303   5.934   0.668  10.549  0.7096 -0.2395  0.4254
 3271TIP3    H131304   5.906   0.742  10.603  0.6625 -0.3955  0.6199
 3271TIP3    H231305   5.891   0.592  10.590 -1.6782 -0.0456 -1.5083
 3272TIP3   OH231306   6.127   5.968   2.192  0.2720  0.1094  0.0221
 3272TIP3    H131307   6.120   5.962   2.096 -0.2603  1.0441 -0.0122
 3272TIP3    H231308   6.083   6.050   2.214  0.8481  0.1623  1.0265
 3273TIP3   OH231309   5.206   5.221   3.965  0.5253 -0.2128  0.5976
 3273TIP3    H131310   5.187   5.265   3.882  1.3346 -1.5409 -0.3230
 3273TIP3    H231311   5.174   5.282   4.032  0.5837  1.2464 -0.6474
 3274TIP3   OH231312   5.870   6.767  13.896 -0.1967  0.2105  0.5462
 3274TIP3    H131313   5.954   6.760  13.851 -0.4499 -0.6501  0.1744
 3274TIP3    H231314   5.893   6.793  13.985  0.4581  0.1128  0.4155
 3275TIP3   OH231315   1.948   1.541  10.384  0.5030 -0.0682 -0.4076
 3275TIP3    H131316   2.031   1.522  10.426  0.2812  0.0834  0.1019
 3275TIP3    H231317   1.965   1.619  10.330  0.6364  0.0893 -0.1381
 3276TIP3   OH231318   3.128   4.093  13.735 -0.3229 -0.0016 -0.2056
 3276TIP3    H131319   3.092   4.146  13.806 -0.4416 -0.0672 -0.2166
 3276TIP3    H231320   3.221   4.087  13.754 -0.8688 -3.3701  2.1317
 3277TIP3   OH231321   6.758   6.842  16.483  0.3787 -0.1570  0.0319
 3277TIP3    H131322   6.754   6.751  16.453  0.9624 -0.2049  0.0848
 3277TIP3    H231323   6.799   6.889  16.410 -1.1584  0.3249 -0.5627
 3278TIP3   OH231324   4.503   3.654   4.355 -0.5547 -0.3672 -0.2878
 3278TIP3    H131325   4.576   3.592   4.356  0.6743  0.9512 -1.9488
 3278TIP3    H231326   4.443   3.620   4.287  0.4703  0.5611 -1.7181
 3279TIP3   OH231327   4.928   6.283  15.362  1.0906 -0.1300 -0.1387
 3279TIP3    H131328   4.927   6.265  15.456  1.3628  1.3852  0.1753
 3279TIP3    H231329   4.836   6.292  15.338  1.0674  2.3356  0.6060
 3280TIP3   OH231330   2.221   4.366   1.696  0.3458 -0.2937 -0.4116
 3280TIP3    H131331   2.275   4.286   1.695  0.1906 -0.3983 -0.8112
 3280TIP3    H231332   2.273   4.429   1.745 -0.8649 -1.5367  2.6832
 3281TIP3   OH231333   5.468   6.485  16.125  0.4781 -0.8626 -0.3756
 3281TIP3    H131334   5.472   6.406  16.070  1.2462 -0.2909 -1.1636
 3281TIP3    H231335   5.554   6.489  16.167  0.4856 -0.3804 -0.4352
 3282TIP3   OH231336   4.848   1.493   1.346  0.1018 -0.0139  0.0479
 3282TIP3    H131337   4.881   1.572   1.303  3.1216 -1.6465 -0.8801
 3282TIP3    H231338   4.809   1.442   1.275 -0.6070  0.0037  0.4123
 3283TIP3   OH231339   5.109   1.397   1.407  0.2321 -0.4223 -0.1219
 3283TIP3    H131340   5.026   1.432   1.375 -0.5179 -1.9191  0.0727
 3283TIP3    H231341   5.139   1.339   1.338  1.8104  1.0530 -0.7423
 3284TIP3   OH231342   3.871   5.007  14.040  0.4898 -0.1312 -0.4987
 3284TIP3    H131343   3.902   4.926  14.002 -0.2746 -0.5858 -0.1881
 3284TIP3    H231344   3.847   4.984  14.130  0.2750  0.4365 -0.4026
 3285TIP3   OH231345   5.916   1.768   1.224 -0.1673  0.4652  0.5393
 3285TIP3    H131346   6.010   1.781   1.215  0.3470 -0.7366  3.4204
 3285TIP3    H231347   5.880   1.857   1.224  0.6076  0.9101 -2.7013
 3286TIP3   OH231348   4.966   6.625  16.898  0.0332  0.9632  0.9448
 3286TIP3    H131349   5.049   6.601  16.939  0.7195  1.1073 -0.3222
 3286TIP3    H231350   4.958   6.719  16.911  0.6603  1.1514  0.0568
 3287TIP3   OH231351   3.188   1.523  15.705  0.6302 -0.6438 -0.4201
 3287TIP3    H131352   3.162   1.482  15.788  0.9809  0.3022  0.1666
 3287TIP3    H231353   3.135   1.602  15.699  1.3695 -0.1434 -0.5624
 3288TIP3   OH231354   1.654   6.680   3.282 -0.3259 -0.3955 -0.3314
 3288TIP3    H131355   1.720   6.616   3.256  2.6206  3.0546 -2.4236
 3288TIP3    H231356   1.584   6.670   3.217  0.5098 -0.9712 -1.1793
 3289TIP3   OH231357   2.698   6.634  13.409  0.0826  0.5004 -0.2010
 3289TIP3    H131358   2.720   6.685  13.487 -1.3722 -0.0270  0.6018
 3289TIP3    H231359   2.613   6.668  13.381 -0.1147 -0.3327 -0.6624
 3290TIP3   OH231360   6.319   1.807  12.504 -0.3630 -0.0545  0.3906
 3290TIP3    H131361   6.326   1.762  12.420 -0.6392 -0.9246  0.8157
 3290TIP3    H231362   6.402   1.853  12.514 -0.2831 -0.0366 -0.2994
 3291TIP3   OH231363   2.303   6.199   0.235  0.0140  0.4959  0.1102
 3291TIP3    H131364   2.354   6.198   0.153 -0.1184  1.0631  0.0194
 3291TIP3    H231365   2.274   6.290   0.244  2.0138  1.0114  2.0364
 3292TIP3   OH231366   4.926   1.156  13.729  0.0878  0.0486 -0.3209
 3292TIP3    H131367   4.993   1.199  13.674  0.1802  1.0654  0.5558
 3292TIP3    H231368   4.933   1.064  13.706  1.7655  0.1358 -0.3034
 3293TIP3   OH231369   5.394   1.994   5.018  0.1501 -0.2666 -0.2465
 3293TIP3    H131370   5.420   2.030   5.103 -1.3394 -1.7140  0.8762
 3293TIP3    H231371   5.338   2.062   4.980 -0.2132 -0.1299  0.5099
 3294TIP3   OH231372   3.310   5.743   3.802  0.3562  0.0193 -0.5694
 3294TIP3    H131373   3.269   5.754   3.887  0.2951 -0.6649 -0.5083
 3294TIP3    H231374   3.403   5.729   3.821  0.6528  1.6123 -0.7100
 3295TIP3   OH231375   5.745   3.180  11.640  0.3435 -0.0605  0.3440
 3295TIP3    H131376   5.840   3.172  11.640  0.3517 -0.4498 -1.7766
 3295TIP3    H231377   5.713   3.090  11.643  0.1285 -0.1064 -1.7849
 3296TIP3   OH231378   1.304   2.678  15.797  0.1094  0.3841 -0.3084
 3296TIP3    H131379   1.322   2.634  15.714 -1.2584  0.0519 -0.4553
 3296TIP3    H231380   1.211   2.662  15.813  0.3620  0.3645  1.3374
 3297TIP3   OH231381   1.824   6.000   3.067 -0.1759 -0.3625 -1.0274
 3297TIP3    H131382   1.855   5.993   2.976  0.0736 -0.5779 -0.9264
 3297TIP3    H231383   1.782   5.916   3.085  1.5593 -1.1203 -0.2887
 3298TIP3   OH231384   5.029   5.988   0.964  0.0312  0.4731  0.5296
 3298TIP3    H131385   5.100   5.924   0.975 -0.6706 -0.0142  2.6756
 3298TIP3    H231386   5.041   6.050   1.037 -1.6140  0.4948  0.8251
 3299TIP3   OH231387   3.538   2.724  11.827 -0.1659 -0.0786 -0.2656
 3299TIP3    H131388   3.617   2.670  11.825  0.5015  0.8715 -0.1005
 3299TIP3    H231389   3.567   2.811  11.800 -1.4257 -0.0274 -1.6277
 3300TIP3   OH231390   1.894   1.044   4.486 -0.2779 -0.2899 -0.3111
 3300TIP3    H131391   1.818   1.036   4.543  0.1624  0.1966  0.3596
 3300TIP3    H231392   1.959   1.090   4.539  1.1160 -2.2082 -0.2550
 3301TIP3   OH231393   3.647   0.923   3.632 -0.1744 -0.5375  0.7617
 3301TIP3    H131394   3.609   0.878   3.707  0.1949 -0.6908  0.8638
 3301TIP3    H231395   3.588   0.995   3.614 -0.7049 -0.9907  0.6798
 3302TIP3   OH231396   0.621   2.907  16.367  0.1785  0.2299  0.2820
 3302TIP3    H131397   0.573   2.824  16.366 -1.9472  1.3757 -1.0354
 3302TIP3    H231398   0.553   2.973  16.359  2.0014  1.9702 -2.2384
 3303TIP3   OH231399   5.223   3.720  11.611  0.1514 -0.0795  0.0949
 3303TIP3    H131400   5.162   3.794  11.618  0.6506  0.3190  0.2459
 3303TIP3    H231401   5.265   3.715  11.696  2.0824  1.1845 -0.7139
 3304TIP3   OH231402   6.665   1.975  15.735  0.4180  0.3021  0.2323
 3304TIP3    H131403   6.621   2.041  15.680 -1.6258 -1.5083 -0.4410
 3304TIP3    H231404   6.732   1.937  15.678 -1.1297 -0.9742 -0.8278
 3305TIP3   OH231405   5.268   1.479   6.414 -0.3596 -0.2076 -0.5365
 3305TIP3    H131406   5.338   1.504   6.353  0.8559 -0.5481  0.6730
 3305TIP3    H231407   5.235   1.562   6.447  0.6468 -0.0527  0.1430
 3306TIP3   OH231408   4.134   2.783  14.503 -0.0255  0.2047  0.4639
 3306TIP3    H131409   4.138   2.813  14.594 -2.0292 -0.0080  0.6727
 3306TIP3    H231410   4.132   2.864  14.452 -2.6621  0.5070  0.8781
 3307TIP3   OH231411   5.842   5.311   2.695 -0.1477 -0.1968 -0.1195
 3307TIP3    H131412   5.780   5.335   2.764 -1.6392 -2.2748 -0.6206
 3307TIP3    H231413   5.926   5.301   2.741 -0.6021  0.7279  0.9552
 3308TIP3   OH231414   2.434   1.053   3.137 -0.1944 -0.3723  0.3734
 3308TIP3    H131415   2.375   1.063   3.062 -0.4429  0.7343  0.6982
 3308TIP3    H231416   2.476   0.968   3.123 -0.7238 -0.4821 -0.6708
 3309TIP3   OH231417   6.450   2.049   4.078  0.0095 -0.5646 -0.8655
 3309TIP3    H131418   6.490   2.135   4.064 -0.4203 -0.1710  0.2353
 3309TIP3    H231419   6.358   2.061   4.056  0.0102 -0.8358 -1.0292
 3310TIP3   OH231420   0.037   2.432   2.378  0.2748 -0.6858  0.3919
 3310TIP3    H131421  -0.033   2.422   2.442  0.6681 -1.9472  0.6596
 3310TIP3    H231422   0.056   2.343   2.349  0.0514 -0.1654 -1.5579
 3311TIP3   OH231423   5.548   5.854  16.043 -0.6212 -0.0101  0.4783
 3311TIP3    H131424   5.526   5.947  16.043 -1.0423 -0.0870 -1.2699
 3311TIP3    H231425   5.620   5.847  16.106 -0.3429  1.5439  0.3776
 3312TIP3   OH231426   3.183   4.774   3.350  0.3966 -0.2597 -0.0643
 3312TIP3    H131427   3.251   4.802   3.410 -0.3213  1.1262  0.1451
 3312TIP3    H231428   3.123   4.849   3.344 -1.1310 -1.4369 -0.2097
 3313TIP3   OH231429   0.864   6.636  10.998  0.6756  0.2028  0.2067
 3313TIP3    H131430   0.772   6.652  10.977  0.0490 -2.0599  0.9656
 3313TIP3    H231431   0.903   6.611  10.914  0.1270 -0.6889  0.2006
 3314TIP3   OH231432   1.616   6.029  11.341 -0.3405 -0.2875  0.1830
 3314TIP3    H131433   1.581   5.940  11.335 -0.8451  0.0277 -2.7192
 3314TIP3    H231434   1.590   6.058  11.429 -1.3770 -2.4813  0.6883
 3315TIP3   OH231435   0.240   1.334  10.728  0.7065 -0.4066 -0.3031
 3315TIP3    H131436   0.174   1.279  10.687  0.5989  0.3085 -1.1105
 3315TIP3    H231437   0.195   1.374  10.803  0.5909 -0.8744 -0.1179
 3316TIP3   OH231438   1.258   4.098   4.671 -0.7596 -0.3326  0.0396
 3316TIP3    H131439   1.239   4.004   4.674  0.8052 -0.7054 -0.8345
 3316TIP3    H231440   1.312   4.114   4.749  1.0803 -0.6942 -1.1184
 3317TIP3   OH231441   4.908   6.394  14.998 -0.1827 -0.4538  0.4664
 3317TIP3    H131442   4.829   6.374  14.948 -0.5621 -1.4453  1.4127
 3317TIP3    H231443   4.946   6.309  15.018  0.9664  0.0004  0.2878
 3318TIP3   OH231444   2.636   3.974   1.651  0.0034  0.3748 -0.4749
 3318TIP3    H131445   2.714   4.030   1.653  0.6620 -0.5209 -0.5009
 3318TIP3    H231446   2.666   3.889   1.683 -1.7662  0.9615  3.3035
 3319TIP3   OH231447   1.875   2.888  13.058  0.0490  0.5277 -0.3815
 3319TIP3    H131448   1.917   2.856  12.978 -0.2400  0.4468 -0.5018
 3319TIP3    H231449   1.783   2.898  13.034  0.2674  2.2922 -0.6126
 3320TIP3   OH231450   0.350   4.166  15.581  0.2680  0.2733  0.0098
 3320TIP3    H131451   0.262   4.166  15.543 -0.0080 -0.0680  0.6340
 3320TIP3    H231452   0.337   4.133  15.670  0.9776  0.5618  0.2233
 3321TIP3   OH231453   5.036   0.396  12.477 -0.1526  0.2266 -0.0393
 3321TIP3    H131454   5.037   0.325  12.543  3.2056  0.5628  0.4971
 3321TIP3    H231455   5.109   0.374  12.418 -2.0103  0.8366 -2.7295
 3322TIP3   OH231456   6.368   2.406   3.848  0.3065  0.0432 -0.0473
 3322TIP3    H131457   6.360   2.328   3.793 -0.9948 -0.1028  0.3095
 3322TIP3    H231458   6.432   2.461   3.803  3.7422 -2.5073  1.2521
 3323TIP3   OH231459   0.692   6.389  13.011 -0.7121  0.4226 -0.0262
 3323TIP3    H131460   0.783   6.372  13.036 -1.1480 -1.0359  0.6864
 3323TIP3    H231461   0.698   6.460  12.948  1.3254 -2.0953 -2.9856
 3324TIP3   OH231462   2.844   3.221   5.823  0.1400 -0.1323  0.0630
 3324TIP3    H131463   2.917   3.160   5.811  1.5121  1.6483 -1.4273
 3324TIP3    H231464   2.841   3.237   5.917  1.2200 -0.8108  0.2332
 3325TIP3   OH231465   5.234   4.800   3.790 -0.0261 -0.0962 -0.0436
 3325TIP3    H131466   5.321   4.776   3.822 -0.4194 -0.3319  0.8604
 3325TIP3    H231467   5.197   4.855   3.859 -0.2904  0.6772 -0.7830
 3326TIP3   OH231468   4.695   0.543   5.999 -0.3509  0.3132  0.6170
 3326TIP3    H131469   4.674   0.463   6.048 -1.9561  0.4793  0.2461
 3326TIP3    H231470   4.757   0.513   5.932 -2.4292 -1.0960 -0.8036
 3327TIP3   OH231471   6.237   5.301   4.023 -0.2847  0.0961  0.5620
 3327TIP3    H131472   6.282   5.370   3.975 -0.9384  1.3685  1.7107
 3327TIP3    H231473   6.283   5.296   4.107 -1.5360  0.6291  1.3046
 3328TIP3   OH231474   3.732   5.902   2.313  0.3788 -0.2881  0.3725
 3328TIP3    H131475   3.824   5.874   2.317 -0.3331 -2.6859  1.2860
 3328TIP3    H231476   3.708   5.917   2.404 -0.6087 -1.3750  0.3027
 3329TIP3   OH231477   2.203   1.709   1.396  0.1558  0.1823 -0.3298
 3329TIP3    H131478   2.198   1.795   1.437  0.7185 -0.1643  0.4898
 3329TIP3    H231479   2.254   1.724   1.316  2.9413  0.1323  1.2972
 3330TIP3   OH231480   4.159   0.344  14.890 -0.5160 -0.5664 -0.1419
 3330TIP3    H131481   4.110   0.281  14.837 -2.3963  0.0401  0.8082
 3330TIP3    H231482   4.107   0.424  14.887  2.0436  1.1838 -1.6937
 3331TIP3   OH231483   6.016   0.337  10.384  0.2278 -0.2557 -0.3732
 3331TIP3    H131484   6.012   0.421  10.338 -0.9109  0.9779  1.7717
 3331TIP3    H231485   5.981   0.357  10.471  2.1490 -2.4284  1.0057
 3332TIP3   OH231486   3.719   6.676   5.055  0.1782 -0.3047  0.0771
 3332TIP3    H131487   3.648   6.611   5.059 -0.4341  0.3858  0.8795
 3332TIP3    H231488   3.798   6.624   5.041 -0.6894 -0.9658 -3.5722
 3333TIP3   OH231489   2.774   3.805   4.289 -0.5853  0.1736 -0.0140
 3333TIP3    H131490   2.693   3.807   4.340 -0.1345  2.2671  0.7032
 3333TIP3    H231491   2.815   3.890   4.306  0.6409  0.0826 -2.1761
 3334TIP3   OH231492   5.551   4.290   0.031 -0.5937  0.3939 -0.8738
 3334TIP3    H131493   5.470   4.260  -0.010 -1.0377  1.9538 -1.1925
 3334TIP3    H231494   5.542   4.385   0.037  0.4896  0.4467  0.6546
 3335TIP3   OH231495   4.017   6.114   4.948 -0.5324 -0.1896  0.3921
 3335TIP3    H131496   4.031   6.197   4.994  0.5286 -1.2852  2.1656
 3335TIP3    H231497   3.966   6.138   4.871 -0.4771  2.0677  0.9777
 3336TIP3   OH231498   4.897   6.411  14.334  0.1435 -0.0220 -0.5331
 3336TIP3    H131499   4.873   6.404  14.426  0.2220  0.2466 -0.4893
 3336TIP3    H231500   4.830   6.361  14.287  0.7079 -1.0589 -0.2504
 3337TIP3   OH231501   4.771   6.473  16.722  0.1165 -0.7670 -0.0556
 3337TIP3    H131502   4.773   6.514  16.636 -0.4888 -0.3064  0.1447
 3337TIP3    H231503   4.822   6.531  16.778 -1.9883  0.5796  0.5782
 3338TIP3   OH231504   5.450   2.398   0.759 -0.3879 -0.1950  0.3807
 3338TIP3    H131505   5.521   2.423   0.818 -0.0227  0.8232 -0.4501
 3338TIP3    H231506   5.417   2.482   0.726 -2.0061 -0.6572  0.7772
 3339TIP3   OH231507   0.890   0.947   2.326  0.7227 -0.3290 -0.3466
 3339TIP3    H131508   0.903   0.852   2.318 -0.9540 -0.6182  0.0979
 3339TIP3    H231509   0.873   0.960   2.419 -0.9667  0.1383 -0.7010
 3340TIP3   OH231510   3.769   1.199  12.847  0.1094  0.0471  0.1028
 3340TIP3    H131511   3.856   1.214  12.809  0.6662  1.9707  1.9607
 3340TIP3    H231512   3.759   1.104  12.844  2.1353 -0.2121 -0.4585
 3341TIP3   OH231513   3.093   2.958  13.161  0.4288  1.0505 -0.0431
 3341TIP3    H131514   3.169   2.901  13.175 -0.0807  0.3894  0.1215
 3341TIP3    H231515   3.117   3.014  13.088  0.8042  0.3567 -0.4541
 3342TIP3   OH231516   1.090   2.737  13.789 -0.3833  0.0815  0.4955
 3342TIP3    H131517   1.038   2.806  13.829 -0.9158 -0.3244  0.5245
 3342TIP3    H231518   1.142   2.701  13.861 -0.0389  0.5001  0.4624
 3343TIP3   OH231519   2.151   1.586   1.104 -0.6953  0.1007 -0.0733
 3343TIP3    H131520   2.090   1.515   1.121 -0.1193 -0.6342 -0.9832
 3343TIP3    H231521   2.229   1.543   1.069 -0.4216  1.1891 -0.8684
 3344TIP3   OH231522   5.612   2.258  16.739 -0.4546 -0.5656 -0.2002
 3344TIP3    H131523   5.615   2.164  16.755  1.2275 -0.2227  1.9066
 3344TIP3    H231524   5.699   2.279  16.705 -0.1708  0.4705  1.1057
 3345TIP3   OH231525   3.540   2.635  15.608  0.3146  0.3569  0.1269
 3345TIP3    H131526   3.516   2.626  15.516  1.2833  1.0741 -0.2212
 3345TIP3    H231527   3.463   2.607  15.656 -0.7537  1.4059 -0.9038
 3346TIP3   OH231528   0.680   4.734  16.383  0.1021 -0.3044  0.0004
 3346TIP3    H131529   0.744   4.699  16.321  0.8611 -0.8198  1.0457
 3346TIP3    H231530   0.623   4.790  16.330 -0.8347 -2.6408 -1.6565
 3347TIP3   OH231531   5.410   2.292   3.348 -0.5229  0.1488  0.1984
 3347TIP3    H131532   5.501   2.292   3.319 -0.8002  1.2921 -0.7593
 3347TIP3    H231533   5.366   2.229   3.291 -0.0731 -1.4871  1.6158
 3348TIP3   OH231534   5.529   3.867   3.162  0.0972  0.3382  0.4360
 3348TIP3    H131535   5.454   3.888   3.218 -0.6391 -1.5451  0.2284
 3348TIP3    H231536   5.603   3.914   3.201 -0.8942  1.0990  1.4660
 3349TIP3   OH231537   0.670   2.205   1.214  0.1345 -0.3577 -0.1846
 3349TIP3    H131538   0.764   2.212   1.196 -0.0416  1.3344 -0.6454
 3349TIP3    H231539   0.644   2.121   1.176  1.3039 -0.4396 -0.8400
 3350TIP3   OH231540   3.927   1.312  12.194 -0.1279  0.0082 -0.6284
 3350TIP3    H131541   3.899   1.248  12.128 -1.6407 -0.1442  0.0972
 3350TIP3    H231542   3.988   1.264  12.250 -0.7367 -0.6313 -0.4883
 3351TIP3   OH231543   5.383   4.701  16.159 -0.1848 -0.3888  0.3786
 3351TIP3    H131544   5.423   4.706  16.072  0.9486 -0.6162  0.8627
 3351TIP3    H231545   5.321   4.628  16.152 -0.2260 -0.2971 -0.2849
 3352TIP3   OH231546   0.568   3.420  14.559  0.0505  0.1005 -0.0894
 3352TIP3    H131547   0.602   3.368  14.487  1.5455  3.7968 -2.3748
 3352TIP3    H231548   0.476   3.436  14.535  0.1233  0.0846 -0.3893
 3353TIP3   OH231549   0.849   4.133  10.630 -0.4225  0.1188 -0.0357
 3353TIP3    H131550   0.799   4.118  10.550 -0.8309  1.3583 -0.0349
 3353TIP3    H231551   0.787   4.176  10.689 -1.2011 -3.6486  2.2396
 3354TIP3   OH231552   0.237   5.796  15.693 -0.0253 -0.1247 -0.4004
 3354TIP3    H131553   0.193   5.721  15.655 -2.2226  1.0728 -0.3868
 3354TIP3    H231554   0.172   5.866  15.691  1.0539  1.0829  1.9382
 3355TIP3   OH231555   6.780   1.375   5.011 -0.5796 -0.2576  0.3188
 3355TIP3    H131556   6.800   1.420   5.093  0.0191  0.1478 -0.0454
 3355TIP3    H231557   6.723   1.435   4.964  0.5706  0.3468 -0.3581
 3356TIP3   OH231558   2.077   2.473   4.734 -0.2986 -0.4315 -0.4477
 3356TIP3    H131559   2.105   2.403   4.794 -0.1153  0.0830  0.0732
 3356TIP3    H231560   2.117   2.450   4.650 -0.5909 -1.1838 -0.3965
 3357TIP3   OH231561   2.645   1.536   0.720 -0.2626  0.3269 -0.2811
 3357TIP3    H131562   2.613   1.469   0.660 -1.8284  1.5188 -0.8507
 3357TIP3    H231563   2.736   1.552   0.692 -0.3992 -0.3807 -1.1865
 3358TIP3   OH231564   4.498   0.977   3.888  0.1402  0.2086  0.3515
 3358TIP3    H131565   4.553   0.899   3.884  1.0561  0.7917  1.1294
 3358TIP3    H231566   4.528   1.031   3.815 -1.4405 -0.7258 -1.0657
 3359TIP3   OH231567   2.353   4.223  11.959 -0.0947 -0.0460 -0.2700
 3359TIP3    H131568   2.390   4.291  12.016  1.7197 -1.0568 -0.1523
 3359TIP3    H231569   2.285   4.183  12.012  0.5879 -0.0137  0.6686
 3360TIP3   OH231570   2.358   6.128   3.384 -1.0691 -0.2188  0.9084
 3360TIP3    H131571   2.320   6.110   3.470 -3.0613 -2.8653 -0.3725
 3360TIP3    H231572   2.332   6.053   3.330  1.7377  0.3836 -1.5259
 3361TIP3   OH231573   0.464   4.764  10.469  0.4766 -0.3152  0.4201
 3361TIP3    H131574   0.548   4.797  10.501 -0.7102  2.0602  1.3083
 3361TIP3    H231575   0.469   4.773  10.374  1.4759 -0.9192  0.3984
 3362TIP3   OH231576   6.007   3.657   3.346  0.1685 -0.0370  0.1096
 3362TIP3    H131577   6.095   3.663   3.307 -0.2643 -0.9437 -1.0951
 3362TIP3    H231578   5.949   3.649   3.270 -0.9043 -0.0151  0.9176
 3363TIP3   OH231579   2.307   6.688  13.883 -0.1759 -0.3288 -0.4534
 3363TIP3    H131580   2.353   6.768  13.859 -0.2948 -0.4724 -1.1843
 3363TIP3    H231581   2.223   6.718  13.919 -0.0264 -0.1099 -0.2878
 3364TIP3   OH231582   3.373   5.281   3.165 -0.3872  0.0763  0.0713
 3364TIP3    H131583   3.400   5.361   3.210  0.5128 -1.9473  3.5934
 3364TIP3    H231584   3.285   5.264   3.197  0.7343 -2.0801  2.4443
 3365TIP3   OH231585   3.667   4.238   5.545  0.2798  0.0289  0.0365
 3365TIP3    H131586   3.686   4.177   5.474 -0.5921  0.8593 -0.9362
 3365TIP3    H231587   3.705   4.197   5.622  0.4620 -1.3290 -0.7455
 3366TIP3   OH231588   4.775   4.702  12.839 -0.2235 -0.4560  0.4810
 3366TIP3    H131589   4.689   4.675  12.807 -0.6811 -0.8867  1.9885
 3366TIP3    H231590   4.812   4.623  12.878  0.3747 -0.0042  0.8471
 3367TIP3   OH231591   3.691   2.371   5.470  0.4692  0.5960 -0.1608
 3367TIP3    H131592   3.630   2.302   5.444 -0.3509  1.8211 -1.7003
 3367TIP3    H231593   3.755   2.375   5.399  2.0783 -0.3056  1.1804
 3368TIP3   OH231594   3.050   0.399   5.475  0.0689 -0.7991 -0.0557
 3368TIP3    H131595   3.002   0.336   5.528  0.7149 -1.4269 -0.2024
 3368TIP3    H231596   3.141   0.369   5.478  0.8875  1.5884  1.9894
 3369TIP3   OH231597   2.726   6.084  14.365 -0.0818  0.8834  0.4773
 3369TIP3    H131598   2.816   6.116  14.377  0.8792 -1.8451  1.2582
 3369TIP3    H231599   2.703   6.109  14.276  0.9863  2.6469  0.6516
 3370TIP3   OH231600   5.956   5.984   2.958 -0.2304 -0.2837 -0.1730
 3370TIP3    H131601   5.980   6.030   3.038 -0.9726 -0.0292 -0.0818
 3370TIP3    H231602   6.007   6.027   2.889  0.3990 -0.4971  0.1601
 3371TIP3   OH231603   3.957   0.375   2.101  0.0861 -0.4773  0.0571
 3371TIP3    H131604   3.955   0.282   2.078  1.3506 -0.2279 -1.1224
 3371TIP3    H231605   3.927   0.420   2.022 -0.0170  0.1583  0.4525
 3372TIP3   OH231606   4.143   6.714   5.282  0.3783  0.2255  0.3112
 3372TIP3    H131607   4.123   6.660   5.359 -0.4161  0.8361  0.5546
 3372TIP3    H231608   4.195   6.657   5.225  0.3356 -0.4857  0.9647
 3373TIP3   OH231609   2.513   0.003   1.457 -0.6120 -0.3884 -0.1991
 3373TIP3    H131610   2.566  -0.075   1.445 -0.3023 -0.0166 -1.3721
 3373TIP3    H231611   2.423  -0.029   1.454 -0.4889 -0.9511  1.2973
 3374TIP3   OH231612   0.330   0.972  11.726  0.3417 -0.5513 -0.0257
 3374TIP3    H131613   0.384   1.027  11.782  0.3032  0.6749 -1.1432
 3374TIP3    H231614   0.389   0.945  11.655 -0.3925  0.5068 -1.0656
 3375TIP3   OH231615   5.420   2.662   4.704 -0.3587  0.0915  0.1585
 3375TIP3    H131616   5.386   2.605   4.773 -2.0387  0.9659  0.1002
 3375TIP3    H231617   5.438   2.745   4.748  1.4715 -0.2552  0.1176
 3376TIP3   OH231618   5.033   1.659  15.018  0.1275 -0.3458 -0.1463
 3376TIP3    H131619   4.956   1.636  14.966  2.1660 -3.6752 -2.0150
 3376TIP3    H231620   5.005   1.649  15.109 -1.7682 -0.9856 -0.7615
 3377TIP3   OH231621   4.944   0.740  11.117  0.4918  0.1938  0.0602
 3377TIP3    H131622   5.019   0.690  11.149  0.5880 -0.5552 -1.2658
 3377TIP3    H231623   4.979   0.828  11.103  0.7293  0.2365  0.8771
 3378TIP3   OH231624   0.689   5.782  16.928  0.4063  0.3776 -0.4678
 3378TIP3    H131625   0.664   5.690  16.925  0.5727  0.2760  0.7603
 3378TIP3    H231626   0.634   5.819  16.996 -0.1115  1.3516 -1.3821
 3379TIP3   OH231627   5.181   5.642   4.187  0.2295 -0.3140 -0.1546
 3379TIP3    H131628   5.252   5.702   4.207 -0.0158 -0.3487  0.8966
 3379TIP3    H231629   5.158   5.660   4.096  1.3151 -0.0349 -0.3836
 3380TIP3   OH231630   5.598   3.133   2.920 -0.8808 -0.5102  0.3572
 3380TIP3    H131631   5.586   3.156   2.828  1.6016  0.8565  0.2867
 3380TIP3    H231632   5.638   3.211   2.959 -0.0920 -1.7336  2.1354
 3381TIP3   OH231633   5.570   1.854   5.418 -0.2983 -0.0132 -0.2854
 3381TIP3    H131634   5.615   1.784   5.465 -0.4280  0.8700  1.2273
 3381TIP3    H231635   5.621   1.933   5.437 -1.1870  0.6171 -0.4150
 3382TIP3   OH231636   6.843   1.561   2.135 -0.4804  0.5808 -0.2297
 3382TIP3    H131637   6.915   1.565   2.072 -0.8607 -0.9823 -0.8200
 3382TIP3    H231638   6.848   1.644   2.182  1.2533  0.8237 -0.7466
 3383TIP3   OH231639   0.504   3.216   0.879  0.2554 -0.2654 -0.1438
 3383TIP3    H131640   0.529   3.225   0.787 -0.3372 -0.7253 -0.3558
 3383TIP3    H231641   0.459   3.132   0.884  1.0491 -0.6703  0.7484
 3384TIP3   OH231642   5.068   5.624  12.264 -0.1995 -0.5014 -0.4665
 3384TIP3    H131643   5.058   5.665  12.350  1.1734 -0.6697 -0.2043
 3384TIP3    H231644   5.151   5.577  12.269 -0.1327 -0.5819 -1.8603
 3385TIP3   OH231645   5.649   2.579   4.218  0.2157  0.6052 -0.2687
 3385TIP3    H131646   5.640   2.674   4.206 -0.0580  0.5873 -0.2030
 3385TIP3    H231647   5.728   2.570   4.273  0.7688  0.7447 -1.0255
 3386TIP3   OH231648   2.246   6.246   5.550 -0.1497 -0.1072  0.1251
 3386TIP3    H131649   2.324   6.190   5.556  0.2386  0.5006  0.9335
 3386TIP3    H231650   2.172   6.185   5.550  0.3331 -0.7244 -1.2204
 3387TIP3   OH231651   6.314   3.662  16.410 -0.3669 -0.0701  0.4139
 3387TIP3    H131652   6.314   3.637  16.317  0.7708  0.1454  0.3443
 3387TIP3    H231653   6.406   3.677  16.431 -0.8210  2.3730  0.9290
 3388TIP3   OH231654   6.729   0.661  12.512  0.4685  0.7179  0.5565
 3388TIP3    H131655   6.684   0.729  12.462  0.3473 -0.3488 -0.8440
 3388TIP3    H231656   6.771   0.708  12.584 -0.9723  2.0435  0.5796
 3389TIP3   OH231657   3.533   1.400  11.189  0.1064 -0.1077  0.1020
 3389TIP3    H131658   3.488   1.426  11.109 -0.7456 -0.0813  0.5808
 3389TIP3    H231659   3.588   1.475  11.211  2.6574 -1.1660 -2.0241
 3390TIP3   OH231660   5.352   2.903  13.159  0.0012  0.0596  0.6126
 3390TIP3    H131661   5.263   2.911  13.192 -0.3766  0.2892 -0.4165
 3390TIP3    H231662   5.395   2.842  13.219 -1.2136 -1.0541  0.3836
 3391TIP3   OH231663   3.895   6.311  10.806  0.1336  0.7183  0.3875
 3391TIP3    H131664   3.816   6.257  10.807  1.0505 -0.6488  0.7142
 3391TIP3    H231665   3.907   6.333  10.713 -0.1632  0.2176  0.2262
 3392TIP3   OH231666   2.308   0.077  15.225  0.1252  0.0595  0.1116
 3392TIP3    H131667   2.285   0.029  15.145  1.5411 -0.8284  0.1962
 3392TIP3    H231668   2.226   0.085  15.273 -0.7821  0.7008 -1.4606
 3393TIP3   OH231669   5.134   1.831   0.015 -0.1096 -0.0547 -0.5407
 3393TIP3    H131670   5.197   1.847   0.085 -0.0411  0.4892 -0.7169
 3393TIP3    H231671   5.055   1.800   0.060 -0.5734  1.7148 -0.0622
 3394TIP3   OH231672   3.345   2.622   5.438  0.7112  0.2110 -0.1574
 3394TIP3    H131673   3.272   2.646   5.496  0.9133  0.9725 -0.2186
 3394TIP3    H231674   3.351   2.694   5.377  3.1484  1.4089  1.3659
 3395TIP3   OH231675   6.143   0.336  10.785  0.0601  0.3351  0.4611
 3395TIP3    H131676   6.105   0.249  10.776 -1.3016  0.8184  1.2229
 3395TIP3    H231677   6.109   0.386  10.710 -0.4474  0.6357  0.8827
 3396TIP3   OH231678   4.644   5.683   3.071  0.0035 -0.3065  0.6854
 3396TIP3    H131679   4.686   5.598   3.071  0.1479 -0.2355  0.7683
 3396TIP3    H231680   4.638   5.706   2.978  1.1547  0.1741  0.7084
 3397TIP3   OH231681   6.477   3.034  16.146  0.2549  0.7630 -0.1839
 3397TIP3    H131682   6.399   3.086  16.163 -1.6606 -1.2891 -2.0738
 3397TIP3    H231683   6.478   2.968  16.215 -0.1345  0.3158 -0.6042
 3398TIP3   OH231684   1.504   0.083  10.899  0.0118  0.1207 -0.5157
 3398TIP3    H131685   1.550   0.002  10.877  0.0486  0.5646 -2.2701
 3398TIP3    H231686   1.434   0.057  10.958  0.9675 -0.9386  0.1954
 3399TIP3   OH231687   4.188   1.304  16.863 -0.1167 -0.0032  0.4219
 3399TIP3    H131688   4.113   1.249  16.885 -1.1252  1.2877  0.3454
 3399TIP3    H231689   4.264   1.249  16.880 -1.0653 -1.2169  0.8779
 3400TIP3   OH231690   1.849   2.197   1.596  0.0629 -0.5174 -0.3393
 3400TIP3    H131691   1.894   2.118   1.565 -0.2524 -0.9592  0.3092
 3400TIP3    H231692   1.920   2.259   1.613  0.2852 -0.4863 -1.3035
 3401TIP3   OH231693   1.935   3.937  14.672  0.1386  0.3220  0.1934
 3401TIP3    H131694   2.027   3.938  14.698  0.1735 -1.6516  0.3093
 3401TIP3    H231695   1.936   3.941  14.577  0.4111 -0.7279  0.1429
 3402TIP3   OH231696   4.122   5.688   1.719  0.1321 -0.0661  0.0326
 3402TIP3    H131697   4.201   5.646   1.685 -1.4361 -0.7456 -3.1388
 3402TIP3    H231698   4.138   5.782   1.710  0.3119 -0.2144 -1.4041
 3403TIP3   OH231699   0.616   5.513  13.772 -0.0085 -0.2070 -0.0143
 3403TIP3    H131700   0.651   5.593  13.811 -1.0075  0.7494 -1.0017
 3403TIP3    H231701   0.652   5.511  13.683 -0.4095 -0.5621 -0.1737
 3404TIP3   OH231702   6.804   0.641  11.161 -0.0911 -0.1248 -1.2988
 3404TIP3    H131703   6.741   0.712  11.166  1.0820  0.8526  0.8349
 3404TIP3    H231704   6.865   0.667  11.092 -0.8398 -0.0959 -1.9580
 3405TIP3   OH231705   1.669   5.453   3.745  0.1978 -0.3460  0.3395
 3405TIP3    H131706   1.755   5.432   3.708 -0.7032 -2.2723 -0.7724
 3405TIP3    H231707   1.650   5.540   3.710  0.9246 -0.6398 -0.8526
 3406TIP3   OH231708   5.171   6.699  11.448  0.0997  0.2494 -0.0892
 3406TIP3    H131709   5.153   6.609  11.474  2.9828  0.3323  2.9485
 3406TIP3    H231710   5.169   6.698  11.352 -0.7651 -2.8120 -0.1283
 3407TIP3   OH231711   2.786   4.356   5.583  0.2000 -0.1588 -0.0732
 3407TIP3    H131712   2.699   4.317   5.575  0.2212 -0.5325  1.3093
 3407TIP3    H231713   2.774   4.429   5.644  1.0634 -0.9430  1.0717
 3408TIP3   OH231714   3.125   2.535   0.861  0.4486  0.1909 -0.4533
 3408TIP3    H131715   3.130   2.625   0.894  1.9796  0.9750 -2.5551
 3408TIP3    H231716   3.216   2.511   0.843 -0.1078 -0.9006 -2.0757
 3409TIP3   OH231717   6.389   4.332   6.622 -0.3757  0.7214  0.4371
 3409TIP3    H131718   6.388   4.422   6.590 -0.7902  1.1564  1.6263
 3409TIP3    H231719   6.341   4.335   6.705  0.2615 -0.4518  0.8768
 3410TIP3   OH231720   3.541   5.789  15.664 -0.3303 -0.1720  0.0301
 3410TIP3    H131721   3.504   5.850  15.728  2.1850  1.7217 -0.1320
 3410TIP3    H231722   3.548   5.706  15.710  3.3668  1.5915  3.2327
 3411TIP3   OH231723   5.855   4.695  11.217 -0.2914 -0.2542  0.6490
 3411TIP3    H131724   5.945   4.665  11.227 -0.1900  0.1220  0.8477
 3411TIP3    H231725   5.807   4.650  11.286 -0.0007  0.6085  1.4321
 3412TIP3   OH231726   0.835   3.466  14.692 -0.8967  0.4820  0.6700
 3412TIP3    H131727   0.753   3.457  14.643 -1.1560  0.0557  1.1791
 3412TIP3    H231728   0.896   3.507  14.630 -0.8031 -1.3032 -0.4873
 3413TIP3   OH231729   1.718   3.145  14.893  0.5474 -0.0170 -0.3204
 3413TIP3    H131730   1.665   3.208  14.942 -0.3592 -0.8602 -0.1786
 3413TIP3    H231731   1.785   3.198  14.851  0.5951  0.8821  0.8289
 3414TIP3   OH231732   4.649   5.388   6.207  0.2528  0.0839  0.1403
 3414TIP3    H131733   4.642   5.345   6.292 -1.1356 -0.7500 -0.3585
 3414TIP3    H231734   4.568   5.439   6.199 -0.0795 -0.5828 -1.0393
 3415TIP3   OH231735   4.385   2.921  14.731 -0.4308 -0.4118 -0.2383
 3415TIP3    H131736   4.395   3.002  14.781  1.9545 -0.2519 -0.8370
 3415TIP3    H231737   4.421   2.942  14.644  1.3555 -2.3625 -0.0665
 3416TIP3   OH231738   1.545   0.322  13.121 -0.2595 -0.0007 -0.2875
 3416TIP3    H131739   1.601   0.297  13.048  0.4476 -1.1042  0.5879
 3416TIP3    H231740   1.509   0.407  13.097  2.9920  1.5008 -0.2639
 3417TIP3   OH231741   4.123   3.464   4.661  0.1965 -0.0142 -0.0801
 3417TIP3    H131742   4.126   3.528   4.732 -1.3009  0.3421 -0.3083
 3417TIP3    H231743   4.214   3.453   4.635  0.8125 -0.2767  1.9999
 3418TIP3   OH231744   3.564   0.017   4.902 -0.2656  0.3916 -0.5879
 3418TIP3    H131745   3.580  -0.041   4.827 -0.3412 -0.8929  0.3535
 3418TIP3    H231746   3.587  -0.036   4.978 -1.1383  1.3259  0.3587
 3419TIP3   OH231747   6.447   1.410  12.473  0.0941 -1.0494  0.4748
 3419TIP3    H131748   6.392   1.353  12.420 -0.5687 -0.5642  0.6285
 3419TIP3    H231749   6.443   1.495  12.429  1.2120 -1.1424  0.1462
 3420TIP3   OH231750   1.084   5.115   0.744 -0.0171 -0.1027 -0.7075
 3420TIP3    H131751   1.096   5.207   0.722  1.9088 -0.6742 -2.4140
 3420TIP3    H231752   1.033   5.079   0.671 -0.4411 -0.4868 -0.2360
 3421TIP3   OH231753   5.781   5.030  16.793 -0.1305  0.4758 -0.4406
 3421TIP3    H131754   5.702   5.039  16.741 -0.3056 -0.8923 -0.4553
 3421TIP3    H231755   5.782   5.107  16.850 -3.2650 -0.9830  1.9118
 3422TIP3   OH231756   5.636   3.670   4.574 -0.6992 -0.0702 -0.0223
 3422TIP3    H131757   5.665   3.738   4.513 -1.5513  0.3095 -0.0243
 3422TIP3    H231758   5.565   3.711   4.622 -0.0572 -0.3774  1.2216
 3423TIP3   OH231759   6.465   6.397  15.189  0.0158 -0.2844  0.7712
 3423TIP3    H131760   6.392   6.422  15.131  0.2310  1.2565  1.1318
 3423TIP3    H231761   6.515   6.334  15.137  0.7808  1.8060 -1.2080
 3424TIP3   OH231762   2.045   3.349   3.849 -0.2453  0.2330  0.5883
 3424TIP3    H131763   2.051   3.255   3.832  1.4267  0.4152 -0.0131
 3424TIP3    H231764   2.087   3.390   3.773  1.4647  1.3425  2.0471
 3425TIP3   OH231765   4.196   6.460   2.613  0.0770 -0.1142 -0.0574
 3425TIP3    H131766   4.131   6.505   2.559 -0.5484  1.7508  2.0824
 3425TIP3    H231767   4.161   6.372   2.623  0.9955 -1.0652 -3.8134
 3426TIP3   OH231768   0.421   1.797  13.163  0.0423 -0.3422 -0.1677
 3426TIP3    H131769   0.346   1.787  13.221  0.0748  0.1424 -0.0429
 3426TIP3    H231770   0.485   1.734  13.196  0.8205  1.2480  1.5471
 3427TIP3   OH231771   4.268   3.980  15.648  0.1560  0.2887  0.1553
 3427TIP3    H131772   4.294   3.914  15.712  0.2451  1.5479  1.4695
 3427TIP3    H231773   4.347   3.997  15.597  0.2385 -0.3371  0.0724
 3428TIP3   OH231774   3.780   5.470  11.396 -0.3930  0.1133 -0.1404
 3428TIP3    H131775   3.749   5.559  11.414 -1.0252 -0.0573 -0.3500
 3428TIP3    H231776   3.708   5.414  11.424  0.2095 -0.3653  0.4662
 3429TIP3   OH231777   6.376   6.742  13.729  0.2799  0.1465  0.5720
 3429TIP3    H131778   6.419   6.662  13.699  0.8452  1.1013 -1.3434
 3429TIP3    H231779   6.415   6.811  13.676 -1.6968  1.4241  0.6941
 3430TIP3   OH231780   0.729   3.472  12.589 -0.2788  0.4059 -0.5619
 3430TIP3    H131781   0.816   3.511  12.584 -0.5068  0.9452 -0.4502
 3430TIP3    H231782   0.734   3.393  12.535  0.4642  0.0751 -0.0347
 3431TIP3   OH231783   1.486   3.503   0.709  0.5974 -0.0831  0.2197
 3431TIP3    H131784   1.531   3.544   0.635  1.1805  0.9894  1.1489
 3431TIP3    H231785   1.393   3.511   0.688  0.7520  0.3978 -0.3032
 3432TIP3   OH231786   1.788   6.148   2.278 -0.3527 -0.2655  0.3078
 3432TIP3    H131787   1.833   6.121   2.198 -1.5965 -0.3672 -0.3784
 3432TIP3    H231788   1.695   6.149   2.254 -0.9969 -2.4776  2.3401
 3433TIP3   OH231789   5.126   5.213   1.946 -0.5121  0.2299 -0.1565
 3433TIP3    H131790   5.202   5.189   1.999 -1.2459 -0.3888  0.6380
 3433TIP3    H231791   5.051   5.196   2.002 -1.3872 -1.2729 -1.6608
 3434TIP3   OH231792   4.796   1.371   0.576 -0.1404 -0.2754  0.6194
 3434TIP3    H131793   4.832   1.455   0.603 -1.8110  0.3373  1.0784
 3434TIP3    H231794   4.862   1.307   0.603  1.0384  0.8513  0.4914
 3435TIP3   OH231795   4.017   4.314   1.291 -0.3890  0.1969 -0.0795
 3435TIP3    H131796   4.070   4.383   1.331 -0.2402  1.0274 -1.6580
 3435TIP3    H231797   4.017   4.244   1.357 -0.6794  1.7164  1.6274
 3436TIP3   OH231798   2.997   3.211  14.850  0.5699 -0.3936 -0.2883
 3436TIP3    H131799   2.939   3.229  14.925  0.2034 -1.8546 -0.1736
 3436TIP3    H231800   3.002   3.294  14.803  1.5590  0.8531  1.8374
 3437TIP3   OH231801   3.547   0.822   4.645 -0.3430  0.0213  0.6105
 3437TIP3    H131802   3.530   0.898   4.701  0.9155  1.2863 -0.6198
 3437TIP3    H231803   3.460   0.790   4.621 -0.9102 -0.3350  2.9253
 3438TIP3   OH231804   0.331   3.321   1.394  0.3012  0.4395 -0.4469
 3438TIP3    H131805   0.382   3.391   1.436  1.1625 -1.3344  1.6395
 3438TIP3    H231806   0.375   3.306   1.311  1.8162  0.5278  0.3034
 3439TIP3   OH231807   1.352   6.328  13.940 -0.0092 -0.1930  0.1299
 3439TIP3    H131808   1.401   6.409  13.955  1.3373 -1.1893  1.3410
 3439TIP3    H231809   1.380   6.269  14.010 -1.1824 -1.6251 -0.5416
 3440TIP3   OH231810   3.383   5.391  16.665  0.2382 -0.2460 -0.2216
 3440TIP3    H131811   3.403   5.484  16.672  0.6106 -0.2932 -0.6423
 3440TIP3    H231812   3.468   5.349  16.652 -0.0621 -0.5121 -1.3734
 3441TIP3   OH231813   0.599   6.548   5.440 -0.0987  0.5143 -0.3809
 3441TIP3    H131814   0.566   6.578   5.356 -0.0632 -1.9147 -1.3445
 3441TIP3    H231815   0.692   6.570   5.439 -0.5428  2.6705  0.1282
 3442TIP3   OH231816   4.904   0.877   4.492  0.4423 -0.2600 -0.3421
 3442TIP3    H131817   4.999   0.891   4.485  0.4623 -0.8424 -1.5116
 3442TIP3    H231818   4.871   0.956   4.534  1.7378 -1.0819  2.4217
 3443TIP3   OH231819   5.387   2.613  12.548  0.4527 -0.0155  0.3044
 3443TIP3    H131820   5.316   2.674  12.530  2.2121  1.8964 -0.4973
 3443TIP3    H231821   5.404   2.623  12.642  0.6350  0.6276  0.2053
 3444TIP3   OH231822   0.620   5.056  12.192 -0.4181  0.2850 -0.5386
 3444TIP3    H131823   0.644   5.120  12.124  1.5977 -0.5878 -0.7363
 3444TIP3    H231824   0.537   5.088  12.227  0.2395  2.7248 -0.9946
 3445TIP3   OH231825   1.383   5.420  15.520 -0.1391  0.1089 -0.0851
 3445TIP3    H131826   1.387   5.453  15.431 -1.3249 -2.1519 -1.0455
 3445TIP3    H231827   1.380   5.325  15.511  2.0557 -0.3419  2.4726
 3446TIP3   OH231828   5.786   3.114   2.419 -0.2338 -0.5181 -0.2749
 3446TIP3    H131829   5.807   3.078   2.333 -0.5073 -1.0169 -0.1345
 3446TIP3    H231830   5.839   3.064   2.481 -0.6281 -0.6985 -0.0778
 3447TIP3   OH231831   1.088   0.113  16.882  0.1034 -0.4273  0.0431
 3447TIP3    H131832   1.054   0.179  16.942  2.4132 -0.0906  1.0840
 3447TIP3    H231833   1.122   0.162  16.808  3.2894 -0.1454  1.5276
 3448TIP3   OH231834   1.895   4.376   3.218 -0.5690 -0.2238  0.2739
 3448TIP3    H131835   1.989   4.371   3.202 -0.5723  0.9011 -0.1608
 3448TIP3    H231836   1.862   4.435   3.151 -1.5057 -0.1635  0.7734
 3449TIP3   OH231837   4.738   3.446  13.701  0.0831 -0.1918 -0.1241
 3449TIP3    H131838   4.668   3.425  13.638 -0.7367 -0.2594  0.7868
 3449TIP3    H231839   4.700   3.514  13.757 -0.6774 -2.7651  2.7292
 3450TIP3   OH231840   0.670   0.259   0.459  0.1588 -0.0454  0.4321
 3450TIP3    H131841   0.752   0.307   0.458  1.4112 -1.9735 -2.6531
 3450TIP3    H231842   0.604   0.323   0.432  0.9584  1.0037  0.8945
 3451TIP3   OH231843   1.619   5.311   4.215 -0.1178 -0.1642  0.2500
 3451TIP3    H131844   1.669   5.392   4.222 -1.8921  0.9460  0.8566
 3451TIP3    H231845   1.566   5.322   4.135 -0.4634 -0.6689  0.3998
 3452TIP3   OH231846   0.675   6.828  12.446  0.3468 -0.4877  0.1279
 3452TIP3    H131847   0.620   6.791  12.516  0.3403 -0.1989  0.2765
 3452TIP3    H231848   0.756   6.853  12.489 -0.2064  1.0722  0.3453
 3453TIP3   OH231849   0.603   5.449   4.566 -0.1750  0.7326  0.1635
 3453TIP3    H131850   0.615   5.412   4.478  1.5880  1.1059  0.2130
 3453TIP3    H231851   0.563   5.534   4.550  0.0599  0.7655 -0.2731
 3454TIP3   OH231852   0.657   6.289  14.041  0.5829  0.2675  0.0390
 3454TIP3    H131853   0.720   6.237  13.991  0.7228  0.2736  0.2054
 3454TIP3    H231854   0.682   6.380  14.023  0.4525  0.2748 -0.1086
 3455TIP3   OH231855   1.923   0.196  16.014 -0.3009  0.1691  1.0066
 3455TIP3    H131856   1.875   0.138  16.072 -0.2536 -1.3077 -0.3446
 3455TIP3    H231857   1.892   0.173  15.926 -1.2236  3.1147  0.4638
 3456TIP3   OH231858   4.620   2.387   2.844 -0.0774  0.0462 -0.3606
 3456TIP3    H131859   4.626   2.369   2.750  1.4848 -0.5810 -0.1657
 3456TIP3    H231860   4.700   2.436   2.864 -1.7975  2.8644  0.1085
 3457TIP3   OH231861   2.680   6.406   3.925 -0.0802 -0.3641 -0.2497
 3457TIP3    H131862   2.622   6.481   3.941  0.1946 -0.1839 -0.0974
 3457TIP3    H231863   2.757   6.424   3.979  0.3137 -0.3772 -0.8079
 3458TIP3   OH231864   0.850   6.647  11.554 -0.0432 -0.0628 -0.3011
 3458TIP3    H131865   0.853   6.703  11.632 -1.4709 -1.7632  1.0575
 3458TIP3    H231866   0.863   6.707  11.481  1.0728  1.6428  1.2016
 3459TIP3   OH231867   5.667   5.789  11.892 -0.4379 -0.0085 -0.3114
 3459TIP3    H131868   5.644   5.735  11.968 -2.5180  0.8171 -0.2919
 3459TIP3    H231869   5.614   5.755  11.821 -1.9622  2.0593 -0.2494
 3460TIP3   OH231870   0.215   5.303   5.967 -0.5346  0.0920  0.0030
 3460TIP3    H131871   0.185   5.393   5.954  0.8288  0.6556  0.5777
 3460TIP3    H231872   0.299   5.299   5.921 -1.0592 -1.2044 -0.8936
 3461TIP3   OH231873   6.590   0.573  11.915  0.0899 -0.4301  0.1316
 3461TIP3    H131874   6.605   0.588  11.821 -1.2370 -0.1905 -0.0540
 3461TIP3    H231875   6.508   0.523  11.918  0.0270 -0.2766  1.1805
 3462TIP3   OH231876   4.732   1.564   4.390  0.3083 -0.2393  0.3164
 3462TIP3    H131877   4.663   1.504   4.361 -1.4274  1.6766  0.2411
 3462TIP3    H231878   4.809   1.538   4.341  0.1324 -3.4672  1.5117
 3463TIP3   OH231879   0.009   1.315   2.685 -0.1424 -0.1195  1.0980
 3463TIP3    H131880  -0.013   1.243   2.626 -0.9969 -0.2250  1.5334
 3463TIP3    H231881   0.090   1.287   2.727 -0.1755 -0.5872  0.8603
 3464TIP3   OH231882   4.961   1.570  11.267 -0.4173 -0.0245  0.5606
 3464TIP3    H131883   4.946   1.476  11.263 -0.1194 -0.1552  1.9580
 3464TIP3    H231884   5.019   1.582  11.342 -1.6036  1.3847  1.3210
 3465TIP3   OH231885   1.841   6.064   1.237  0.3610 -0.3516 -0.1955
 3465TIP3    H131886   1.829   6.002   1.310 -0.6192  0.6743  0.5533
 3465TIP3    H231887   1.831   6.150   1.278  0.5792  0.2659 -1.4212
 3466TIP3   OH231888   3.798   2.513   2.789 -0.5712 -0.3583  0.7361
 3466TIP3    H131889   3.871   2.462   2.824 -1.3771 -2.1446 -0.0826
 3466TIP3    H231890   3.840   2.576   2.730  0.4587  0.1303  1.9256
 3467TIP3   OH231891   5.602   1.375  12.963 -0.3315  0.1455  0.2322
 3467TIP3    H131892   5.660   1.354  13.036 -1.4222  0.0459  1.1061
 3467TIP3    H231893   5.521   1.405  13.005 -1.6239 -1.5936 -0.8798
 3468TIP3   OH231894   6.680   6.350   0.803 -0.0380  0.0550 -0.1225
 3468TIP3    H131895   6.648   6.302   0.880 -0.3367 -1.5682 -1.2134
 3468TIP3    H231896   6.720   6.282   0.748  0.0106  1.1597 -1.4893
 3469TIP3   OH231897   0.311   6.483  13.071 -0.2471 -0.2426 -0.2095
 3469TIP3    H131898   0.283   6.461  13.160  0.8960 -1.9071 -0.2116
 3469TIP3    H231899   0.252   6.433  13.015 -2.1443  2.1900 -0.5134
 3470TIP3   OH231900   0.796   4.235  13.856  0.7411  0.3987  0.3001
 3470TIP3    H131901   0.793   4.215  13.950 -3.0494 -0.1050  0.2167
 3470TIP3    H231902   0.782   4.330  13.852 -1.0275  0.1607  0.2546
 3471TIP3   OH231903   4.732   1.146  14.846 -0.0306  0.4637  0.4961
 3471TIP3    H131904   4.753   1.124  14.937 -0.2492  0.7548  0.6184
 3471TIP3    H231905   4.753   1.066  14.797 -0.2903  0.1690  0.8540
 3472TIP3   OH231906   1.137   4.849  12.114  0.4061 -0.0488 -0.3147
 3472TIP3    H131907   1.101   4.895  12.190  1.8567  0.1621  0.2797
 3472TIP3    H231908   1.228   4.830  12.139  0.3742 -1.6180 -1.2717
 3473TIP3   OH231909   4.874   2.807   5.522  1.2763  0.6933 -0.2815
 3473TIP3    H131910   4.872   2.716   5.491 -0.5250  0.8039 -0.6334
 3473TIP3    H231911   4.966   2.828   5.532  1.7117 -1.5560  0.9404
 3474TIP3   OH231912   2.427   6.407  10.710 -0.8675  0.2962  0.1886
 3474TIP3    H131913   2.485   6.382  10.782 -1.2609  1.5342  0.9741
 3474TIP3    H231914   2.474   6.379  10.631  1.1065  1.7333  0.7554
 3475TIP3   OH231915   3.978   5.542  13.260  0.3401  0.0427  0.5435
 3475TIP3    H131916   4.064   5.536  13.216  0.5264  2.5512  0.4491
 3475TIP3    H231917   3.918   5.496  13.201  1.0340  1.2380 -1.1682
 3476TIP3   OH231918   5.691   2.689  14.199 -0.2444  0.7828  0.9092
 3476TIP3    H131919   5.783   2.663  14.203 -0.3882 -0.7177 -2.3062
 3476TIP3    H231920   5.643   2.615  14.237 -0.2435 -0.1125 -0.7539
 3477TIP3   OH231921   6.334   1.802  13.979  0.5204 -0.4649  0.0840
 3477TIP3    H131922   6.417   1.845  13.961  1.4118 -2.2403 -0.3525
 3477TIP3    H231923   6.358   1.711  13.996 -1.3955 -1.2226 -0.9422
 3478TIP3   OH231924   2.458   5.123   5.825  0.2479 -0.8411  0.1657
 3478TIP3    H131925   2.447   5.117   5.730 -0.0048  0.0303  0.1324
 3478TIP3    H231926   2.514   5.200   5.838 -1.6155  0.4753  0.8187
 3479TIP3   OH231927   5.686   0.264   0.489 -0.1662 -0.3024  0.4423
 3479TIP3    H131928   5.780   0.283   0.480 -1.1226  4.8830 -2.4541
 3479TIP3    H231929   5.661   0.224   0.406 -0.7543 -0.6458  0.7740
 3480TIP3   OH231930   4.625   2.704  16.898 -0.0676 -0.6785 -0.0547
 3480TIP3    H131931   4.678   2.645  16.845 -1.2774 -1.9231  0.0757
 3480TIP3    H231932   4.631   2.788  16.853  2.7375 -0.4841  0.4501
 3481TIP3   OH231933   1.569   6.350   1.802 -0.4572 -0.0637 -0.2865
 3481TIP3    H131934   1.651   6.377   1.759 -2.3254  0.2187 -4.0663
 3481TIP3    H231935   1.502   6.403   1.761 -2.7833 -1.4989  1.4391
 3482TIP3   OH231936   4.144   6.109   0.465  0.5934  0.0244 -0.4496
 3482TIP3    H131937   4.128   6.188   0.517  2.1857  1.2779 -1.7638
 3482TIP3    H231938   4.180   6.046   0.528 -0.0956  0.5504  0.4960
 3483TIP3   OH231939   0.581   3.662  15.871  0.1863  0.4296 -0.2097
 3483TIP3    H131940   0.609   3.594  15.932 -3.1268  0.7318  1.9650
 3483TIP3    H231941   0.602   3.744  15.916 -0.0693  0.7260 -0.6248
 3484TIP3   OH231942   1.564   2.427  13.530 -0.1199  0.5621 -0.4370
 3484TIP3    H131943   1.580   2.470  13.614  0.6048  0.8037 -0.6832
 3484TIP3    H231944   1.644   2.376  13.514  0.1078  1.1782 -1.3627
 3485TIP3   OH231945   6.658   2.324   0.065  0.0115  0.3532 -0.4649
 3485TIP3    H131946   6.646   2.362  -0.022 -1.6713 -0.0698 -0.4648
 3485TIP3    H231947   6.678   2.232   0.048  2.1411  0.7597 -0.4216
 3486TIP3   OH231948   4.149   6.799  11.769 -0.4956  0.2141 -0.2229
 3486TIP3    H131949   4.231   6.823  11.811  0.0022 -1.2349 -0.3348
 3486TIP3    H231950   4.167   6.716  11.724 -2.2400 -0.6016  0.4831
 3487TIP3   OH231951   4.412   2.255   1.573  0.5992  0.2600  0.6920
 3487TIP3    H131952   4.384   2.167   1.547  0.8849  0.4687 -0.3469
 3487TIP3    H231953   4.383   2.262   1.664  1.4166 -1.2673  1.1163
 3488TIP3   OH231954   6.232   1.444  14.741 -0.0665  0.2081 -0.1243
 3488TIP3    H131955   6.165   1.388  14.704  0.6712  0.0586 -1.3106
 3488TIP3    H231956   6.315   1.407  14.710  0.8425 -1.3180  3.5672
 3489TIP3   OH231957   4.849   4.494   3.208 -0.2467 -0.1894 -0.6308
 3489TIP3    H131958   4.817   4.548   3.280  1.3261  1.2511 -0.9269
 3489TIP3    H231959   4.928   4.452   3.243  2.8292  3.4803 -2.4058
 3490TIP3   OH231960   0.717   2.270  13.924  0.4092 -0.0973  0.1094
 3490TIP3    H131961   0.776   2.201  13.951  0.9583  0.7953  1.2931
 3490TIP3    H231962   0.729   2.277  13.830  2.5477  0.3457  0.3683
 3491TIP3   OH231963   0.183   1.654   1.302  0.1671 -0.1171 -0.5524
 3491TIP3    H131964   0.099   1.639   1.346 -0.3673  0.6197 -1.3056
 3491TIP3    H231965   0.248   1.615   1.361 -0.5053  0.9758  0.9586
 3492TIP3   OH231966   1.918   5.308  11.425  0.5694 -0.5384 -0.1221
 3492TIP3    H131967   1.970   5.380  11.460  0.4072 -0.9937  1.1109
 3492TIP3    H231968   1.982   5.247  11.388  1.0365 -1.4630  2.0638
 3493TIP3   OH231969   2.185   0.957   2.178 -0.5933  0.0362  0.2083
 3493TIP3    H131970   2.186   1.037   2.126 -0.9200 -1.7031 -2.6771
 3493TIP3    H231971   2.263   0.963   2.233 -0.3123  2.0558 -0.3480
 3494TIP3   OH231972   0.893   4.669  11.340 -0.2963 -0.0534  0.0507
 3494TIP3    H131973   0.864   4.760  11.339 -2.0869 -0.5411  1.3430
 3494TIP3    H231974   0.836   4.625  11.277  1.5838 -0.0676 -1.7439
 3495TIP3   OH231975   1.004   6.525   1.208  0.0850  0.0067  0.5997
 3495TIP3    H131976   0.963   6.602   1.247 -1.5469 -0.2691 -0.4862
 3495TIP3    H231977   0.940   6.455   1.223  0.7369 -0.7277 -0.0292
 3496TIP3   OH231978   4.032   0.591   2.243  0.3165  0.6660 -0.2410
 3496TIP3    H131979   4.009   0.512   2.194  0.1986  1.1390 -0.9517
 3496TIP3    H231980   3.963   0.654   2.222  0.2597  0.8740  0.5366
 3497TIP3   OH231981   3.202   1.241  16.273  0.1229  0.5181 -0.3297
 3497TIP3    H131982   3.180   1.285  16.355  1.8632 -1.5333  1.3398
 3497TIP3    H231983   3.248   1.307  16.222  0.1884  1.4610  0.9071
 3498TIP3   OH231984   6.502   4.890  15.807 -0.8863 -0.1103  0.3038
 3498TIP3    H131985   6.484   4.940  15.888  0.0761 -0.9310  1.0461
 3498TIP3    H231986   6.595   4.906  15.790 -0.8327 -0.7969 -0.0487
 3499TIP3   OH231987   3.191   1.871   2.121  0.7671 -0.9399  0.1972
 3499TIP3    H131988   3.251   1.945   2.130  0.8235 -0.5958 -2.2975
 3499TIP3    H231989   3.236   1.798   2.162  1.1570  0.1465  1.8130
 3500TIP3   OH231990   3.856   0.336  13.172 -0.1853  0.1596 -0.1163
 3500TIP3    H131991   3.895   0.268  13.226  0.2235 -0.9877 -1.8003
 3500TIP3    H231992   3.830   0.404  13.234  2.2445 -0.1179  1.2922
 3501TIP3   OH231993   0.455   3.334  12.534 -0.0439 -0.0762  0.6356
 3501TIP3    H131994   0.368   3.296  12.545 -0.6183  1.3688  1.3056
 3501TIP3    H231995   0.465   3.394  12.607  0.7816  1.1292 -0.4129
 3502TIP3   OH231996   2.246   1.773  16.459  0.5393 -0.3745 -0.3957
 3502TIP3    H131997   2.273   1.826  16.534  0.3444  1.1323 -1.3516
 3502TIP3    H231998   2.228   1.837  16.390 -1.9462 -1.5367 -0.9055
 3503TIP3   OH231999   3.723   1.856  13.822  0.2214  0.2014 -0.0721
 3503TIP3    H132000   3.662   1.806  13.876  1.7686 -0.4628  1.1543
 3503TIP3    H232001   3.793   1.882  13.883  0.8319  1.5243 -1.2679
 3504TIP3   OH232002   4.871   6.353   0.119 -0.1810 -0.2937  0.2791
 3504TIP3    H132003   4.965   6.369   0.122 -0.2695  0.2331  0.3336
 3504TIP3    H232004   4.836   6.397   0.196 -0.5085 -0.2421  0.1039
 3505TIP3   OH232005   4.126   1.418  10.947  0.4589 -0.9068  0.6808
 3505TIP3    H132006   4.155   1.429  10.857 -1.4309 -0.0731  0.1237
 3505TIP3    H232007   4.089   1.330  10.950  0.1274 -0.7752  0.5132
 3506TIP3   OH232008   0.545   5.778  16.065  0.3285 -0.2867 -0.4697
 3506TIP3    H132009   0.564   5.687  16.044  0.8074  0.1062 -1.8741
 3506TIP3    H232010   0.479   5.774  16.134  2.1998 -1.7111  1.3754
 3507TIP3   OH232011   2.373   2.826  13.159  0.3058 -0.0601 -0.0518
 3507TIP3    H132012   2.377   2.863  13.247  1.1202  1.1425 -0.5622
 3507TIP3    H232013   2.408   2.895  13.103 -0.2906 -0.7676 -1.3346
 3508TIP3   OH232014   5.292   5.886   5.949 -0.4705 -0.0059 -0.0296
 3508TIP3    H132015   5.279   5.973   5.987 -0.1824 -0.4597  1.1807
 3508TIP3    H232016   5.384   5.886   5.922 -0.0150 -0.4361  1.4204
 3509TIP3   OH232017   6.208   3.917  16.356  0.6766 -0.2898 -0.2296
 3509TIP3    H132018   6.232   3.825  16.361 -0.9806 -0.7707 -0.5858
 3509TIP3    H232019   6.248   3.956  16.434  0.8222 -1.4375  0.2964
 3510TIP3   OH232020   5.776   3.497  16.903  0.4114 -0.2228  0.2238
 3510TIP3    H132021   5.755   3.511  16.995  1.6532 -0.8269  0.6140
 3510TIP3    H232022   5.848   3.557  16.884 -0.6534  0.8176 -0.7256
 3511TIP3   OH232023   1.293   0.558  14.100  0.3415  0.2490  0.1253
 3511TIP3    H132024   1.335   0.480  14.136  0.5971  0.1575 -0.3702
 3511TIP3    H232025   1.212   0.526  14.060  0.1380  0.3286  0.4663
 3512TIP3   OH232026   3.898   5.385  15.290  0.3038 -0.3410 -0.2973
 3512TIP3    H132027   3.865   5.300  15.262 -1.2807 -0.1345  0.7927
 3512TIP3    H232028   3.891   5.441  15.213  0.5321 -0.9755 -0.7793
 3513TIP3   OH232029   4.180   1.154  13.666  0.5016 -0.3558  0.0430
 3513TIP3    H132030   4.121   1.207  13.719  0.2773 -1.3392  0.8184
 3513TIP3    H232031   4.134   1.142  13.583 -0.5113 -1.2813  0.7142
 3514TIP3   OH232032   1.890   2.091  12.726  0.2954  0.1488 -0.1721
 3514TIP3    H132033   1.956   2.155  12.753 -0.7782  1.1569  0.1850
 3514TIP3    H232034   1.822   2.144  12.684 -0.8640 -0.6873  0.5991
 3515TIP3   OH232035   3.342   6.192   0.785 -0.3985 -0.5150 -0.5756
 3515TIP3    H132036   3.432   6.210   0.812 -0.6981  0.9886 -0.4727
 3515TIP3    H232037   3.331   6.242   0.704 -1.1831 -0.5480 -0.4976
 3516TIP3   OH232038   3.739   1.495   3.440 -0.2925  0.4482  0.5458
 3516TIP3    H132039   3.766   1.516   3.529 -1.4933 -0.4152  1.1286
 3516TIP3    H232040   3.783   1.413   3.420  0.9210  1.2199 -0.1322
 3517TIP3   OH232041   1.250   1.962   1.156 -0.8670 -0.1411 -0.1994
 3517TIP3    H132042   1.271   1.913   1.235 -2.0359 -0.3992 -0.0422
 3517TIP3    H232043   1.166   1.928   1.127 -0.7566  0.3878 -1.2081
 3518TIP3   OH232044   4.730   0.297   1.931 -0.1301 -0.3672 -0.0723
 3518TIP3    H132045   4.708   0.307   2.024  1.5296  2.3362  0.1326
 3518TIP3    H232046   4.824   0.313   1.927 -0.1569 -0.5166 -2.2379
 3519TIP3   OH232047   6.315   0.764   5.343  0.3683 -0.3506  0.4355
 3519TIP3    H132048   6.277   0.847   5.370  1.9030  0.1580  1.1783
 3519TIP3    H232049   6.410   0.777   5.352  0.6749 -1.9613 -0.0780
 3520TIP3   OH232050   4.349   4.751  11.334 -0.0713  0.1192 -0.3386
 3520TIP3    H132051   4.336   4.802  11.414  2.9217  1.1201 -0.3650
 3520TIP3    H232052   4.344   4.660  11.362 -2.8486  0.3514  0.2080
 3521TIP3   OH232053   4.760   0.771  11.315  0.2744 -0.5161 -0.2699
 3521TIP3    H132054   4.808   0.720  11.250 -1.5761 -0.9481 -1.3841
 3521TIP3    H232055   4.712   0.705  11.366  0.0595 -0.0560  0.1334
 3522TIP3   OH232056   3.464   3.793   6.657 -0.7696  0.5662 -0.7929
 3522TIP3    H132057   3.546   3.746   6.673 -2.1304 -2.2060 -1.5321
 3522TIP3    H232058   3.396   3.737   6.693 -2.5296  1.9218 -1.8531
 3523TIP3   OH232059   1.913   3.040   2.837 -0.0400 -0.3112  0.3840
 3523TIP3    H132060   1.925   2.956   2.882  1.7992  0.0718  0.6826
 3523TIP3    H232061   1.904   3.103   2.908 -0.4023 -0.1266  0.1715
 3524TIP3   OH232062   1.348   6.727  13.579  0.0525 -0.4634 -0.1133
 3524TIP3    H132063   1.336   6.775  13.497 -2.0105  1.0922  1.0015
 3524TIP3    H232064   1.400   6.786  13.634 -0.0339 -0.7481  0.2790
 3525TIP3   OH232065   0.244   4.594  14.133  0.4617  0.1867  0.2364
 3525TIP3    H132066   0.225   4.501  14.124  2.1209 -0.5701  3.1706
 3525TIP3    H232067   0.321   4.597  14.189 -0.7257  3.3509  1.9524
 3526TIP3   OH232068   2.615   0.929   1.829 -0.0659  0.2121  0.6396
 3526TIP3    H132069   2.566   0.978   1.762  0.3896 -0.9348 -0.5778
 3526TIP3    H232070   2.594   0.838   1.811 -0.1663 -0.1117  2.2835
 3527TIP3   OH232071   4.152   5.326   5.486 -0.2835  0.1330  0.1958
 3527TIP3    H132072   4.106   5.408   5.471  0.6231  0.9146  1.5208
 3527TIP3    H232073   4.107   5.263   5.430 -0.8377  1.5675 -1.0509
 3528TIP3   OH232074   5.636   3.067  12.643 -0.2718  0.1454  0.1023
 3528TIP3    H132075   5.587   3.137  12.601 -0.8292 -1.3957 -1.9745
 3528TIP3    H232076   5.604   2.987  12.602  2.5730 -1.1121  0.0958
 3529TIP3   OH232077   1.991   2.361   0.526  0.3390  0.7246 -0.0290
 3529TIP3    H132078   1.965   2.417   0.600  2.0229  0.9655  0.4314
 3529TIP3    H232079   1.943   2.279   0.540  0.2988  0.9170  1.1101
 3530TIP3   OH232080   4.291   0.190   4.854  0.1501  0.1865 -0.4344
 3530TIP3    H132081   4.342   0.271   4.856  0.9755 -0.3301  0.4788
 3530TIP3    H232082   4.204   0.216   4.885  0.4392  0.7022 -0.0397
 3531TIP3   OH232083   3.883   3.109  15.629  0.2565  0.1322 -0.1718
 3531TIP3    H132084   3.789   3.126  15.638 -0.1172 -1.8212  0.1058
 3531TIP3    H232085   3.902   3.129  15.537 -0.1170  1.7951  0.0805
 3532TIP3   OH232086   4.893   0.705  11.709  0.1941 -0.3451 -0.1153
 3532TIP3    H132087   4.887   0.654  11.790  1.0079  0.0126  0.1777
 3532TIP3    H232088   4.900   0.639  11.640  1.0608 -0.6337  0.2448
 3533TIP3   OH232089   1.767   3.679   1.757  0.1050  0.2934  0.5668
 3533TIP3    H132090   1.838   3.617   1.741  1.0614  1.5480 -0.1716
 3533TIP3    H232091   1.779   3.706   1.848 -0.4130 -0.6845  0.9463
 3534TIP3   OH232092   6.173   3.542   5.933  0.2605  0.4187  0.0070
 3534TIP3    H132093   6.106   3.609   5.920 -0.2852 -0.3297 -1.2754
 3534TIP3    H232094   6.233   3.554   5.859 -0.8460 -1.5991 -1.3315
 3535TIP3   OH232095   0.536   2.537  15.628  0.2848 -0.2506 -0.0140
 3535TIP3    H132096   0.477   2.602  15.667 -1.6325 -0.3556 -2.4492
 3535TIP3    H232097   0.623   2.573  15.639 -0.2680  0.4246  2.8603
 3536TIP3   OH232098   3.706   2.571   4.191  0.1781  0.1067  0.3209
 3536TIP3    H132099   3.711   2.535   4.279 -0.2407  0.5012  0.5108
 3536TIP3    H232100   3.683   2.663   4.204 -2.0751 -0.3210 -0.2435
 3537TIP3   OH232101   1.940   3.463  17.060  0.2844  0.0301 -0.3088
 3537TIP3    H132102   1.921   3.510  16.979  0.0355  0.5719  0.0582
 3537TIP3    H232103   1.868   3.485  17.118  1.1792  0.8145  0.5557
 3538TIP3   OH232104   4.225   5.315  11.868  0.2703 -0.4264  0.4158
 3538TIP3    H132105   4.211   5.284  11.958 -1.4571 -0.2322  0.2458
 3538TIP3    H232106   4.151   5.373  11.851  1.3334  0.6662 -0.6613
 3539TIP3   OH232107   2.510   4.008  10.704  0.1288  0.2744  0.6479
 3539TIP3    H132108   2.521   4.020  10.610  0.8436 -0.5994  0.6150
 3539TIP3    H232109   2.541   4.090  10.742 -0.0627  0.5911  0.1304
 3540TIP3   OH232110   1.069   4.815   3.933 -0.5307  0.4855 -0.0378
 3540TIP3    H132111   1.153   4.808   3.888  0.3818 -1.3493  1.7954
 3540TIP3    H232112   1.013   4.750   3.891 -0.0716 -0.3540  0.6170
 3541TIP3   OH232113   1.746   5.139   0.477 -0.2022 -0.2577 -0.2309
 3541TIP3    H132114   1.841   5.153   0.478 -0.2268  0.0858  1.5362
 3541TIP3    H232115   1.729   5.087   0.556 -1.3987 -1.0275 -0.9733
 3542TIP3   OH232116   5.473   5.266  16.903  0.0727 -0.0881  0.2787
 3542TIP3    H132117   5.379   5.259  16.892  0.2779 -2.2451 -0.5282
 3542TIP3    H232118   5.496   5.194  16.961  1.2944  0.1165  0.0771
 3543TIP3   OH232119   0.048   0.245  13.020  0.5817 -0.0014 -0.0112
 3543TIP3    H132120   0.092   0.181  12.963 -0.6604  0.1732 -1.2108
 3543TIP3    H232121   0.001   0.191  13.084 -1.6196 -0.4221 -1.8734
 3544TIP3   OH232122   0.602   5.706   0.398 -0.6087 -0.6199 -0.7562
 3544TIP3    H132123   0.577   5.794   0.425  0.1030 -0.7753  0.5055
 3544TIP3    H232124   0.612   5.658   0.481  0.3969 -1.4839 -1.3534
 3545TIP3   OH232125   0.703   2.998  10.754 -0.4546 -0.2470  0.2426
 3545TIP3    H132126   0.633   3.058  10.728 -1.8450 -1.8509  0.1107
 3545TIP3    H232127   0.661   2.936  10.813  1.2851 -0.2605  1.5480
 3546TIP3   OH232128   3.130   6.677  14.868 -0.2574  0.3353  0.1840
 3546TIP3    H132129   3.081   6.759  14.875  0.3228  0.7535 -0.3944
 3546TIP3    H232130   3.162   6.677  14.777 -1.4183 -1.2170 -0.2716
 3547TIP3   OH232131   1.182   2.052   4.821 -0.1513  0.2776 -0.0969
 3547TIP3    H132132   1.098   2.045   4.775 -0.5262  0.4997  0.5404
 3547TIP3    H232133   1.159   2.049   4.914  0.6307 -0.5809  0.0816
 3548TIP3   OH232134   2.069   4.666  13.480 -0.0174  0.2428  0.1541
 3548TIP3    H132135   1.977   4.689  13.497 -0.2225 -1.8542  2.3722
 3548TIP3    H232136   2.086   4.700  13.392 -2.3263  2.3360  0.3991
 3549TIP3   OH232137   0.396   4.682   5.234 -0.0108  0.5775  0.1817
 3549TIP3    H132138   0.482   4.693   5.273 -0.1923  0.0270  0.7562
 3549TIP3    H232139   0.389   4.752   5.169  0.9245  0.5254  0.0227
 3550TIP3   OH232140   1.983   0.369  12.816  0.2383 -0.5921  0.1260
 3550TIP3    H132141   1.985   0.352  12.722 -0.3339  0.4881 -0.0956
 3550TIP3    H232142   2.048   0.309  12.852  2.4887  0.8257 -1.2858
 3551TIP3   OH232143   6.769   2.651   2.306 -0.0056 -0.4232  0.1967
 3551TIP3    H132144   6.814   2.570   2.330 -0.8850 -0.4030  2.1724
 3551TIP3    H232145   6.678   2.625   2.294  0.2104 -0.2149 -2.2825
 3552TIP3   OH232146   1.405   0.382   4.685  0.2194  0.0557  0.9136
 3552TIP3    H132147   1.403   0.472   4.717 -1.5006  0.4869 -0.2564
 3552TIP3    H232148   1.415   0.328   4.763 -1.1385  1.1868  1.9131
 3553TIP3   OH232149   0.205   6.334   2.415  0.2142  0.2428  0.2678
 3553TIP3    H132150   0.227   6.274   2.343 -2.5456  0.3893 -0.8045
 3553TIP3    H232151   0.176   6.277   2.486  2.1169  0.1504  1.0467
 3554TIP3   OH232152   5.180   1.423   2.119  0.4815  0.3250 -0.0490
 3554TIP3    H132153   5.271   1.439   2.092  0.2996  2.3673  0.3466
 3554TIP3    H232154   5.164   1.490   2.186 -1.5993  0.6369 -0.7948
 3555TIP3   OH232155   2.620   4.964   2.306 -0.0659  0.0480 -0.7614
 3555TIP3    H132156   2.710   4.980   2.332 -0.1018 -1.5358  0.4492
 3555TIP3    H232157   2.567   5.004   2.375 -0.1759 -2.9541  1.0582
 3556TIP3   OH232158   3.958   4.038  14.152 -0.7851  0.2897 -0.0196
 3556TIP3    H132159   3.941   4.118  14.104  4.5862  1.0197 -1.4097
 3556TIP3    H232160   3.993   4.067  14.236  0.2919 -0.5359 -0.1483
 3557TIP3   OH232161   2.869   5.482  10.703 -0.1503  0.4989  0.0751
 3557TIP3    H132162   2.851   5.531  10.783  1.2349  0.4313  0.4539
 3557TIP3    H232163   2.867   5.548  10.634  3.1891  1.5188  0.7530
 3558TIP3   OH232164   1.222   3.404   4.851  0.3944  0.6970 -1.1034
 3558TIP3    H132165   1.256   3.343   4.916 -0.5675 -0.1740 -1.3820
 3558TIP3    H232166   1.220   3.488   4.896  0.2362  0.2094 -0.1724
 3559TIP3   OH232167   0.420   4.786  14.610  0.1523 -0.0071 -0.1199
 3559TIP3    H132168   0.347   4.831  14.653 -0.6429 -1.5463  0.2310
 3559TIP3    H232169   0.393   4.777  14.519  0.2929  0.1848 -0.1809
 3560TIP3   OH232170   0.799   3.701  14.867 -0.0073 -0.0108  0.0816
 3560TIP3    H132171   0.705   3.712  14.854 -0.2099 -0.7166  0.8826
 3560TIP3    H232172   0.824   3.636  14.801  0.0848  0.7458 -0.6571
 3561TIP3   OH232173   1.837   6.443  11.603  0.1378  0.2481 -0.5421
 3561TIP3    H132174   1.779   6.480  11.670 -0.0774  0.5644 -0.8992
 3561TIP3    H232175   1.777   6.400  11.542  0.4272 -1.6103  0.4020
 3562TIP3   OH232176   5.835   6.191   1.742  0.1065 -0.1371 -0.0897
 3562TIP3    H132177   5.741   6.188   1.758  0.1354 -0.8348 -0.0080
 3562TIP3    H232178   5.873   6.141   1.815  0.5063 -0.2234 -0.3510
 3563TIP3   OH232179   4.379   1.140  14.578 -0.4942 -0.2331  0.2934
 3563TIP3    H132180   4.444   1.204  14.550 -0.9695  0.9917  1.8651
 3563TIP3    H232181   4.423   1.056  14.569  1.4801  0.5744  1.6983
 3564TIP3   OH232182   0.387   0.168  15.463 -0.3877  0.0991 -0.7251
 3564TIP3    H132183   0.450   0.241  15.457 -0.7341  0.6721  1.7148
 3564TIP3    H232184   0.302   0.210  15.472 -0.5593 -0.5353  1.0809
 3565TIP3   OH232185   1.968   2.321   3.005  0.0039  0.6465 -0.2688
 3565TIP3    H132186   1.941   2.249   2.948 -2.9571  2.5960 -1.6133
 3565TIP3    H232187   1.913   2.312   3.083 -0.4621  1.4184 -0.4880
 3566TIP3   OH232188   0.594   3.261  14.341 -0.3166 -0.1326 -0.1052
 3566TIP3    H132189   0.653   3.190  14.317 -1.1241 -0.0684 -2.5358
 3566TIP3    H232190   0.515   3.245  14.289 -1.9925  0.4970  2.0745
 3567TIP3   OH232191   0.744   4.254  15.966  0.2901 -0.2242 -0.8119
 3567TIP3    H132192   0.708   4.334  15.929 -1.6093 -0.6400 -0.0050
 3567TIP3    H232193   0.683   4.231  16.037  2.1079 -1.0796  0.5652
 3568TIP3   OH232194   2.242   1.884  11.594  0.0540 -0.2661 -0.2745
 3568TIP3    H132195   2.323   1.838  11.573 -0.8203 -2.1446  0.3227
 3568TIP3    H232196   2.174   1.836  11.549 -0.9492  0.2072  0.6924
 3569TIP3   OH232197   5.528   5.510  16.462  0.3555  0.6377  0.1981
 3569TIP3    H132198   5.550   5.564  16.538  1.4832  0.1029  0.2716
 3569TIP3    H232199   5.601   5.448  16.455 -0.5652 -0.4185 -0.3015
 3570TIP3   OH232200   2.698   0.158  10.333 -0.2567  0.0903  0.0227
 3570TIP3    H132201   2.613   0.114  10.320 -0.2571  0.4984 -1.5346
 3570TIP3    H232202   2.683   0.216  10.407 -1.9500  1.5613 -1.3791
 3571TIP3   OH232203   3.768   1.320   5.332 -0.1773  0.2073  0.3353
 3571TIP3    H132204   3.846   1.269   5.309  0.0163  0.1088  1.1902
 3571TIP3    H232205   3.793   1.411   5.317 -0.2983  0.1038 -0.5403
 3572TIP3   OH232206   5.576   0.910   2.315  0.1543  0.0637 -0.4213
 3572TIP3    H132207   5.559   0.918   2.222 -1.7272 -1.0699 -0.2222
 3572TIP3    H232208   5.665   0.874   2.321  1.1162  2.0467 -1.6692
 3573TIP3   OH232209   6.790   2.091  15.954 -0.7968  0.0422  0.3445
 3573TIP3    H132210   6.757   2.037  15.882 -0.3677 -0.4293  0.4857
 3573TIP3    H232211   6.712   2.129  15.994 -1.0372  0.3338 -0.3855
 3574TIP3   OH232212   3.026   1.502  12.023  0.6587  0.0671  0.1193
 3574TIP3    H132213   2.966   1.538  12.089 -0.2337 -1.6559  0.3083
 3574TIP3    H232214   2.999   1.545  11.941 -0.8812 -0.6891  0.1952
 3575TIP3   OH232215   6.786   3.379  12.365 -0.2184  0.7603 -0.2783
 3575TIP3    H132216   6.715   3.442  12.353 -1.1664 -0.6408 -3.1620
 3575TIP3    H232217   6.760   3.327  12.441 -0.8822  2.0018  0.3597
 3576TIP3   OH232218   1.620   3.042   1.299  0.2394  0.5176  0.1065
 3576TIP3    H132219   1.606   3.005   1.212 -0.5774  0.5108  0.2281
 3576TIP3    H232220   1.533   3.071   1.327  0.6508  1.3794  0.5396
 3577TIP3   OH232221   5.237   3.990  13.679  0.1537 -0.3219  0.2752
 3577TIP3    H132222   5.203   3.938  13.607  1.1349 -0.6782  0.0642
 3577TIP3    H232223   5.267   4.071  13.638 -1.8354  0.6880  0.6635
 3578TIP3   OH232224   5.989   4.140  12.535  0.2925 -0.3487 -0.4476
 3578TIP3    H132225   6.071   4.186  12.553  1.1340 -2.1727  0.6040
 3578TIP3    H232226   6.006   4.049  12.559 -1.9034 -0.8790 -0.6535
 3579TIP3   OH232227   3.458   1.769  11.374  0.1646  0.1435 -0.0269
 3579TIP3    H132228   3.397   1.734  11.438  0.8824 -1.2483 -0.0653
 3579TIP3    H232229   3.402   1.812  11.309 -0.6099  0.9800  1.1436
 3580TIP3   OH232230   1.221   5.937  16.739 -0.9674  0.0476 -0.5322
 3580TIP3    H132231   1.135   5.931  16.780 -0.4977  2.3620  0.9251
 3580TIP3    H232232   1.283   5.907  16.805 -0.4516  0.9589 -0.5736
 3581TIP3   OH232233   4.380   1.079   5.884 -0.6380 -0.1180 -0.3668
 3581TIP3    H132234   4.348   1.074   5.974 -0.9715  0.0945 -0.4714
 3581TIP3    H232235   4.444   1.150   5.886 -0.4150 -0.3193 -0.2321
 3582TIP3   OH232236   6.035   2.137  14.749 -0.5275  0.6631 -0.4699
 3582TIP3    H132237   6.100   2.191  14.794  0.8141 -0.6074 -0.8119
 3582TIP3    H232238   6.032   2.172  14.660 -0.0907  0.5480 -0.5309
 3583TIP3   OH232239   0.161   0.676  15.882 -0.4753 -1.0241 -0.3939
 3583TIP3    H132240   0.167   0.591  15.926  0.1674 -0.0392  1.5221
 3583TIP3    H232241   0.082   0.669  15.828 -0.4565 -2.8051 -0.2662
 3584TIP3   OH232242   5.836   0.407  10.595 -0.1603  0.1732  0.2301
 3584TIP3    H132243   5.797   0.418  10.682  1.1376 -0.9257  0.9878
 3584TIP3    H232244   5.762   0.384  10.539 -0.7391 -1.3718  1.5181
 3585TIP3   OH232245   3.466   3.957   1.407 -0.6496  0.2004  0.3338
 3585TIP3    H132246   3.527   4.028   1.387 -0.1074  0.4504  2.6040
 3585TIP3    H232247   3.381   4.000   1.415 -0.6291  0.3061 -0.0053
 3586TIP3   OH232248   2.745   5.742   5.443  0.2450  0.2454 -0.0999
 3586TIP3    H132249   2.742   5.838   5.440  0.4524  0.2190 -1.3202
 3586TIP3    H232250   2.654   5.716   5.461  0.2319  0.6668  0.4888
 3587TIP3   OH232251   1.479   1.009   5.274  0.2903 -0.2010 -0.2558
 3587TIP3    H132252   1.496   0.918   5.252  0.1702 -0.6092  1.2492
 3587TIP3    H232253   1.548   1.032   5.336  0.4358  0.8050 -0.7693
 3588TIP3   OH232254   4.550   2.500   0.444 -0.2398 -0.3244  0.5946
 3588TIP3    H132255   4.517   2.580   0.403  0.1221  0.0184  0.9558
 3588TIP3    H232256   4.640   2.522   0.470 -0.0953 -0.8886  0.5874
 3589TIP3   OH232257   5.283   3.963  11.264  0.2221 -0.1138  0.0545
 3589TIP3    H132258   5.211   3.993  11.207  0.3042 -1.9923 -1.1154
 3589TIP3    H232259   5.239   3.921  11.337  0.1111 -0.5365 -0.2494
 3590TIP3   OH232260   4.925   5.224   0.288  0.5483  0.0241 -0.1944
 3590TIP3    H132261   5.020   5.236   0.282  0.3723  1.2412 -0.7186
 3590TIP3    H232262   4.900   5.271   0.368  0.3789 -0.2816 -0.0649
 3591TIP3   OH232263   4.243   6.812  12.069 -0.1379 -0.3401  0.6489
 3591TIP3    H132264   4.223   6.772  12.154  1.4218 -1.2985  0.5949
 3591TIP3    H232265   4.258   6.738  12.011  1.6463  0.2886  0.2525
 3592TIP3   OH232266   6.216   4.834   3.026 -0.0868 -0.3131 -0.5069
 3592TIP3    H132267   6.199   4.914   3.075  1.1879 -1.0065  1.1901
 3592TIP3    H232268   6.152   4.834   2.955 -1.6312  1.0549  0.8151
 3593TIP3   OH232269   5.391   2.841   3.556 -0.1068 -0.2992 -0.3771
 3593TIP3    H132270   5.460   2.897   3.592  0.3215 -0.4533 -0.9446
 3593TIP3    H232271   5.427   2.810   3.473 -0.4038 -1.2787 -0.1502
 3594TIP3   OH232272   3.338   2.184  11.390  0.1804 -0.2460 -0.1448
 3594TIP3    H132273   3.278   2.109  11.386  0.6009 -0.6647  1.0145
 3594TIP3    H232274   3.359   2.202  11.298 -1.4570 -0.2821 -0.5569
 3595TIP3   OH232275   6.083   3.410  11.108 -0.0095  0.0880  0.6500
 3595TIP3    H132276   6.138   3.418  11.187  2.1173 -0.8215 -0.6554
 3595TIP3    H232277   6.133   3.454  11.040 -0.9880 -0.6665 -0.5947
 3596TIP3   OH232278   3.455   6.560  14.823  0.5204  0.5437  0.7402
 3596TIP3    H132279   3.459   6.467  14.846  0.6909  0.2128 -0.5800
 3596TIP3    H232280   3.372   6.569  14.777  0.9323  0.8476  0.0454
 3597TIP3   OH232281   4.133   2.465  15.195 -0.0729  0.3899 -0.2374
 3597TIP3    H132282   4.159   2.485  15.285  0.5223 -1.1432 -0.0313
 3597TIP3    H232283   4.078   2.387  15.202  2.0539 -1.3622 -1.3263
 3598TIP3   OH232284   6.424   0.661   4.509 -0.4139 -0.2400 -0.3576
 3598TIP3    H132285   6.337   0.696   4.494 -0.7497 -1.0451 -0.3186
 3598TIP3    H232286   6.477   0.697   4.437 -0.9265 -0.2843 -0.7649
 3599TIP3   OH232287   2.929   1.144   5.783 -0.2421 -0.2736  0.2059
 3599TIP3    H132288   2.936   1.213   5.849 -0.3175 -1.0627  1.0518
 3599TIP3    H232289   3.017   1.109   5.775 -0.7400 -2.0577  1.9699
 3600TIP3   OH232290   3.313   0.491  12.564 -0.2996 -0.0731 -0.2086
 3600TIP3    H132291   3.223   0.520  12.578  0.1322  1.0013  0.4704
 3600TIP3    H232292   3.366   0.570  12.574  0.9415 -1.0416  1.7593
 3601TIP3   OH232293   1.105   0.597  16.490 -0.1933  0.1021 -0.4292
 3601TIP3    H132294   1.186   0.544  16.494 -0.6937 -0.6166  0.8669
 3601TIP3    H232295   1.124   0.673  16.545 -0.1095  0.3395 -0.7895
 3602TIP3   OH232296   3.945   3.989   3.493 -0.0848  0.3559  0.5966
 3602TIP3    H132297   4.030   3.951   3.472 -1.2020 -1.6040 -0.7438
 3602TIP3    H232298   3.885   3.952   3.428 -1.9484  1.7678  1.4011
 3603TIP3   OH232299   1.290   6.249   2.565 -0.3708  0.7745 -0.6573
 3603TIP3    H132300   1.244   6.175   2.524 -0.7994  0.8467 -0.3200
 3603TIP3    H232301   1.304   6.222   2.655  0.3636  0.7099 -0.7826
 3604TIP3   OH232302   2.887   6.155   4.608 -0.5031 -0.3315  0.0071
 3604TIP3    H132303   2.919   6.082   4.661  0.1426 -0.8886 -1.1132
 3604TIP3    H232304   2.815   6.117   4.556 -1.7231  0.4237  1.0751
 3605TIP3   OH232305   4.270   3.027  12.768 -0.1089 -0.0532 -0.4243
 3605TIP3    H132306   4.325   3.105  12.779  0.4418 -0.6936  2.1281
 3605TIP3    H232307   4.286   2.998  12.678  1.2041  1.6412 -0.7805
 3606TIP3   OH232308   5.195   1.224  12.751 -0.4460 -0.3554  0.5180
 3606TIP3    H132309   5.185   1.133  12.725  2.1973 -0.9530  1.2898
 3606TIP3    H232310   5.284   1.230  12.786  0.2437  2.9929 -1.3729
 3607TIP3   OH232311   0.554   2.669   0.788  0.4125 -0.0755 -0.1484
 3607TIP3    H132312   0.500   2.660   0.710 -0.1559 -0.0343  0.2386
 3607TIP3    H232313   0.598   2.754   0.776 -1.5644  1.1468  0.7122
 3608TIP3   OH232314   2.246   6.443   0.321  0.6711  0.0282 -0.3246
 3608TIP3    H132315   2.219   6.532   0.299  1.9434  0.4947 -0.0939
 3608TIP3    H232316   2.337   6.452   0.350  0.1829 -1.0511  1.7266
 3609TIP3   OH232317   0.689   1.315  13.237 -0.2943 -0.2756  0.3524
 3609TIP3    H132318   0.684   1.233  13.286 -2.8076 -0.0827  0.5131
 3609TIP3    H232319   0.634   1.301  13.160 -0.2503  1.0487  0.0531
 3610TIP3   OH232320   0.245   1.505  14.646  0.6081 -0.6313  0.1927
 3610TIP3    H132321   0.207   1.575  14.699  1.2279 -1.8689  2.4099
 3610TIP3    H232322   0.177   1.483  14.582 -0.1995  0.8942  0.4809
 3611TIP3   OH232323   6.313   5.540  11.183  0.1853 -0.0803  0.9201
 3611TIP3    H132324   6.245   5.483  11.146  0.3653  0.6386 -0.6163
 3611TIP3    H232325   6.265   5.601  11.239 -1.0375  2.4292 -2.4845
 3612TIP3   OH232326   5.220   3.940  14.303 -0.4514  0.3939 -0.0029
 3612TIP3    H132327   5.225   3.846  14.286 -1.1192  0.3340  0.1191
 3612TIP3    H232328   5.172   3.947  14.386 -0.1800  0.8314  0.1203
 3613TIP3   OH232329   4.305   6.852   1.996  0.8918 -0.4877  0.4304
 3613TIP3    H132330   4.362   6.927   1.980  0.6148  0.0350  1.8123
 3613TIP3    H232331   4.360   6.776   1.976  0.6053  0.0314 -2.8655
 3614TIP3   OH232332   4.317   1.243  11.936 -0.1018  0.2984 -0.4148
 3614TIP3    H132333   4.322   1.173  11.871  1.6561  0.5426 -0.5915
 3614TIP3    H232334   4.334   1.198  12.019 -0.3951  0.2946 -0.3570
 3615TIP3   OH232335   5.833   1.883   6.708  0.3099 -0.6002  0.2986
 3615TIP3    H132336   5.830   1.974   6.740 -1.3096 -1.4095  2.7036
 3615TIP3    H232337   5.742   1.855   6.705  0.8054 -2.3232  0.1188
 3616TIP3   OH232338   2.299   1.120   6.509 -0.2806  0.3097 -0.0499
 3616TIP3    H132339   2.232   1.099   6.574 -2.8897  3.2171 -1.4830
 3616TIP3    H232340   2.281   1.061   6.436  2.4626 -2.7485  1.4889
 3617TIP3   OH232341   3.805   2.295  15.443 -0.2355 -0.0747  0.1024
 3617TIP3    H132342   3.809   2.387  15.418  1.9843 -0.0676  0.2666
 3617TIP3    H232343   3.752   2.294  15.523  0.6034  1.2344  0.7095
 3618TIP3   OH232344   3.483   4.871   6.730 -0.0029  0.3760 -0.4052
 3618TIP3    H132345   3.440   4.894   6.811 -0.2971  2.2845 -1.0584
 3618TIP3    H232346   3.421   4.813   6.685 -0.2255  0.0534  0.3019
 3619TIP3   OH232347   6.232   2.090  10.764  0.3296  0.0529  0.3171
 3619TIP3    H132348   6.149   2.080  10.717 -0.9537  1.9359  2.0329
 3619TIP3    H232349   6.296   2.106  10.695 -0.6629 -1.5637 -1.0617
 3620TIP3   OH232350   0.318   6.304  13.651 -0.0610  0.0296  0.0320
 3620TIP3    H132351   0.330   6.292  13.745  1.7457  1.2086  0.0102
 3620TIP3    H232352   0.302   6.398  13.641 -3.0373 -0.4474 -0.6464
 3621TIP3   OH232353   0.075   3.021  11.426  0.0021  0.2869 -0.1405
 3621TIP3    H132354   0.166   3.048  11.441 -0.4924  2.1713 -0.1828
 3621TIP3    H232355   0.029   3.104  11.410 -1.6281 -0.6782 -0.6146
 3622TIP3   OH232356   2.721   5.744  13.785  0.1056  0.0229  0.5835
 3622TIP3    H132357   2.710   5.836  13.808 -0.6730 -0.3079  1.6504
 3622TIP3    H232358   2.790   5.713  13.844  2.5145  0.5613 -1.7479
 3623TIP3   OH232359   1.884   1.484  11.042 -0.6418  0.1793  0.5502
 3623TIP3    H132360   1.797   1.520  11.023 -1.0798 -1.9315 -1.9316
 3623TIP3    H232361   1.942   1.529  10.980 -0.7948 -1.5501 -0.9183
 3624TIP3   OH232362   4.582   0.881   4.168  0.5870 -0.1951 -0.2956
 3624TIP3    H132363   4.529   0.802   4.180 -0.3684  0.6980  2.1413
 3624TIP3    H232364   4.567   0.908   4.078 -0.6443 -1.6904 -0.5660
 3625TIP3   OH232365   6.758   4.088   4.290  0.3265  0.3442  0.3591
 3625TIP3    H132366   6.783   4.066   4.200  0.6740  1.4558  0.1654
 3625TIP3    H232367   6.710   4.012   4.321  2.4956 -1.2067  0.1525
 3626TIP3   OH232368   5.138   3.416  12.266 -1.0792  0.0145 -0.1116
 3626TIP3    H132369   5.075   3.379  12.204 -2.3819  0.9335  0.5972
 3626TIP3    H232370   5.127   3.511  12.256  0.7293  0.2158 -0.4658
 3627TIP3   OH232371   5.405   0.143   1.073  0.2565  0.2940  0.1956
 3627TIP3    H132372   5.495   0.142   1.042  0.6510  0.8509  1.2779
 3627TIP3    H232373   5.362   0.210   1.019  0.2798 -0.4841 -0.8269
 3628TIP3   OH232374   6.429   1.359  13.044  0.0903 -0.6799  0.3327
 3628TIP3    H132375   6.356   1.341  13.104 -1.7258  2.8810 -0.5444
 3628TIP3    H232376   6.394   1.335  12.957  1.2075 -1.9432  0.1995
 3629TIP3   OH232377   3.835   3.352  13.492 -0.0948 -0.3913 -0.4680
 3629TIP3    H132378   3.927   3.375  13.494  0.3127 -1.6658  3.2298
 3629TIP3    H232379   3.832   3.262  13.526 -2.6894 -0.3357 -0.3110
 3630TIP3   OH232380   6.256   2.202   2.709 -0.0748 -0.2617 -0.9384
 3630TIP3    H132381   6.283   2.168   2.795  0.2080 -2.6317 -1.8888
 3630TIP3    H232382   6.197   2.275   2.730  0.2814 -0.5291  1.2545
 3631TIP3   OH232383   6.120   4.404  16.221  0.3654 -0.3076 -0.5429
 3631TIP3    H132384   6.162   4.379  16.304  0.4989  1.4100 -0.0585
 3631TIP3    H232385   6.042   4.349  16.216  0.2327 -0.2862  0.8536
 3632TIP3   OH232386   3.320   0.749  12.665  0.4261 -0.4184  0.0586
 3632TIP3    H132387   3.342   0.721  12.754  1.0425  0.7967  0.3082
 3632TIP3    H232388   3.229   0.778  12.670  0.2611 -0.9357  0.1383
 3633TIP3   OH232389   1.439   2.927   4.093 -0.7157 -0.3977  0.3102
 3633TIP3    H132390   1.506   2.961   4.034  0.6626 -2.1749  0.7711
 3633TIP3    H232391   1.404   3.005   4.137  1.1136  0.5867  0.1363
 3634TIP3   OH232392   3.916   2.115   0.474  0.0363 -0.1911 -0.0120
 3634TIP3    H132393   3.922   2.020   0.484 -1.3610 -0.3744 -0.6051
 3634TIP3    H232394   3.830   2.129   0.433  0.6057  1.2577 -0.7928
 3635TIP3   OH232395   5.779   5.323   1.743 -0.7493  0.1061 -0.4348
 3635TIP3    H132396   5.754   5.402   1.792 -3.1787 -2.0830  2.2146
 3635TIP3    H232397   5.846   5.282   1.796 -0.8249 -0.5208 -0.8170
 3636TIP3   OH232398   2.965   0.821   5.787 -0.5458  0.1090 -0.4664
 3636TIP3    H132399   2.880   0.862   5.771  1.6423  4.7580 -2.0795
 3636TIP3    H232400   3.005   0.875   5.855  1.8422 -0.6173 -1.2036
 3637TIP3   OH232401   5.213   6.521   4.428 -0.1844  0.2482  0.2541
 3637TIP3    H132402   5.305   6.542   4.444 -0.0659  0.8972 -1.1722
 3637TIP3    H232403   5.166   6.570   4.495  0.4767  0.1592  0.7981
 3638TIP3   OH232404   4.269   0.961   2.465  0.0171  0.1490  0.3936
 3638TIP3    H132405   4.239   0.978   2.376 -0.6047 -0.9740  0.3630
 3638TIP3    H232406   4.293   1.046   2.500 -1.1056  0.8031 -0.3655
 3639TIP3   OH232407   5.007   6.789   5.851 -0.3080  0.0457  0.0479
 3639TIP3    H132408   4.975   6.819   5.936  0.3543 -2.2199  1.1584
 3639TIP3    H232409   4.961   6.706   5.835 -0.7221  0.6003 -2.0377
 3640TIP3   OH232410   1.918   5.462  11.851 -0.2986 -0.3103 -0.1687
 3640TIP3    H132411   2.010   5.489  11.857 -0.1646 -0.9650  0.8606
 3640TIP3    H232412   1.871   5.527  11.903 -0.2371 -0.8059  0.5127
 3641TIP3   OH232413   5.675   3.218   4.684 -0.1725  0.8554  0.4230
 3641TIP3    H132414   5.624   3.185   4.758  0.4120 -2.0952 -0.3663
 3641TIP3    H232415   5.610   3.228   4.614 -0.5311  2.5392  0.9585
 3642TIP3   OH232416   2.482   5.684  16.359  0.5576  0.4750  0.0008
 3642TIP3    H132417   2.566   5.728  16.373  0.5805  0.6846 -0.7477
 3642TIP3    H232418   2.469   5.687  16.264  0.4475 -0.9273 -0.0542
 3643TIP3   OH232419   1.408   5.167  15.447 -0.0120 -0.0907  0.2004
 3643TIP3    H132420   1.339   5.116  15.489 -1.0166  2.3985  1.8059
 3643TIP3    H232421   1.475   5.103  15.424 -2.4176 -2.4762 -0.5909
 3644TIP3   OH232422   6.312   0.502   5.367 -0.1911  0.0735  0.3764
 3644TIP3    H132423   6.290   0.594   5.355  0.0308 -0.0245 -0.9088
 3644TIP3    H232424   6.375   0.501   5.439  0.0411  0.9573  0.1910
 3645TIP3   OH232425   1.722   1.395   5.076  0.0473 -0.3492 -0.2918
 3645TIP3    H132426   1.727   1.360   4.987 -1.6531  0.0417 -0.5826
 3645TIP3    H232427   1.812   1.421   5.097  0.5236 -0.6872 -1.7927
 3646TIP3   OH232428   1.434   2.122   2.754 -0.1075 -0.2825  0.0713
 3646TIP3    H132429   1.425   2.027   2.760 -1.6053 -0.3401 -1.9529
 3646TIP3    H232430   1.347   2.156   2.774  0.2511  0.6161  0.1368
 3647TIP3   OH232431   3.807   4.797  11.237  0.4161 -0.1444  0.4957
 3647TIP3    H132432   3.891   4.804  11.190  0.5652  0.3465  0.8202
 3647TIP3    H232433   3.783   4.888  11.255 -0.4549 -0.2551 -0.0528
 3648TIP3   OH232434   3.640   3.975  14.919 -0.1822 -0.5821  0.4466
 3648TIP3    H132435   3.575   4.017  14.863  0.3230 -0.4415 -0.0563
 3648TIP3    H232436   3.691   4.047  14.955 -0.7430 -0.6561  1.3928
 3649TIP3   OH232437   6.280   2.260  14.789  0.4840 -0.3744 -0.2272
 3649TIP3    H132438   6.298   2.216  14.706  0.0891 -0.5474 -0.2230
 3649TIP3    H232439   6.358   2.243  14.842  0.3901 -0.9627 -0.2711
 3650TIP3   OH232440   0.459   0.851   2.148  0.1724  0.0760  0.2395
 3650TIP3    H132441   0.468   0.782   2.213  0.9390  0.3470  0.4423
 3650TIP3    H232442   0.437   0.806   2.066  0.8098 -0.4267  0.3371
 3651TIP3   OH232443   5.013   5.170   3.140 -0.7667  0.1061 -0.1311
 3651TIP3    H132444   5.065   5.207   3.069 -1.9252 -0.2759 -1.2278
 3651TIP3    H232445   5.044   5.214   3.219 -0.2265  1.3829 -1.0228
 3652TIP3   OH232446   3.051   0.226  13.713  0.3073  0.5537  0.3220
 3652TIP3    H132447   3.010   0.185  13.789 -0.6330  2.0293  0.6569
 3652TIP3    H232448   3.143   0.200  13.718 -0.4049 -2.4637 -0.1744
 3653TIP3   OH232449   1.900   0.309  14.787 -0.6688  0.4915 -0.2875
 3653TIP3    H132450   1.993   0.326  14.769  0.1021 -1.4580  1.3819
 3653TIP3    H232451   1.881   0.362  14.864 -0.6494  0.1696 -0.0585
 3654TIP3   OH232452   1.987   6.734   5.079  0.5359  0.1696 -0.1405
 3654TIP3    H132453   1.928   6.677   5.128  0.5667 -0.4755 -0.8418
 3654TIP3    H232454   1.968   6.822   5.113  0.0021 -0.1693  0.4646
 3655TIP3   OH232455   4.945   2.975  14.100  0.7039  0.2007 -0.1491
 3655TIP3    H132456   4.873   2.941  14.154  0.1200  0.5568 -0.6864
 3655TIP3    H232457   5.020   2.980  14.159  0.3317 -0.3395  0.3783
 3656TIP3   OH232458   5.978   6.062  13.113 -0.5015 -0.3756 -0.8191
 3656TIP3    H132459   5.920   6.125  13.155 -0.8017  0.2143 -2.0794
 3656TIP3    H232460   5.919   5.994  13.080 -0.4569  0.0744 -1.8451
 3657TIP3   OH232461   1.625   2.866   6.273  0.0913 -0.5608  0.1528
 3657TIP3    H132462   1.533   2.879   6.294 -0.0975  1.9647 -1.6838
 3657TIP3    H232463   1.625   2.812   6.194  0.0769  0.2444 -0.4172
 3658TIP3   OH232464   2.709   5.455  15.752  0.1019 -0.0976  0.2980
 3658TIP3    H132465   2.736   5.545  15.736 -2.4108  0.1824 -3.5117
 3658TIP3    H232466   2.787   5.403  15.729  0.4242  1.0065 -1.3113
 3659TIP3   OH232467   0.224   4.322  12.537  0.6810 -0.2838 -0.2823
 3659TIP3    H132468   0.184   4.294  12.454  1.1124  0.2034 -0.6642
 3659TIP3    H232469   0.318   4.316  12.522  0.8542 -3.2362  1.2294
 3660TIP3   OH232470   1.740   6.246  12.477  0.4930  0.2952  0.5572
 3660TIP3    H132471   1.717   6.203  12.559 -1.4389 -1.2098 -0.6732
 3660TIP3    H232472   1.661   6.295  12.453  0.4818 -0.4272 -1.0538
 3661TIP3   OH232473   2.226   4.397  16.871 -0.7842  0.5151 -0.0418
 3661TIP3    H132474   2.213   4.344  16.950 -0.7709  0.3655 -0.1391
 3661TIP3    H232475   2.188   4.344  16.801 -1.9026  1.1791  0.0355
 3662TIP3   OH232476   5.802   6.580  14.912  0.5583 -0.1427  0.0529
 3662TIP3    H132477   5.816   6.653  14.971 -0.3173 -1.1331  1.5576
 3662TIP3    H232478   5.707   6.579  14.897  0.4304 -1.4921  0.8075
 3663TIP3   OH232479   6.347   0.513   2.930 -0.4321 -0.1926  0.0356
 3663TIP3    H132480   6.293   0.573   2.878 -1.1160 -2.0228 -1.4962
 3663TIP3    H232481   6.316   0.524   3.020  0.2588  2.5197  0.0208
 3664TIP3   OH232482   3.062   0.620   2.587  0.0998  0.0134 -0.7467
 3664TIP3    H132483   3.019   0.663   2.661  0.5803 -0.4804 -0.1810
 3664TIP3    H232484   2.995   0.618   2.518 -0.7451 -0.6217  0.0786
 3665TIP3   OH232485   6.076   5.018  14.223  0.0114 -0.2228 -0.3902
 3665TIP3    H132486   5.996   5.000  14.173 -0.7283 -2.0693  1.3625
 3665TIP3    H232487   6.111   4.932  14.246  1.8328  0.5582  0.0007
 3666TIP3   OH232488   5.196   3.514  15.177 -0.6720 -0.4028  0.1218
 3666TIP3    H132489   5.106   3.539  15.154 -0.4956  1.6815  1.4041
 3666TIP3    H232490   5.238   3.597  15.200  1.2168 -1.4980  0.7992
 3667TIP3   OH232491   3.928   2.702   2.625 -0.7506 -0.8964  0.1536
 3667TIP3    H132492   3.926   2.749   2.709 -1.3570  0.0171 -0.3517
 3667TIP3    H232493   4.021   2.694   2.605 -0.6180 -0.4317  0.5445
 3668TIP3   OH232494   3.078   6.519  13.153 -0.0527  0.3912 -0.6114
 3668TIP3    H132495   3.008   6.584  13.156 -2.0670 -1.6992  0.2410
 3668TIP3    H232496   3.053   6.460  13.081  0.4581 -0.7657  0.1374
 3669TIP3   OH232497   2.797   6.051   6.354 -0.2348  0.0014 -0.2625
 3669TIP3    H132498   2.723   6.090   6.307 -2.2867 -0.4115  2.4168
 3669TIP3    H232499   2.762   5.972   6.393  2.1262 -1.1172 -0.2395
 3670TIP3   OH232500   3.715   1.411   3.033 -0.2539  0.9257  0.1231
 3670TIP3    H132501   3.750   1.358   3.104 -1.2883 -0.8934 -0.6761
 3670TIP3    H232502   3.759   1.496   3.043  1.8457 -0.2049  1.1339
 3671TIP3   OH232503   0.558   1.581  16.673  0.0144 -0.2788 -0.4657
 3671TIP3    H132504   0.538   1.491  16.697 -1.0361  0.3534  1.1865
 3671TIP3    H232505   0.485   1.608  16.618 -0.4754  0.0220  0.3106
 3672TIP3   OH232506   5.610   6.426  14.590 -0.0543 -0.0570 -0.5147
 3672TIP3    H132507   5.532   6.383  14.557  0.6711 -2.9988  1.2347
 3672TIP3    H232508   5.683   6.376  14.554  0.9202  0.7383  0.2683
 3673TIP3   OH232509   3.125   1.568   3.226 -0.0201 -0.1815  0.5607
 3673TIP3    H132510   3.162   1.480   3.227  0.8487  0.1202  3.2434
 3673TIP3    H232511   3.201   1.626   3.226 -0.5736  0.6580 -1.7181
 3674TIP3   OH232512   0.534   2.010  10.560 -0.5723 -0.7941 -0.2085
 3674TIP3    H132513   0.561   2.036  10.472 -1.5226  0.0499 -0.2759
 3674TIP3    H232514   0.538   2.091  10.611  1.6685 -1.6090  1.0095
 3675TIP3   OH232515   5.833   1.887  14.152 -0.5847  0.3814 -0.2563
 3675TIP3    H132516   5.901   1.875  14.219 -2.3418 -1.2353  1.3281
 3675TIP3    H232517   5.805   1.978  14.163  0.8570  0.9005 -0.5524
 3676TIP3   OH232518   4.567   0.254  14.717  0.4027 -0.2251  0.1866
 3676TIP3    H132519   4.576   0.203  14.798 -3.1470 -0.4151  0.6517
 3676TIP3    H232520   4.593   0.193  14.648 -0.6393 -1.6282  0.9642
 3677TIP3   OH232521   3.838   6.160   0.806  0.3853  0.0769  0.1923
 3677TIP3    H132522   3.926   6.163   0.842  0.7910  0.5868 -0.7964
 3677TIP3    H232523   3.847   6.196   0.717 -0.5294 -1.2540 -0.4798
 3678TIP3   OH232524   3.263   1.967  14.894  0.2284  0.0399 -0.0645
 3678TIP3    H132525   3.233   2.036  14.953 -0.1789  0.7073 -1.0253
 3678TIP3    H232526   3.355   1.955  14.916 -0.0664 -0.1759  1.1307
 3679TIP3   OH232527   1.953   1.398   1.550 -0.0652 -0.2015 -0.9709
 3679TIP3    H132528   1.984   1.463   1.612  0.6752 -2.0350  0.6523
 3679TIP3    H232529   1.960   1.442   1.465  0.4643  1.7887  0.0260
 3680TIP3   OH232530   2.746   6.539   5.557 -0.0092 -0.0278 -0.7701
 3680TIP3    H132531   2.806   6.580   5.495  0.6967 -0.1514 -0.1837
 3680TIP3    H232532   2.674   6.601   5.566  1.4481  1.5559  0.7739
 3681TIP3   OH232533   6.800   3.269   1.274 -0.1061 -0.7029 -0.8638
 3681TIP3    H132534   6.887   3.251   1.237 -0.3778 -1.2556 -1.2468
 3681TIP3    H232535   6.793   3.210   1.349  0.0570 -0.2742 -0.5059
 3682TIP3   OH232536   2.337   0.184   4.865  0.1403 -0.1297 -0.4739
 3682TIP3    H132537   2.298   0.097   4.862 -0.3534  0.1025 -0.9195
 3682TIP3    H232538   2.429   0.169   4.888 -0.3921 -0.6295  1.5789
 3683TIP3   OH232539   4.338   3.722   3.053  0.2162  0.0282  0.6545
 3683TIP3    H132540   4.316   3.758   2.967 -0.5487 -0.9178  0.4414
 3683TIP3    H232541   4.256   3.685   3.086  0.4697  0.4925  1.8530
 3684TIP3   OH232542   3.019   2.103   5.343  0.1975 -0.1881  0.3472
 3684TIP3    H132543   3.076   2.070   5.413  0.3983 -2.7008 -0.8813
 3684TIP3    H232544   2.935   2.119   5.386  0.1066 -2.3412  1.1025
 3685TIP3   OH232545   2.903   3.618  11.270 -0.7495  0.1834 -0.7227
 3685TIP3    H132546   2.923   3.707  11.296 -3.4905  0.5070  0.6930
 3685TIP3    H232547   2.933   3.611  11.179  1.7043  1.7042 -0.1041
 3686TIP3   OH232548   0.543   1.817  15.983  0.4600 -0.6594  1.1400
 3686TIP3    H132549   0.469   1.875  15.998  0.4741 -0.5887  0.9489
 3686TIP3    H232550   0.541   1.800  15.888  1.6612  0.6739  0.8359
 3687TIP3   OH232551   6.536   1.860  16.164 -0.0740 -0.7799  0.3529
 3687TIP3    H132552   6.548   1.950  16.194  1.7030 -0.3579 -1.4166
 3687TIP3    H232553   6.449   1.836  16.194 -0.4505  1.3991  1.1682
 3688TIP3   OH232554   5.771   6.365   4.982 -0.0027  0.0013 -0.1334
 3688TIP3    H132555   5.832   6.313   4.929  0.1016 -0.3076  0.2788
 3688TIP3    H232556   5.691   6.369   4.930  0.2713  0.1590 -0.5496
 3689TIP3   OH232557   6.478   0.937  12.099  0.1864  0.5758  0.0336
 3689TIP3    H132558   6.548   0.936  12.165  1.0994  1.0827 -0.8870
 3689TIP3    H232559   6.514   0.991  12.028  0.2387 -1.8696 -1.9333
 3690TIP3   OH232560   3.815   1.127  11.573 -0.2630  0.2416 -0.0044
 3690TIP3    H132561   3.722   1.109  11.590 -0.2614  1.1387  1.0869
 3690TIP3    H232562   3.832   1.208  11.622  0.8683  0.5817 -0.9363
 3691TIP3   OH232563   3.495   4.166  15.915 -0.1557 -0.7181  0.3052
 3691TIP3    H132564   3.428   4.212  15.865  0.8710  0.8575  0.3182
 3691TIP3    H232565   3.493   4.206  16.002  0.4086 -1.0610  0.4856
 3692TIP3   OH232566   6.526   0.374  16.642 -0.1174  0.3143  0.3755
 3692TIP3    H132567   6.591   0.335  16.583 -0.7133  0.4305 -0.3828
 3692TIP3    H232568   6.535   0.326  16.724  0.0468 -0.5407 -0.1345
 3693TIP3   OH232569   2.674   4.429  13.805 -0.2187  0.0146 -0.4569
 3693TIP3    H132570   2.655   4.370  13.878  1.7515  1.7208  1.5956
 3693TIP3    H232571   2.726   4.377  13.745 -0.4820 -0.9690  0.1388
 3694TIP3   OH232572   0.983   5.999  12.190  0.5073  0.9520  0.4682
 3694TIP3    H132573   1.047   6.068  12.174  0.8394  0.3351 -1.0551
 3694TIP3    H232574   0.955   5.971  12.103 -0.6164  0.0744  1.0760
 3695TIP3   OH232575   4.120   1.356  14.611 -0.2168 -0.1336  0.1420
 3695TIP3    H132576   4.204   1.313  14.594 -0.5808 -0.8743  0.1861
 3695TIP3    H232577   4.069   1.341  14.531  0.2375  1.6939 -0.5384
 3696TIP3   OH232578   4.168   4.507   5.549  0.2021  0.3668 -0.2797
 3696TIP3    H132579   4.076   4.484   5.559 -0.1638  1.4295 -1.0186
 3696TIP3    H232580   4.206   4.497   5.636 -0.9589  1.3576  0.3621
 3697TIP3   OH232581   5.483   0.231  12.128  0.2396  0.1560  0.8821
 3697TIP3    H132582   5.545   0.165  12.096 -1.0230 -0.3213 -0.7086
 3697TIP3    H232583   5.436   0.259  12.049 -1.3882  0.6938  2.0019
 3698TIP3   OH232584   4.561   3.414  12.990  0.6349  0.1712 -0.2675
 3698TIP3    H132585   4.649   3.441  12.966  0.4562  0.4549 -0.6206
 3698TIP3    H232586   4.548   3.447  13.078  1.0486 -0.2728 -0.0407
 3699TIP3   OH232587   4.864   3.399   4.743 -0.0913 -0.0510 -0.0801
 3699TIP3    H132588   4.899   3.479   4.704  0.8920 -1.2848 -1.8490
 3699TIP3    H232589   4.940   3.359   4.786 -0.2292 -0.7658 -0.4943
 3700TIP3   OH232590   0.258   1.631  17.131 -0.3793 -0.5620  0.2619
 3700TIP3    H132591   0.235   1.592  17.046 -2.9438 -0.4281  0.8025
 3700TIP3    H232592   0.299   1.560  17.180 -0.4684 -1.1406 -0.4849
 3701TIP3   OH232593   0.023   5.516   0.510  0.3972  0.0863  0.5912
 3701TIP3    H132594   0.059   5.448   0.453 -0.4045  0.6959 -0.7074
 3701TIP3    H232595   0.084   5.520   0.584  1.3529 -0.9051 -0.1044
 3702TIP3   OH232596   0.244   4.116  11.701 -0.4098 -0.0596  0.0356
 3702TIP3    H132597   0.149   4.118  11.693 -0.5263 -1.1987  0.8469
 3702TIP3    H232598   0.264   4.182  11.768 -0.4337  1.4860 -1.4239
 3703TIP3   OH232599   4.015   2.732   1.229 -0.5898  0.4780 -0.0229
 3703TIP3    H132600   4.030   2.817   1.272 -0.1296  1.2887 -1.7187
 3703TIP3    H232601   4.049   2.668   1.291  1.4143  1.7068  0.2226
 3704TIP3   OH232602   3.398   0.363   1.175 -0.2171 -0.3153 -0.1972
 3704TIP3    H132603   3.433   0.275   1.187  1.9190  0.7436  2.2168
 3704TIP3    H232604   3.314   0.362   1.222 -0.6635 -1.2704 -0.9813
 3705TIP3   OH232605   0.726   1.353   1.468  0.2090 -0.3063 -0.6492
 3705TIP3    H132606   0.688   1.297   1.400 -0.7340  0.5666 -0.8673
 3705TIP3    H232607   0.673   1.334   1.546 -1.5135  1.7281 -1.2255
 3706TIP3   OH232608   2.993   1.284  11.080 -0.3224 -0.4334 -0.0149
 3706TIP3    H132609   3.007   1.373  11.047 -1.8109 -0.5187 -0.9889
 3706TIP3    H232610   3.064   1.270  11.142 -0.7563  1.9550  1.1809
 3707TIP3   OH232611   2.884   1.449  12.894 -0.0706  0.1138 -0.1376
 3707TIP3    H132612   2.811   1.419  12.948  0.0598 -0.8855 -0.4799
 3707TIP3    H232613   2.919   1.368  12.855  1.9468  0.4226  0.9172
 3708TIP3   OH232614   2.335   3.037  16.086  0.1878  0.7956 -0.3893
 3708TIP3    H132615   2.275   3.103  16.121 -0.0716  0.1899  0.3374
 3708TIP3    H232616   2.279   2.965  16.058  0.4234  1.1139 -1.7525
 3709TIP3   OH232617   6.136   6.824  16.598  0.5829 -0.2262 -0.1177
 3709TIP3    H132618   6.120   6.880  16.523 -0.0564 -0.1771  0.0503
 3709TIP3    H232619   6.059   6.767  16.603 -1.1054  1.9994  2.4742
 3710TIP3   OH232620   6.646   1.284   1.636 -0.5028  0.2343  0.1159
 3710TIP3    H132621   6.577   1.281   1.702  1.1193 -0.1546  1.8693
 3710TIP3    H232622   6.727   1.279   1.686  0.8069  0.2955 -1.9059
 3711TIP3   OH232623   2.244   2.156   4.434  0.1836 -0.4101 -0.1801
 3711TIP3    H132624   2.313   2.155   4.367 -0.1217 -2.0221 -0.4958
 3711TIP3    H232625   2.233   2.064   4.460 -0.2749  0.0750  1.5117
 3712TIP3   OH232626   2.515   3.147  10.508 -0.3344 -0.4674  0.4671
 3712TIP3    H132627   2.479   3.214  10.450 -0.6329 -0.9520  0.0838
 3712TIP3    H232628   2.463   3.154  10.589  1.1778  1.3407  1.3543
 3713TIP3   OH232629   1.596   2.601  15.354  0.1731  0.0352 -0.0279
 3713TIP3    H132630   1.557   2.536  15.296  0.6155 -1.1832  1.0108
 3713TIP3    H232631   1.528   2.617  15.420  0.9603 -1.2822  1.1589
 3714TIP3   OH232632   2.875   5.635  14.935  0.1963 -0.1726 -0.3002
 3714TIP3    H132633   2.839   5.609  14.850 -1.7772 -1.5017  0.8671
 3714TIP3    H232634   2.824   5.712  14.961  0.6613  0.1144 -0.2326
 3715TIP3   OH232635   0.966   6.824   4.744  0.3900 -0.0713  0.6870
 3715TIP3    H132636   0.918   6.769   4.683  0.1220  1.5399 -0.6293
 3715TIP3    H232637   0.899   6.859   4.803  0.4128 -0.3105  0.8570
 3716TIP3   OH232638   2.061   5.139  11.254  0.0056  0.4709  0.5135
 3716TIP3    H132639   2.140   5.150  11.201 -0.3384  0.0004 -0.1175
 3716TIP3    H232640   2.024   5.056  11.224  0.1091 -0.1072  1.9258
 3717TIP3   OH232641   1.303   1.127  15.610 -0.0697 -0.3820 -0.1909
 3717TIP3    H132642   1.357   1.084  15.677 -0.7592  0.3994  0.9148
 3717TIP3    H232643   1.345   1.212  15.598 -0.3405 -0.2560 -0.2449
 3718TIP3   OH232644   6.666   0.464   4.315 -0.4686  0.1882  0.1832
 3718TIP3    H132645   6.588   0.514   4.339  0.1604  0.2350  2.3032
 3718TIP3    H232646   6.647   0.375   4.344  0.7438  0.4601  1.9491
 3719TIP3   OH232647   6.359   3.503  13.445 -0.1738  0.0240 -0.1942
 3719TIP3    H132648   6.433   3.467  13.396 -0.5128  1.1503 -1.5918
 3719TIP3    H232649   6.343   3.440  13.515  0.2532 -1.7142 -1.6055
 3720TIP3   OH232650   0.409   6.654   1.538  0.1956 -0.2358  0.1621
 3720TIP3    H132651   0.415   6.604   1.619 -0.1033 -1.4330 -0.5362
 3720TIP3    H232652   0.324   6.698   1.543 -0.2349 -1.0480  0.0885
 3721TIP3   OH232653   0.001   3.091  15.341  0.0479 -0.6816  0.2270
 3721TIP3    H132654  -0.020   3.133  15.425  1.4595 -1.0636  0.7896
 3721TIP3    H232655  -0.069   3.027  15.328 -0.7584  0.1041  0.5761
 3722TIP3   OH232656   4.932   4.932  12.689 -0.2604  0.0156  0.1860
 3722TIP3    H132657   4.870   4.860  12.698  1.4094 -1.6585 -0.9655
 3722TIP3    H232658   4.977   4.936  12.773 -1.5325  0.9222  0.8589
 3723TIP3   OH232659   6.775   3.290  14.765  0.2241 -0.3324  0.1129
 3723TIP3    H132660   6.683   3.316  14.765 -0.3888 -2.2507  0.9642
 3723TIP3    H232661   6.821   3.363  14.806 -0.8273  0.8842 -0.8085
 3724TIP3   OH232662   3.437   1.794   2.226 -0.0808 -0.1524  0.4546
 3724TIP3    H132663   3.389   1.775   2.307 -0.3438 -0.4837  0.2254
 3724TIP3    H232664   3.487   1.873   2.246 -1.3327  0.6685  0.4573
 3725TIP3   OH232665   1.133   4.528  11.380  0.3647 -0.6307 -0.5078
 3725TIP3    H132666   1.202   4.588  11.355  0.6839  0.4165  2.5150
 3725TIP3    H232667   1.058   4.584  11.402  0.4948 -1.2618  1.8568
 3726TIP3   OH232668   1.115   4.930  15.764 -0.2445  0.1156  0.1448
 3726TIP3    H132669   1.155   4.845  15.780 -0.9928 -0.0116  1.4880
 3726TIP3    H232670   1.167   4.992  15.815  0.6031  0.5779 -1.2143
 3727TIP3   OH232671   5.152   3.031  14.269 -0.0772 -0.2198  0.1519
 3727TIP3    H132672   5.203   3.111  14.284  1.1758 -0.7313 -1.1048
 3727TIP3    H232673   5.201   2.962  14.314  0.0551 -0.6252 -0.5964
 3728TIP3   OH232674   4.293   4.942   6.209  0.1722 -0.0161  0.2228
 3728TIP3    H132675   4.288   4.961   6.116 -1.4991 -0.7737  0.1213
 3728TIP3    H232676   4.250   5.016   6.251 -1.3249 -0.8254  0.1915
 3729TIP3   OH232677   1.018   1.094   5.332  0.0924 -0.0799  0.1314
 3729TIP3    H132678   0.997   1.038   5.406  2.2541 -1.3862 -0.1566
 3729TIP3    H232679   1.046   1.176   5.371 -0.6822 -0.0508  0.6525
 3730TIP3   OH232680   4.248   3.608  16.410 -0.2525 -0.0760  0.2724
 3730TIP3    H132681   4.225   3.700  16.423  2.3125  0.7763 -0.7388
 3730TIP3    H232682   4.212   3.587  16.324 -3.9373 -1.1946  1.8995
 3731TIP3   OH232683   6.570   5.483  12.806  0.1288  0.5584  0.4444
 3731TIP3    H132684   6.477   5.503  12.807  0.1810  0.8217  0.3159
 3731TIP3    H232685   6.593   5.470  12.898 -0.4496 -1.5446  0.3250
 3732TIP3   OH232686   2.090   6.318   1.975 -0.0778  0.3013 -0.2504
 3732TIP3    H132687   2.009   6.267   1.974  0.7328 -1.0512  0.4804
 3732TIP3    H232688   2.128   6.304   1.888  0.7311 -1.3879  0.3304
 3733TIP3   OH232689   6.201   0.216  14.618 -0.6256  0.0144 -0.5581
 3733TIP3    H132690   6.264   0.170  14.563  0.5259 -0.2231  0.9093
 3733TIP3    H232691   6.118   0.171  14.603  0.1856 -1.6659 -0.2096
 3734TIP3   OH232692   1.215   5.488   4.979 -0.0800  0.3158 -0.0098
 3734TIP3    H132693   1.125   5.461   4.999  0.4791 -0.3761  1.8032
 3734TIP3    H232694   1.257   5.410   4.945 -0.2835  0.7922 -1.4287
 3735TIP3   OH232695   3.639   5.154  13.981 -0.3287 -0.3357 -0.4631
 3735TIP3    H132696   3.596   5.165  14.067 -0.2447 -2.1513 -0.1496
 3735TIP3    H232697   3.728   5.127  14.002 -1.1837 -4.0770 -1.0061
 3736TIP3   OH232698   0.756   1.581   1.814  0.1363  0.0441 -0.6247
 3736TIP3    H132699   0.759   1.670   1.850 -0.0421  0.2947 -1.2235
 3736TIP3    H232700   0.810   1.585   1.735 -1.4087  0.1075 -1.7115
 3737TIP3   OH232701   1.777   3.348   2.547  0.2337  0.1704 -0.2546
 3737TIP3    H132702   1.870   3.333   2.561  0.4395  1.3365 -0.3397
 3737TIP3    H232703   1.770   3.382   2.458  0.0114  2.3823  0.5557
 3738TIP3   OH232704   2.271   4.538  14.207  0.0251  0.5061  0.5845
 3738TIP3    H132705   2.255   4.444  14.210 -2.3847  0.7592 -1.1658
 3738TIP3    H232706   2.336   4.553  14.275 -0.9596 -2.1405  2.3098
 3739TIP3   OH232707   1.673   5.800  11.824  0.7767 -0.5501  0.5755
 3739TIP3    H132708   1.624   5.719  11.808  0.0525 -0.3295  1.6288
 3739TIP3    H232709   1.751   5.772  11.871  0.9090 -0.7136  0.2666
 3740TIP3   OH232710   2.129   1.861   0.007 -0.2380  0.4210 -0.1638
 3740TIP3    H132711   2.084   1.888   0.086  0.0642  0.6037 -0.0502
 3740TIP3    H232712   2.090   1.913  -0.063  0.7133  1.5644  0.1313
 3741TIP3   OH232713   5.788   5.511  11.323 -0.0460  0.0531  0.3301
 3741TIP3    H132714   5.802   5.587  11.265 -1.9090  0.7377  0.7183
 3741TIP3    H232715   5.744   5.447  11.267  2.0914 -1.0716 -0.1772
 3742TIP3   OH232716   0.473   0.346  15.124  0.0395  0.2468 -0.2669
 3742TIP3    H132717   0.437   0.430  15.096  2.1492  0.8335 -1.4030
 3742TIP3    H232718   0.498   0.361  15.216 -0.8405  0.4001 -0.0409
 3743TIP3   OH232719   0.625   6.703  14.283  0.0859  0.2261  0.1063
 3743TIP3    H132720   0.672   6.785  14.272  1.1908 -0.5037 -1.0493
 3743TIP3    H232721   0.685   6.647  14.331 -0.5762  0.0165  0.7122
 3744TIP3   OH232722   2.946   0.535   6.408 -0.4841  0.2717  0.4154
 3744TIP3    H132723   2.918   0.505   6.494  0.1054 -0.2014  0.4438
 3744TIP3    H232724   3.041   0.540   6.413 -0.2537 -1.7395 -0.8139
 3745TIP3   OH232725   5.168   6.423   5.121  0.2243 -0.3835 -0.4271
 3745TIP3    H132726   5.207   6.493   5.069 -0.2231  0.5020  0.3806
 3745TIP3    H232727   5.082   6.407   5.080  0.5245 -0.8067 -0.9003
 3746TIP3   OH232728   1.683   3.566  14.792  0.0922 -0.5704 -0.2999
 3746TIP3    H132729   1.588   3.580  14.784  0.1381 -0.4699 -0.6984
 3746TIP3    H232730   1.715   3.644  14.836 -0.0993 -0.9026  0.4402
 3747TIP3   OH232731   2.716   6.043  16.575  0.5841  0.1076 -0.8804
 3747TIP3    H132732   2.652   6.031  16.645  0.9500 -0.6229 -0.6729
 3747TIP3    H232733   2.668   6.093  16.508  0.3124  1.0516 -0.0143
 3748TIP3   OH232734   4.324   1.166   1.115  0.5444 -0.3583 -0.0504
 3748TIP3    H132735   4.349   1.085   1.072  1.3052 -1.3497  2.1193
 3748TIP3    H232736   4.401   1.193   1.164 -0.5987  0.0146  1.6495
 3749TIP3   OH232737   1.460   1.130  10.513 -0.1923 -0.1163  0.2407
 3749TIP3    H132738   1.518   1.129  10.437 -0.8785  2.5560 -0.4243
 3749TIP3    H232739   1.517   1.107  10.587  0.9624 -0.6786 -0.7775
 3750TIP3   OH232740   0.587   1.415  13.880  0.2684 -0.0677 -0.2411
 3750TIP3    H132741   0.676   1.419  13.843  0.4563 -1.6496 -0.0051
 3750TIP3    H232742   0.598   1.374  13.965 -0.4521  1.6374  0.7320
 3751TIP3   OH232743   1.299   5.071  11.677  0.3565  0.6111 -0.0781
 3751TIP3    H132744   1.233   5.055  11.744  1.3535 -0.9000  0.6117
 3751TIP3    H232745   1.366   5.005  11.694  2.8302  3.0296  0.2557
 3752TIP3   OH232746   5.904   1.130  13.266 -0.0935  0.1428  0.5256
 3752TIP3    H132747   5.963   1.094  13.332  1.4231  0.8732 -0.3675
 3752TIP3    H232748   5.924   1.224  13.266 -0.8697  0.3146 -0.1776
 3753TIP3   OH232749   6.481   5.881  13.652  0.1131 -0.1124 -0.0754
 3753TIP3    H132750   6.482   5.906  13.744  0.5290  2.0252 -0.6199
 3753TIP3    H232751   6.561   5.830  13.640  1.3652  1.6759  0.2653
 3754TIP3   OH232752   1.158   2.995   1.565 -0.3017  0.5022 -0.1948
 3754TIP3    H132753   1.224   3.020   1.629  1.2338  0.1624 -1.5688
 3754TIP3    H232754   1.077   2.985   1.616  0.3681  2.2576  1.3312
 3755TIP3   OH232755   1.043   3.137  15.602 -0.5061 -0.1920 -0.1311
 3755TIP3    H132756   0.987   3.076  15.553 -0.5531 -0.5245  0.3339
 3755TIP3    H232757   1.124   3.089  15.616 -0.8956 -0.5219  1.0967
 3756TIP3   OH232758   2.814   0.490  13.362 -0.3837 -0.6058 -0.7595
 3756TIP3    H132759   2.838   0.406  13.323  1.8531  0.1324 -1.1286
 3756TIP3    H232760   2.819   0.475  13.457  2.2018 -0.4306 -0.7825
 3757TIP3   OH232761   4.178   2.026   3.781 -0.2929 -0.1116  0.6576
 3757TIP3    H132762   4.219   1.968   3.716  0.7512 -1.5193  2.4588
 3757TIP3    H232763   4.169   1.971   3.859 -3.8254  0.7377  1.0308
 3758TIP3   OH232764   5.346   6.751  16.531  0.1253 -0.1384 -0.0087
 3758TIP3    H132765   5.283   6.787  16.594 -0.3602  0.3807 -0.7726
 3758TIP3    H232766   5.320   6.789  16.447  0.8447 -0.7167 -0.5043
 3759TIP3   OH232767   3.062   2.272   4.879  0.3356 -0.5943 -0.0993
 3759TIP3    H132768   3.096   2.280   4.789 -0.8727 -2.3273 -0.7518
 3759TIP3    H232769   3.005   2.348   4.889  2.6720  1.2392  0.2966
 3760TIP3   OH232770   2.634   6.427   2.509 -0.0380 -0.5552  1.0061
 3760TIP3    H132771   2.595   6.506   2.546 -0.1369 -0.5656  0.9214
 3760TIP3    H232772   2.611   6.430   2.416  0.7913 -0.1682  0.7988
 3761TIP3   OH232773   6.152   1.453  12.142 -0.3604  0.1106  0.0627
 3761TIP3    H132774   6.089   1.403  12.194  0.3355 -0.0139  0.8186
 3761TIP3    H232775   6.099   1.497  12.076 -1.5758  1.8499  2.0664
 3762TIP3   OH232776   3.339   6.376  11.669  0.2674 -0.5736 -0.4390
 3762TIP3    H132777   3.428   6.356  11.700  0.7143 -0.6304 -1.6641
 3762TIP3    H232778   3.332   6.326  11.587  0.2851  1.8968 -2.0299
 3763TIP3   OH232779   2.383   4.949   3.439  0.0400  0.3191 -0.3291
 3763TIP3    H132780   2.349   5.028   3.397 -0.9284 -0.3578 -0.8393
 3763TIP3    H232781   2.333   4.942   3.521 -1.8346 -1.2133 -1.5321
 3764TIP3   OH232782   5.408   2.169  12.007 -0.1930 -0.5763 -0.1045
 3764TIP3    H132783   5.402   2.092  11.950 -0.4689  0.1690 -1.1026
 3764TIP3    H232784   5.359   2.143  12.086 -2.2350 -0.6710 -1.3166
 3765TIP3   OH232785   1.892   1.851  10.506  0.0470  0.8313  0.5137
 3765TIP3    H132786   1.908   1.818  10.418 -1.3988 -0.2180  0.6143
 3765TIP3    H232787   1.797   1.858  10.513  0.1348  1.0290  1.9344
 3766TIP3   OH232788   3.638   1.454  16.968 -0.2915  0.4251 -0.1417
 3766TIP3    H132789   3.694   1.477  16.894 -0.0095  0.5340  0.0993
 3766TIP3    H232790   3.555   1.499  16.951  0.0968  1.2408  0.0837
 3767TIP3   OH232791   0.039   0.016   1.862 -0.2329 -0.1419 -0.4332
 3767TIP3    H132792   0.080  -0.059   1.819  0.8682  0.0327  0.2649
 3767TIP3    H232793  -0.049   0.019   1.826 -0.1182 -1.4372 -0.8740
 3768TIP3   OH232794   4.892   6.827   1.658  0.5152 -0.0245 -0.0492
 3768TIP3    H132795   4.822   6.771   1.625  1.2737 -0.8643 -0.2644
 3768TIP3    H232796   4.855   6.867   1.737 -0.1775 -0.5172 -0.1117
 3769TIP3   OH232797   2.009   6.093   0.275 -0.5117  0.2176  0.3759
 3769TIP3    H132798   2.103   6.109   0.266 -0.5878  1.4497  1.4895
 3769TIP3    H232799   1.997   6.073   0.368 -1.3796  0.1847  0.2620
 3770TIP3   OH232800   6.394   5.890   2.034  0.3780 -0.5996 -0.0537
 3770TIP3    H132801   6.307   5.928   2.046 -0.5225 -2.5145 -0.1944
 3770TIP3    H232802   6.378   5.809   1.986  2.1763 -1.3347  0.5262
 3771TIP3   OH232803   6.560   0.289   2.944  0.4928 -1.0661 -0.0745
 3771TIP3    H132804   6.501   0.281   3.019  2.6836 -0.3181  1.8099
 3771TIP3    H232805   6.524   0.363   2.894  0.8250  0.6266  2.0506
 3772TIP3   OH232806   5.245   0.740   5.394 -0.3849 -0.0591 -0.2595
 3772TIP3    H132807   5.159   0.753   5.433  0.3837  0.6901  1.2532
 3772TIP3    H232808   5.305   0.785   5.453  0.6820  2.8253 -3.2832
 3773TIP3   OH232809   4.710   6.415   3.872  0.2649 -0.1535 -0.1524
 3773TIP3    H132810   4.792   6.459   3.851 -0.6265  1.4719 -0.3318
 3773TIP3    H232811   4.666   6.473   3.934 -1.2478 -0.4615 -0.8958
 3774TIP3   OH232812   3.980   1.494   2.398  0.2225 -0.1610  0.2233
 3774TIP3    H132813   4.048   1.427   2.402  2.1091  1.6514 -0.1499
 3774TIP3    H232814   4.020   1.572   2.435 -0.9871  1.4781 -1.7086
 3775TIP3   OH232815   6.363   4.147  16.849 -0.6128 -0.0361  0.2403
 3775TIP3    H132816   6.372   4.205  16.925 -0.8892  0.1073  0.1635
 3775TIP3    H232817   6.449   4.105  16.841 -0.7046 -0.3726  0.8935
 3776TIP3   OH232818   5.005   6.297  16.925  0.3448 -0.3199 -0.4384
 3776TIP3    H132819   5.060   6.373  16.945  1.4605 -1.1514 -0.2760
 3776TIP3    H232820   4.928   6.334  16.881  1.2115  0.8363 -1.0241
 3777TIP3   OH232821   5.793   5.528  14.405 -0.0347 -0.2249 -0.0696
 3777TIP3    H132822   5.852   5.454  14.418  0.6398  0.4969  1.2445
 3777TIP3    H232823   5.707   5.488  14.393  0.1802 -1.2461  1.4115
 3778TIP3   OH232824   2.521   5.157  10.971  0.2267  0.4380  0.5175
 3778TIP3    H132825   2.587   5.088  10.960  2.0294  1.9523  1.3031
 3778TIP3    H232826   2.503   5.188  10.882  0.8481  0.2416  0.3189
 3779TIP3   OH232827   2.057   5.434  13.639  0.1187  0.0157 -0.2621
 3779TIP3    H132828   2.125   5.458  13.702  0.8098 -1.7721 -0.2510
 3779TIP3    H232829   1.984   5.493  13.658  0.9728  0.7085  1.0000
 3780TIP3   OH232830   3.860   0.411  15.114 -0.1871  0.0491 -0.5965
 3780TIP3    H132831   3.865   0.409  15.019 -2.6246  0.2688 -0.7761
 3780TIP3    H232832   3.886   0.500  15.138  0.4829 -0.0216 -1.0254
 3781TIP3   OH232833   6.394   1.571  13.626 -0.8953 -0.3311  0.3067
 3781TIP3    H132834   6.412   1.641  13.563  0.4714 -1.7941 -1.0047
 3781TIP3    H232835   6.462   1.581  13.693 -2.2349  1.1068  1.5389
 3782TIP3   OH232836   0.326   4.869  15.695 -0.0008  0.3789  0.2419
 3782TIP3    H132837   0.399   4.887  15.755  0.5477 -1.8360  0.2970
 3782TIP3    H232838   0.368   4.845  15.613 -0.7486  2.3024 -0.7683
 3783TIP3   OH232839   6.605   2.870   3.904 -0.3819  0.0452 -0.3551
 3783TIP3    H132840   6.643   2.912   3.981  0.8216  0.3890 -1.1223
 3783TIP3    H232841   6.676   2.818   3.867 -0.8147  0.2186 -1.4700
 3784TIP3   OH232842   4.351   1.716   1.782  0.5494  0.0163  0.3806
 3784TIP3    H132843   4.364   1.623   1.766 -2.2895 -0.1858 -1.3686
 3784TIP3    H232844   4.309   1.749   1.702  0.8673  2.6671  1.2042
 3785TIP3   OH232845   1.370   3.150   1.356  0.5621  0.5074 -0.1870
 3785TIP3    H132846   1.279   3.153   1.324 -0.5667 -0.0110  2.6993
 3785TIP3    H232847   1.369   3.202   1.436  2.5576 -0.4600  0.5255
 3786TIP3   OH232848   5.471   3.730   2.681 -0.4163  0.1542 -0.0392
 3786TIP3    H132849   5.417   3.784   2.740 -0.4080  0.3044 -0.1672
 3786TIP3    H232850   5.486   3.649   2.729 -1.0667 -0.0381 -0.1472
 3787TIP3   OH232851   1.815   0.009  13.468  0.5935 -0.0188 -0.3372
 3787TIP3    H132852   1.745  -0.051  13.496 -1.6115  1.9784 -1.2495
 3787TIP3    H232853   1.851   0.043  13.549 -2.3440  1.9485  0.2958
 3788TIP3   OH232854   3.902   3.209   3.666  0.3466  0.4158  0.4141
 3788TIP3    H132855   3.943   3.131   3.629  0.3724 -0.3181  1.8978
 3788TIP3    H232856   3.946   3.283   3.623  1.3787 -0.3757  0.0753
 3789TIP3   OH232857   0.534   2.947   5.824  0.0968 -0.4914  0.4142
 3789TIP3    H132858   0.585   3.021   5.792  0.8195 -0.5640  1.3479
 3789TIP3    H232859   0.519   2.966   5.916 -1.5991 -0.4734  0.1508
 3790TIP3   OH232860   6.209   6.154  12.615  0.4026 -0.0915  0.1533
 3790TIP3    H132861   6.252   6.077  12.653  1.5628 -0.1404 -1.1796
 3790TIP3    H232862   6.264   6.178  12.540 -0.1876  1.7658  0.2594
 3791TIP3   OH232863   4.924   3.481  15.097 -0.6707  0.6490 -0.0550
 3791TIP3    H132864   4.936   3.459  15.189 -1.0218  2.0731  0.3599
 3791TIP3    H232865   4.831   3.502  15.089 -0.6924  0.3120 -0.7921
 3792TIP3   OH232866   2.545   2.564  16.248  0.6745  0.0249  0.6660
 3792TIP3    H132867   2.619   2.522  16.291  1.2200  0.2456 -0.0296
 3792TIP3    H232868   2.558   2.657  16.264  0.1545  0.0205  1.1417
 3793TIP3   OH232869   0.015   1.086   5.716  0.1805  0.1329  0.3402
 3793TIP3    H132870  -0.065   1.137   5.707 -1.1235 -1.6628  0.9883
 3793TIP3    H232871   0.078   1.145   5.755 -1.1185  1.3469  0.6671
 3794TIP3   OH232872   2.938   4.658  10.283 -0.1292  0.6320  0.6609
 3794TIP3    H132873   2.981   4.737  10.252  0.7038  0.2365  0.7896
 3794TIP3    H232874   2.848   4.685  10.301 -0.0971  1.3268 -0.1758
 3795TIP3   OH232875   5.828   0.462   1.920  0.9227 -0.3714  0.0855
 3795TIP3    H132876   5.772   0.477   1.844 -1.9574  0.1182  2.1303
 3795TIP3    H232877   5.819   0.369   1.939 -2.5318  0.2933  2.6163
 3796TIP3   OH232878   1.351   4.117  16.316 -0.7787  0.7845 -0.3959
 3796TIP3    H132879   1.433   4.134  16.270  0.2656  1.6424  1.6666
 3796TIP3    H232880   1.283   4.154  16.258  0.1421 -0.6278 -2.4965
 3797TIP3   OH232881   0.010   5.288   6.233  0.2571 -0.0109 -0.2403
 3797TIP3    H132882  -0.036   5.315   6.153 -1.1311  1.0790  0.8601
 3797TIP3    H232883   0.053   5.368   6.264  1.0789 -0.5094 -0.0666
 3798TIP3   OH232884   0.161   4.790   6.107  0.1400  0.1365  0.5058
 3798TIP3    H132885   0.244   4.820   6.071  0.6601  0.8080  2.1914
 3798TIP3    H232886   0.134   4.859   6.167 -0.5135 -1.0754  1.6534
 3799TIP3   OH232887   3.948   5.391  11.183  0.3196 -0.2845 -0.5586
 3799TIP3    H132888   4.013   5.447  11.226 -0.1161  0.3914 -0.7574
 3799TIP3    H232889   3.876   5.386  11.245  0.3880 -0.6855 -0.5124
 3800TIP3   OH232890   4.821   5.374   1.455  0.2232  0.0512 -0.1129
 3800TIP3    H132891   4.817   5.281   1.479  1.6841  0.0368  0.1584
 3800TIP3    H232892   4.894   5.380   1.394 -0.7500  0.8136 -1.2465
 3801TIP3   OH232893   4.671   1.982   5.466  0.5735  0.8915  0.4316
 3801TIP3    H132894   4.629   2.018   5.388  2.5789  1.2317 -0.5535
 3801TIP3    H232895   4.736   2.048   5.491 -0.4810  1.1264  2.8441
 3802TIP3   OH232896   6.000   0.011   3.913 -0.6981  0.0194 -0.5263
 3802TIP3    H132897   5.965  -0.041   3.841 -5.8049  2.1117  0.0169
 3802TIP3    H232898   6.027  -0.053   3.978 -0.4296 -1.8997 -2.4217
 3803TIP3   OH232899   0.410   4.439   0.322  0.0495  0.0752 -0.1510
 3803TIP3    H132900   0.342   4.497   0.358 -0.2971 -0.2643 -0.2518
 3803TIP3    H232901   0.399   4.447   0.227  1.0769  1.1061 -0.2095
 3804TIP3   OH232902   3.659   2.726  13.773 -0.7498  0.3780 -0.3069
 3804TIP3    H132903   3.601   2.685  13.708  0.9228 -1.7357 -0.5865
 3804TIP3    H232904   3.663   2.662  13.844  2.3430 -0.2898 -0.9598
 3805TIP3   OH232905   6.161   0.497  17.077  0.6622  0.0827  0.8593
 3805TIP3    H132906   6.070   0.507  17.050  0.5976 -0.5387  0.8327
 3805TIP3    H232907   6.158   0.432  17.147  1.3463 -1.7850 -0.7494
 3806TIP3   OH232908   0.227   4.812  10.571 -0.3387  0.0594  0.3373
 3806TIP3    H132909   0.313   4.825  10.533 -0.5188  1.4631  0.3665
 3806TIP3    H232910   0.232   4.725  10.613  0.0572 -1.2631 -2.2499
 3807TIP3   OH232911   5.235   5.958   1.777  0.8401  0.3173 -1.0556
 3807TIP3    H132912   5.203   5.971   1.688 -0.4042  3.2610 -0.3275
 3807TIP3    H232913   5.166   5.908   1.821  1.1201 -0.5039 -1.5409
 3808TIP3   OH232914   2.120   0.090  15.550  0.1367 -0.0083 -0.1031
 3808TIP3    H132915   2.121   0.165  15.491 -1.4935  1.2739  1.3864
 3808TIP3    H232916   2.204   0.094  15.596  1.1209 -0.6186 -1.7700
 3809TIP3   OH232917   0.946   1.156   1.436  0.4530  0.2492 -0.5211
 3809TIP3    H132918   0.959   1.153   1.531  0.4680 -2.3299 -0.5471
 3809TIP3    H232919   0.863   1.202   1.425  0.9741  1.5535  0.6458
 3810TIP3   OH232920   3.090   2.455  11.534 -0.0872  0.4032 -0.8401
 3810TIP3    H132921   3.131   2.455  11.621  0.0569  0.7913 -0.9049
 3810TIP3    H232922   3.161   2.437  11.473  0.1507  1.8450 -1.0181
 3811TIP3   OH232923   1.807   0.158   2.156 -0.2294 -0.3500  0.2412
 3811TIP3    H132924   1.852   0.147   2.071 -0.5273  2.4154 -0.3658
 3811TIP3    H232925   1.852   0.232   2.197 -2.2030  0.4674  1.0156
 3812TIP3   OH232926   0.407   0.615  15.076 -0.3395 -0.3365 -0.2243
 3812TIP3    H132927   0.447   0.635  14.991  0.4610 -1.4403 -0.1411
 3812TIP3    H232928   0.460   0.664  15.139 -1.0042  0.5735 -0.3514
 3813TIP3   OH232929   2.388   6.376  16.661  0.7674 -0.7348 -0.1046
 3813TIP3    H132930   2.328   6.391  16.734  1.9389 -1.2549  0.9809
 3813TIP3    H232931   2.394   6.461  16.618 -0.8354 -0.6932 -0.3329
 3814TIP3   OH232932   4.201   4.216   6.088 -0.0132 -0.1260 -0.2842
 3814TIP3    H132933   4.110   4.225   6.116 -0.4152  0.4321 -1.6900
 3814TIP3    H232934   4.240   4.301   6.104  0.5494 -0.6376  1.2115
 3815TIP3   OH232935   1.409   1.503   6.023 -0.2326 -0.0879  0.6926
 3815TIP3    H132936   1.414   1.420   5.975 -1.7658 -0.1118  0.5347
 3815TIP3    H232937   1.408   1.570   5.955 -0.5832 -0.0182  0.7692
 3816TIP3   OH232938   3.664   6.756  14.740 -0.1035  0.5424 -0.1612
 3816TIP3    H132939   3.618   6.673  14.736  0.3313  0.3441 -2.1603
 3816TIP3    H232940   3.742   6.744  14.684  0.6350  1.8863  0.5065
 3817TIP3   OH232941   5.086   5.774  14.841  0.5397 -0.3089 -0.7379
 3817TIP3    H132942   5.044   5.707  14.787  0.7967  0.1482 -1.5222
 3817TIP3    H232943   5.079   5.740  14.930  1.5041 -1.8377 -1.2008
 3818TIP3   OH232944   3.508   1.618   5.321  0.1905 -0.3491 -0.0377
 3818TIP3    H132945   3.487   1.610   5.228 -0.2091  1.6788 -0.1751
 3818TIP3    H232946   3.592   1.664   5.323  0.6401 -1.1711  0.6155
 3819TIP3   OH232947   0.417   1.195  11.945  0.0410 -0.0596 -0.1840
 3819TIP3    H132948   0.403   1.287  11.966 -0.0990 -0.3532  1.1343
 3819TIP3    H232949   0.429   1.153  12.030 -0.8556 -1.4155 -0.6867
 3820TIP3   OH232950   6.027   5.166   3.686 -0.3613 -0.2946 -0.1308
 3820TIP3    H132951   6.012   5.160   3.781 -0.2413 -0.1947 -0.1044
 3820TIP3    H232952   6.090   5.237   3.677 -0.6100 -0.0980 -0.3131
 3821TIP3   OH232953   3.503   3.223  13.758 -0.4829 -0.9833  0.1015
 3821TIP3    H132954   3.428   3.210  13.700 -1.0374 -0.4544  0.6814
 3821TIP3    H232955   3.555   3.144  13.749 -0.7621 -1.0721 -0.8211
 3822TIP3   OH232956   6.017   5.905   5.320 -0.2103 -0.5166  0.2962
 3822TIP3    H132957   5.959   5.853   5.264 -0.0941 -0.1630 -0.1546
 3822TIP3    H232958   5.980   5.895   5.408 -1.8638  0.9002 -0.1688
 3823TIP3   OH232959   2.318   6.504  12.816 -0.2026  0.7256  0.0891
 3823TIP3    H132960   2.294   6.430  12.871 -1.0720 -0.9698 -2.3560
 3823TIP3    H232961   2.288   6.581  12.864 -1.8366 -0.7010  1.5061
 3824TIP3   OH232962   0.689   0.569  14.099  0.0776  0.6732 -0.1062
 3824TIP3    H132963   0.616   0.630  14.110  0.4898  1.0638  0.5586
 3824TIP3    H232964   0.670   0.522  14.018 -1.6103 -0.2012  0.7439
 3825TIP3   OH232965   6.047   3.107   1.876  0.1036  0.5598 -0.1463
 3825TIP3    H132966   6.071   3.144   1.792  1.0276 -1.0632 -0.6267
 3825TIP3    H232967   6.038   3.183   1.934  0.0940  1.6427 -1.5263
 3826TIP3   OH232968   4.898   1.517   0.837 -0.1168 -0.2100 -0.2493
 3826TIP3    H132969   4.805   1.499   0.849 -0.1492  0.0256 -0.1379
 3826TIP3    H232970   4.905   1.613   0.845  0.0539 -0.1749 -0.7882
 3827TIP3   OH232971   3.075   1.690   5.327  0.6577 -0.0551 -0.6693
 3827TIP3    H132972   3.143   1.737   5.279 -0.9073 -0.7169 -3.8758
 3827TIP3    H232973   3.103   1.599   5.325  0.4479 -0.1221 -0.5684
 3828TIP3   OH232974   0.646   2.426  11.655  0.2369  0.9567  0.3570
 3828TIP3    H132975   0.557   2.438  11.689 -0.3517  0.3489 -0.8824
 3828TIP3    H232976   0.647   2.473  11.572  0.3185 -0.8908 -0.7586
 3829TIP3   OH232977   1.505   0.242   4.478  0.4575  0.0100  0.3453
 3829TIP3    H132978   1.475   0.297   4.551 -0.1998  0.2935 -0.1274
 3829TIP3    H232979   1.484   0.293   4.400  1.8458  0.0515 -0.0285
 3830TIP3   OH232980   6.477   0.190  15.764 -0.6728  0.3181 -0.7742
 3830TIP3    H132981   6.396   0.202  15.714 -0.7384 -0.5871 -0.8874
 3830TIP3    H232982   6.459   0.230  15.849 -1.2806  0.0115 -0.7548
 3831TIP3   OH232983   0.049   6.031   5.475 -0.3026 -0.0659 -0.2795
 3831TIP3    H132984   0.022   6.114   5.436 -1.6986 -0.4085 -0.0772
 3831TIP3    H232985  -0.018   6.012   5.541  1.7469  0.2818  2.0527
 3832TIP3   OH232986   0.099   0.397   3.506  0.1267 -0.1638 -0.5998
 3832TIP3    H132987   0.083   0.446   3.587  0.7594 -0.6814 -0.1435
 3832TIP3    H232988   0.187   0.423   3.480  0.5907 -1.2530 -0.1864
 3833TIP3   OH232989   6.193   4.086  11.608  0.4765  1.0853 -0.5496
 3833TIP3    H132990   6.233   4.092  11.695 -0.1396  2.0416 -0.3050
 3833TIP3    H232991   6.210   3.997  11.579  2.0710  1.2253 -0.1215
 3834TIP3   OH232992   1.111   2.353  12.669 -0.3181 -0.2413  0.3850
 3834TIP3    H132993   1.067   2.413  12.730 -2.5752 -1.2430 -0.1417
 3834TIP3    H232994   1.164   2.296  12.726 -0.9816 -0.0237  1.2416
 3835TIP3   OH232995   6.673   0.611   0.352  0.0394 -0.3664 -0.0764
 3835TIP3    H132996   6.710   0.693   0.320 -1.6510  0.7584  0.6923
 3835TIP3    H232997   6.659   0.559   0.273 -0.7849  0.9339 -0.8311
 3836TIP3   OH232998   4.590   4.316  11.317  0.9488  0.2532 -0.1760
 3836TIP3    H132999   4.554   4.353  11.237 -0.5542 -0.0118  0.3389
 3836TIP3    H233000   4.627   4.391  11.364  2.2182  0.3522 -1.2641
 3837TIP3   OH233001   4.580   4.976  13.120  0.3437 -0.0145  1.2358
 3837TIP3    H133002   4.626   5.000  13.200  2.0417  0.1498  0.2477
 3837TIP3    H233003   4.537   4.893  13.141  0.9835 -0.1041  2.2346
 3838TIP3   OH233004   2.864   2.738  14.466  0.7580  0.1049 -0.0845
 3838TIP3    H133005   2.896   2.817  14.423  0.7759 -0.7043 -1.6252
 3838TIP3    H233006   2.937   2.711  14.523  0.5711  1.4154  0.8257
 3839TIP3   OH233007   4.197   3.919   3.371 -0.0167 -0.3492  0.3472
 3839TIP3    H133008   4.279   3.922   3.420  0.2915 -2.3473  0.0519
 3839TIP3    H233009   4.199   3.834   3.327 -2.0224 -0.2307 -0.0661
 3840TIP3   OH233010   1.276   4.655  15.395 -0.2578  0.0054  0.4602
 3840TIP3    H133011   1.284   4.562  15.419 -0.2839 -0.0335  0.3187
 3840TIP3    H233012   1.247   4.654  15.304 -1.0755  0.1464  0.7099
 3841TIP3   OH233013   4.874   4.563   4.448  0.7146 -0.0710 -0.1294
 3841TIP3    H133014   4.844   4.653   4.434  0.0431 -0.4365 -1.1532
 3841TIP3    H233015   4.970   4.568   4.442  0.8959  0.9772  2.3879
 3842TIP3   OH233016   5.355   4.753   1.042  0.0310  0.1062  0.0359
 3842TIP3    H133017   5.272   4.712   1.017  0.5631 -0.5537 -0.7119
 3842TIP3    H233018   5.336   4.847   1.044 -0.9656 -0.0945  0.8097
 3843TIP3   OH233019   4.560   4.530  16.903  0.1660  0.0126 -0.1640
 3843TIP3    H133020   4.642   4.482  16.915 -0.1836 -0.2388  1.3818
 3843TIP3    H233021   4.578   4.618  16.936 -0.0952  0.0544 -0.1312
 3844TIP3   OH233022   2.723   6.711  12.368 -0.0003  0.3250 -0.4149
 3844TIP3    H133023   2.802   6.665  12.340  0.1229 -0.5028  1.1486
 3844TIP3    H233024   2.745   6.747  12.454 -1.3022  0.1217  0.0355
 3845TIP3   OH233025   2.177   1.190  14.739  0.0478 -0.7033  0.1924
 3845TIP3    H133026   2.245   1.251  14.768 -0.1246 -1.6829  2.9401
 3845TIP3    H233027   2.219   1.104  14.742 -0.5774 -1.0659 -0.7331
 3846TIP3   OH233028   3.990   4.269   0.787 -0.6831  0.2378 -0.0067
 3846TIP3    H133029   3.966   4.179   0.811 -0.1299  0.4281  1.3442
 3846TIP3    H233030   3.928   4.293   0.718 -0.9123 -1.1315 -0.3128
 3847TIP3   OH233031   0.095   1.153  10.499 -0.5528  0.3171 -0.2514
 3847TIP3    H133032   0.022   1.141  10.437 -1.3073 -1.5040  0.9242
 3847TIP3    H233033   0.059   1.207  10.569  0.1155  1.8302 -1.0202
 3848TIP3   OH233034   5.493   2.449   4.036  0.1549 -0.1983 -0.0738
 3848TIP3    H133035   5.409   2.430   4.077  0.9071 -2.3266  0.5903
 3848TIP3    H233036   5.546   2.490   4.105 -0.8177  2.8503 -0.9693
 3849TIP3   OH233037   4.065   5.773  15.135  0.0471  0.2195  0.3192
 3849TIP3    H133038   4.031   5.858  15.162 -1.2057 -0.3203  0.5361
 3849TIP3    H233039   4.054   5.717  15.213  0.3429 -0.2745  0.0114
 3850TIP3   OH233040   6.818   1.832  14.191 -0.2307  0.3115  0.5778
 3850TIP3    H133041   6.812   1.815  14.285  0.4976  0.9786  0.7483
 3850TIP3    H233042   6.849   1.749  14.154  2.0675  0.7933  1.2571
 3851TIP3   OH233043   5.593   2.180  11.763 -0.8439 -0.0686 -0.3945
 3851TIP3    H133044   5.517   2.128  11.790 -1.9937  0.7248 -1.8711
 3851TIP3    H233045   5.565   2.271  11.774 -0.1231  0.2374 -0.9615
 3852TIP3   OH233046   3.632   3.119   3.139 -0.7862  0.1258  0.2769
 3852TIP3    H133047   3.648   3.206   3.103  0.7219 -0.5539 -0.7660
 3852TIP3    H233048   3.538   3.104   3.124 -1.1138  1.6201  0.6411
 3853TIP3   OH233049   5.389   1.105  10.632 -0.1043 -0.1312  0.3842
 3853TIP3    H133050   5.484   1.098  10.624  0.0068  1.9713 -1.0910
 3853TIP3    H233051   5.355   1.066  10.552 -0.3484  0.6862  0.0734
 3854TIP3   OH233052   3.589   2.315  12.188  0.3609 -0.4091  0.0441
 3854TIP3    H133053   3.572   2.399  12.229  1.3486 -0.2295  0.1087
 3854TIP3    H233054   3.502   2.277  12.173 -0.2274  1.4408 -1.7476
 3855TIP3   OH233055   6.482   2.695   2.917  0.1978  0.1496 -0.0633
 3855TIP3    H133056   6.534   2.678   2.995 -0.5199 -1.2846  0.1594
 3855TIP3    H233057   6.431   2.773   2.938  0.3926  0.0766  0.7027
 3856TIP3   OH233058   4.059   1.454  11.300  0.3632  0.3859 -0.1435
 3856TIP3    H133059   4.011   1.484  11.377 -0.2260  3.5631 -1.5755
 3856TIP3    H233060   4.149   1.484  11.315  0.5963 -0.3455 -0.0462
 3857TIP3   OH233061   4.033   0.970  15.629  0.0391  0.1453 -0.0321
 3857TIP3    H133062   4.021   1.030  15.555  1.9499  1.4290  0.6558
 3857TIP3    H233063   4.070   0.891  15.589  0.9911  0.8020 -0.4747
 3858TIP3   OH233064   6.834   6.554  15.888  0.2673 -0.5063  0.4195
 3858TIP3    H133065   6.834   6.469  15.845  0.0193 -0.2411 -0.1111
 3858TIP3    H233066   6.747   6.562  15.926 -0.1694  0.0813 -0.6827
 3859TIP3   OH233067   5.812   1.290   5.297 -0.7204  0.0362  0.0606
 3859TIP3    H133068   5.765   1.309   5.216  1.1699 -1.0112 -1.3447
 3859TIP3    H233069   5.848   1.202   5.285 -2.7783 -1.4357  3.2392
 3860TIP3   OH233070   1.405   2.315   2.260  0.2066 -0.1634  0.1566
 3860TIP3    H133071   1.428   2.236   2.211  0.3450 -1.2233  1.8575
 3860TIP3    H233072   1.315   2.301   2.287  0.4266 -0.0042  0.9800
 3861TIP3   OH233073   3.747   4.355  13.514 -1.0688  0.5377  0.0057
 3861TIP3    H133074   3.726   4.283  13.454  3.4351 -2.9739  1.9666
 3861TIP3    H233075   3.678   4.353  13.580 -1.0494 -2.1858  0.0450
 3862TIP3   OH233076   2.189   4.365  10.899  0.1804  0.1618  0.1924
 3862TIP3    H133077   2.198   4.442  10.844  0.1277  0.5863  0.7739
 3862TIP3    H233078   2.125   4.310  10.852  1.7867 -0.5299 -1.3066
 3863TIP3   OH233079   6.267   3.824  13.321  0.2818  0.1896  0.0032
 3863TIP3    H133080   6.225   3.768  13.386  2.3452  1.2045  2.3854
 3863TIP3    H233081   6.221   3.805  13.239  0.1627 -4.1828  0.8265
 3864TIP3   OH233082   0.369   4.051  11.470  0.2747 -0.2966  0.1491
 3864TIP3    H133083   0.311   3.976  11.485  0.0555 -0.3051 -0.6900
 3864TIP3    H233084   0.357   4.106  11.547 -0.9304 -0.2526 -0.0406
 3865TIP3   OH233085   2.537   6.439   0.432 -0.1128  0.3770  0.5987
 3865TIP3    H133086   2.572   6.445   0.344 -1.9994 -1.3091 -0.3597
 3865TIP3    H233087   2.605   6.476   0.488  1.3570  1.0039 -1.4932
 3866TIP3   OH233088   5.650   1.263   2.743  0.3179  0.7792 -0.1546
 3866TIP3    H133089   5.617   1.194   2.800  2.8243 -0.8745 -0.5217
 3866TIP3    H233090   5.612   1.344   2.777 -0.2428 -0.4271  2.2724
 3867TIP3   OH233091   1.496   0.469   4.292 -0.5519 -0.1445 -0.9769
 3867TIP3    H133092   1.487   0.534   4.362 -0.2163  0.8496 -1.8331
 3867TIP3    H233093   1.418   0.480   4.238 -1.5598 -1.9208  0.0113
 3868TIP3   OH233094   1.565   3.527   2.140 -0.0751 -0.4528 -0.2465
 3868TIP3    H133095   1.481   3.527   2.094  0.1506  0.4205 -0.6912
 3868TIP3    H233096   1.579   3.436   2.166 -1.7093 -0.4368  0.8683
 3869TIP3   OH233097   1.239   4.913  14.363 -0.2766  0.2048 -0.4464
 3869TIP3    H133098   1.294   4.838  14.386  0.1341  1.0575  1.5779
 3869TIP3    H233099   1.292   4.963  14.300  1.0278  0.6684  0.9788
 3870TIP3   OH233100   6.688   6.656  13.736 -0.0443 -0.2201  0.4731
 3870TIP3    H133101   6.734   6.682  13.816 -0.6816  3.2757 -0.0996
 3870TIP3    H233102   6.706   6.727  13.675 -3.0107 -0.6185 -1.0499
 3871TIP3   OH233103   5.562   0.064  11.025  0.0419  0.4685 -0.4970
 3871TIP3    H133104   5.600   0.008  10.957  0.8494 -0.6163  0.7916
 3871TIP3    H233105   5.536   0.003  11.094 -0.3999  1.5757  0.3378
 3872TIP3   OH233106   3.639   5.769   5.289  0.1456  0.4471  0.1357
 3872TIP3    H133107   3.608   5.811   5.209  2.2468  0.3662 -0.7817
 3872TIP3    H233108   3.634   5.676   5.272 -0.5422  0.4021  0.5665
 3873TIP3   OH233109   2.355   4.022   0.593  0.4930  0.5829 -0.4107
 3873TIP3    H133110   2.398   4.108   0.598  1.4625  0.0848  0.0635
 3873TIP3    H233111   2.409   3.973   0.530  1.2515 -0.3877  0.9511
 3874TIP3   OH233112   6.717   1.378  12.404 -0.5084 -0.3311  0.0006
 3874TIP3    H133113   6.623   1.395  12.417 -0.8063 -1.5277 -0.4542
 3874TIP3    H233114   6.731   1.293  12.446  0.6907  0.4665  1.2950
 3875TIP3   OH233115   3.759   5.108   3.301 -0.1070 -0.3261 -0.4693
 3875TIP3    H133116   3.782   5.153   3.220  2.5110 -0.2983  0.1851
 3875TIP3    H233117   3.823   5.038   3.308 -1.5826 -1.6381  0.5794
 3876TIP3   OH233118   4.665   1.633   2.448 -0.2069 -0.5723  0.8322
 3876TIP3    H133119   4.649   1.539   2.456  0.1949 -0.7073  0.1825
 3876TIP3    H233120   4.759   1.639   2.428 -0.4764 -0.1220 -0.3776
 3877TIP3   OH233121   5.379   6.672   4.207  0.3528  0.2019 -0.5627
 3877TIP3    H133122   5.426   6.589   4.222  0.0358  0.2758  1.0900
 3877TIP3    H233123   5.429   6.716   4.139  2.2463 -0.0922  0.5386
 3878TIP3   OH233124   6.363   2.488   1.042  0.3529 -0.1339 -0.0854
 3878TIP3    H133125   6.419   2.413   1.059 -1.2458 -1.7609 -1.5506
 3878TIP3    H233126   6.300   2.457   0.977 -2.4953  1.4535  1.7320
 3879TIP3   OH233127   0.021   4.684  12.524  0.0051  0.0653  0.5102
 3879TIP3    H133128   0.063   4.632  12.592  1.4024 -0.7454 -0.9030
 3879TIP3    H233129   0.090   4.743  12.493 -0.7980  0.8938  0.2599
 3880TIP3   OH233130   1.168   0.708   1.143  0.2663 -0.3168 -0.2468
 3880TIP3    H133131   1.090   0.763   1.140  0.5845  0.4142  2.2192
 3880TIP3    H233132   1.139   0.628   1.187  0.6038 -0.5661 -0.4768
 3881TIP3   OH233133   3.478   4.781  15.135  0.8355  0.4652 -0.1056
 3881TIP3    H133134   3.561   4.736  15.149  0.1248 -0.4112  1.5865
 3881TIP3    H233135   3.460   4.825  15.218 -1.8856 -2.0161  0.8219
 3882TIP3   OH233136   4.100   6.774  16.612  0.6120 -0.2716  0.1258
 3882TIP3    H133137   4.176   6.718  16.593  1.4193  1.2632 -1.5585
 3882TIP3    H233138   4.028   6.735  16.562  0.7844 -0.6613  0.1809
 3883TIP3   OH233139   5.804   5.121   6.589  0.4466  0.1085  0.2789
 3883TIP3    H133140   5.809   5.192   6.653  1.5363  0.1316  0.1950
 3883TIP3    H233141   5.830   5.043   6.638  0.1274 -0.0803  0.1495
 3884TIP3   OH233142   5.721   5.817   2.795 -0.3195  0.0872 -0.3568
 3884TIP3    H133143   5.687   5.733   2.827 -0.0638  0.5628  1.2480
 3884TIP3    H233144   5.802   5.794   2.749  0.0324 -0.5074  0.5361
 3885TIP3   OH233145   5.318   5.150  10.470 -0.2347  0.1132 -0.0092
 3885TIP3    H133146   5.319   5.212  10.543 -0.1940 -0.0571  0.1329
 3885TIP3    H233147   5.376   5.190  10.405  0.5651 -0.2387  0.4681
 3886TIP3   OH233148   1.571   2.672   5.240 -0.5064  0.3738 -1.0151
 3886TIP3    H133149   1.482   2.683   5.275  0.6045  1.3109  1.8119
 3886TIP3    H233150   1.571   2.723   5.159 -1.6117  3.5510  0.7993
 3887TIP3   OH233151   2.715   5.914  12.038 -0.1511  0.0910  0.3429
 3887TIP3    H133152   2.714   5.966  11.958  0.8133 -1.0548 -0.4671
 3887TIP3    H233153   2.644   5.948  12.091  1.0161  2.8528  0.2847
 3888TIP3   OH233154   6.610   6.586  16.036 -0.4468  0.2647 -0.6422
 3888TIP3    H133155   6.610   6.532  16.115 -0.5252  0.1130 -0.7468
 3888TIP3    H233156   6.552   6.541  15.975 -0.0380  0.1420 -0.9489
 3889TIP3   OH233157   5.575   6.699   0.260 -0.2658  0.0627 -0.1602
 3889TIP3    H133158   5.632   6.639   0.308 -1.1674 -1.7219 -1.2292
 3889TIP3    H233159   5.543   6.648   0.186 -0.8154  1.9847 -1.3250
 3890TIP3   OH233160   2.435   3.948   2.089 -0.3666  0.4049  0.7040
 3890TIP3    H133161   2.528   3.956   2.068  0.1593 -2.1533  1.6625
 3890TIP3    H233162   2.390   3.953   2.004  1.1513 -3.3696 -0.5318
 3891TIP3   OH233163   6.181   6.822   0.094 -0.6517  0.0197  0.6545
 3891TIP3    H133164   6.141   6.739   0.120 -0.5542 -0.0105  0.7107
 3891TIP3    H233165   6.218   6.857   0.176 -0.4263 -0.0288  0.5747
 3892TIP3   OH233166   1.143   0.067   4.941 -0.2188  0.3875  0.0986
 3892TIP3    H133167   1.128   0.011   5.016  1.8290 -2.1149 -1.1877
 3892TIP3    H233168   1.091   0.028   4.871  1.4795 -0.2083 -0.9026
 3893TIP3   OH233169   0.154   0.770   0.630  0.4129  0.1331 -0.6025
 3893TIP3    H133170   0.095   0.712   0.582 -1.7159  0.9907  0.8331
 3893TIP3    H233171   0.159   0.849   0.577 -0.1376  0.2522 -0.4734
 3894TIP3   OH233172   4.975   1.457  13.322  0.0447 -0.9027 -0.1529
 3894TIP3    H133173   4.961   1.382  13.265 -1.0653 -0.4558 -0.4790
 3894TIP3    H233174   5.039   1.426  13.386  0.1463 -1.8921 -0.7137
 3895TIP3   OH233175   1.166   2.123   5.086  0.6083 -0.3636  0.5417
 3895TIP3    H133176   1.126   2.158   5.165  1.9932  3.5174 -0.2233
 3895TIP3    H233177   1.252   2.091   5.115  1.0063  0.8097  0.7447
 3896TIP3   OH233178   0.747   5.878   5.766 -0.0480 -0.1934 -0.0940
 3896TIP3    H133179   0.788   5.827   5.696 -2.3807 -0.9837 -0.9576
 3896TIP3    H233180   0.759   5.824   5.844 -0.9979 -1.3163 -0.6866
 3897TIP3   OH233181   5.753   4.267   3.819  0.3727  0.5476 -0.4732
 3897TIP3    H133182   5.697   4.279   3.895 -2.1406 -1.5252 -1.8263
 3897TIP3    H233183   5.827   4.216   3.852  0.7763  2.0520  1.0722
 3898TIP3   OH233184   3.180   4.807  14.458 -0.2180 -0.8510  0.1441
 3898TIP3    H133185   3.254   4.866  14.471 -0.2113 -0.7345 -0.4086
 3898TIP3    H233186   3.131   4.812  14.540  0.5233 -1.1301  0.6166
 3899TIP3   OH233187   1.671   2.853  15.938  0.5492 -0.2696 -0.3222
 3899TIP3    H133188   1.626   2.774  15.968  0.7032  0.4238  1.9956
 3899TIP3    H233189   1.621   2.925  15.976  0.5891  0.7612 -2.1241
 3900TIP3   OH233190   1.592   4.194  10.643 -0.1845 -0.1175  0.0954
 3900TIP3    H133191   1.546   4.264  10.690 -2.4377 -1.4626  0.0688
 3900TIP3    H233192   1.676   4.233  10.619 -0.6499  2.0054  1.5281
 3901TIP3   OH233193   4.392   5.357   2.044  0.2751  0.2702 -0.1179
 3901TIP3    H133194   4.434   5.384   1.963 -0.0671  1.7927  0.1867
 3901TIP3    H233195   4.394   5.434   2.100  0.1238 -0.6252  1.1781
 3902TIP3   OH233196   0.789   1.811   2.984  0.2613 -0.6764  0.1429
 3902TIP3    H133197   0.863   1.764   3.022  1.7780  0.3523 -1.4153
 3902TIP3    H233198   0.827   1.865   2.914 -1.9231  0.0682 -0.5669
 3903TIP3   OH233199   2.466   3.267   4.711  0.4612  0.7321 -0.5152
 3903TIP3    H133200   2.433   3.240   4.625  0.4624  1.3409 -0.7139
 3903TIP3    H233201   2.396   3.320   4.749  1.1144  1.9069 -0.8770
 3904TIP3   OH233202   0.667   0.053   6.062  0.0354  0.6510  0.1362
 3904TIP3    H133203   0.699   0.003   6.137 -2.3868 -1.0364  0.1582
 3904TIP3    H233204   0.677   0.145   6.088  1.7321  0.1494  1.3750
 3905TIP3   OH233205   5.069   4.874   4.276  0.1524 -0.2265 -0.5196
 3905TIP3    H133206   5.141   4.830   4.322  0.4536  0.3731 -0.4159
 3905TIP3    H233207   5.104   4.960   4.253 -0.0026 -0.4975 -1.8543
 3906TIP3   OH233208   6.856   6.391  13.200  0.1919  0.3177 -0.1333
 3906TIP3    H133209   6.857   6.486  13.186 -0.2024  0.2731 -0.4479
 3906TIP3    H233210   6.784   6.376  13.261  0.8457  0.3220  0.6606
 3907TIP3   OH233211   2.955   4.998  11.284  0.0817 -0.1329 -0.8292
 3907TIP3    H133212   2.946   5.040  11.369 -0.6503 -0.8121 -0.5572
 3907TIP3    H233213   2.867   4.999  11.247 -0.3206 -2.7233 -0.1585
 3908TIP3   OH233214   4.374   5.737  12.185 -0.7636  0.1789 -0.7774
 3908TIP3    H133215   4.361   5.790  12.264  0.9817  1.8280 -1.5269
 3908TIP3    H233216   4.301   5.675  12.186 -0.9413  0.2951  1.9867
 3909TIP3   OH233217   0.833   4.449   1.220 -0.4951  0.5154  0.2798
 3909TIP3    H133218   0.825   4.545   1.224 -0.8567  0.4949  0.0922
 3909TIP3    H233219   0.827   4.428   1.127  0.7401  0.3996  0.2104
 3910TIP3   OH233220   1.177   1.268  11.726  0.3076  0.6939 -0.4527
 3910TIP3    H133221   1.146   1.193  11.675  0.1744  1.5298 -1.6299
 3910TIP3    H233222   1.234   1.316  11.666  0.1730  1.6906  0.1982
 3911TIP3   OH233223   1.388   0.108  17.078 -0.2748 -0.3076 -0.2390
 3911TIP3    H133224   1.339   0.119  16.996 -0.9636 -0.4725  0.1447
 3911TIP3    H233225   1.471   0.069  17.051 -0.5923 -0.5897 -0.8360
 3912TIP3   OH233226   3.467   1.309   1.774  0.1338  0.0142  0.1376
 3912TIP3    H133227   3.514   1.225   1.779 -1.4404 -0.9045 -0.0377
 3912TIP3    H233228   3.445   1.328   1.865 -1.5325 -0.9799 -0.0206
 3913TIP3   OH233229   1.193   2.101   1.424  0.0458  0.4404 -0.0978
 3913TIP3    H133230   1.222   2.178   1.375  2.0875 -0.9286 -1.1928
 3913TIP3    H233231   1.106   2.081   1.388 -0.2611  1.8731 -0.2007
 3914TIP3   OH233232   1.179   0.274   4.344  0.8367 -0.3333  0.1111
 3914TIP3    H133233   1.146   0.191   4.377  0.3222 -0.7872 -1.4436
 3914TIP3    H233234   1.162   0.337   4.415 -1.3266 -0.9989  0.2578
 3915TIP3   OH233235   3.117   2.898   3.404 -0.6050 -0.3851  0.3361
 3915TIP3    H133236   3.158   2.847   3.334  0.6010 -0.9071  1.3897
 3915TIP3    H233237   3.109   2.837   3.477 -0.6012  0.4977  1.0955
 3916TIP3   OH233238   1.298   2.694  11.968  0.2552  0.3595 -0.7251
 3916TIP3    H133239   1.374   2.687  11.910 -0.8153 -1.3498 -2.0300
 3916TIP3    H233240   1.311   2.624  12.032  0.6142  1.1782  0.1057
 3917TIP3   OH233241   1.434   5.145  17.058  0.1586  0.2332 -0.1979
 3917TIP3    H133242   1.499   5.134  17.127 -1.1503 -1.7354  0.8376
 3917TIP3    H233243   1.475   5.204  16.995  2.2764  0.3363  1.1683
 3918TIP3   OH233244   0.561   6.508  10.562 -0.2325  0.1285 -0.6520
 3918TIP3    H133245   0.640   6.559  10.547 -0.0841 -0.6135 -2.7240
 3918TIP3    H233246   0.588   6.417  10.548 -1.3523 -0.1738 -0.9540
 3919TIP3   OH233247   5.683   4.263   0.790 -0.5993  0.0669 -0.3992
 3919TIP3    H133248   5.686   4.168   0.785  0.7107 -0.0622  1.5779
 3919TIP3    H233249   5.730   4.293   0.712 -0.7456 -0.9087 -0.8702
 3920TIP3   OH233250   4.835   6.569  13.475  0.6592 -0.2495 -0.2780
 3920TIP3    H133251   4.753   6.571  13.525  0.7136  1.0420 -0.2037
 3920TIP3    H233252   4.898   6.525  13.533 -0.2149 -2.2849 -0.7712
 3921TIP3   OH233253   4.038   6.068  11.824  0.0237 -0.0467 -1.0325
 3921TIP3    H133254   4.053   6.162  11.827 -1.1565  0.2518  3.7235
 3921TIP3    H233255   3.943   6.058  11.819  0.1300 -0.9686 -1.4455
 3922TIP3   OH233256   3.066   1.103  13.450  0.1525 -0.6071  0.0736
 3922TIP3    H133257   3.157   1.105  13.422 -0.0595 -1.3242 -0.7199
 3922TIP3    H233258   3.067   1.134  13.540  1.0217  0.5801 -0.3279
 3923TIP3   OH233259   5.424   5.224   1.112 -0.1444  0.3331 -0.2745
 3923TIP3    H133260   5.439   5.305   1.161  3.3369  0.2639 -0.9328
 3923TIP3    H233261   5.439   5.249   1.021 -2.8641 -0.3149 -0.9691
 3924TIP3   OH233262   0.050   3.877  16.425 -0.1967  0.3345  0.2596
 3924TIP3    H133263  -0.003   3.947  16.464 -1.9740 -0.4288 -0.6434
 3924TIP3    H233264   0.127   3.871  16.481 -1.9991  0.1580  2.9409
 3925TIP3   OH233265   0.197   0.993  12.247  0.5059 -0.6108 -0.0055
 3925TIP3    H133266   0.183   0.907  12.205 -2.9058 -0.8302  1.2951
 3925TIP3    H233267   0.159   1.056  12.185  0.0226 -0.4163  0.4812
 3926TIP3   OH233268   4.839   0.002  16.426 -0.1457  0.3892  0.3410
 3926TIP3    H133269   4.829   0.017  16.331 -0.2729 -3.0675 -0.3012
 3926TIP3    H233270   4.776   0.063  16.466 -1.0741  1.0019 -1.8607
 3927TIP3   OH233271   4.873   3.865  14.333  0.1468 -0.3265  0.4648
 3927TIP3    H133272   4.844   3.820  14.253  0.5026 -0.9239  0.6607
 3927TIP3    H233273   4.845   3.807  14.404  2.6218 -1.4679  0.6317
 3928TIP3   OH233274   6.687   1.691   1.894 -0.3439 -0.5095  0.0708
 3928TIP3    H133275   6.695   1.610   1.944 -1.3292 -1.1031 -0.6801
 3928TIP3    H233276   6.775   1.729   1.894  0.0341 -1.3543  0.7959
 3929TIP3   OH233277   1.264   6.145   4.644  0.0129 -0.1079  0.4112
 3929TIP3    H133278   1.339   6.094   4.677  0.4137  0.8363  1.0109
 3929TIP3    H233279   1.278   6.233   4.680  0.2827  0.9054 -1.9892
 3930TIP3   OH233280   1.757   3.086  12.748  0.4484 -0.8119  0.3841
 3930TIP3    H133281   1.833   3.085  12.689 -0.5395 -0.6327 -0.9544
 3930TIP3    H233282   1.729   2.994  12.752  1.2760 -1.0344  1.6521
 3931TIP3   OH233283   5.937   1.339  12.361  0.3121 -0.5874  0.2881
 3931TIP3    H133284   5.915   1.257  12.318 -1.0007  0.2021 -0.6185
 3931TIP3    H233285   5.991   1.313  12.436  0.4288 -2.2077 -0.3182
 3932TIP3   OH233286   5.820   0.934  14.730  0.1539 -0.1197 -0.3459
 3932TIP3    H133287   5.823   1.011  14.787  0.3709 -0.3019 -0.1132
 3932TIP3    H233288   5.860   0.864  14.781 -0.3661 -0.4800 -0.4138
 3933TIP3   OH233289   4.906   4.983   3.829 -0.1480  0.4381  0.1452
 3933TIP3    H133290   4.848   5.051   3.863 -0.2163  0.2695  0.3639
 3933TIP3    H233291   4.993   5.008   3.861 -0.4149 -0.5290  1.7168
 3934TIP3   OH233292   2.140   2.416   5.519 -0.1278 -0.0551  0.2940
 3934TIP3    H133293   2.233   2.421   5.537  0.3009  0.7429 -1.8960
 3934TIP3    H233294   2.101   2.391   5.603  2.0974 -1.2054  1.0680
 3935TIP3   OH233295   5.101   5.956   0.169 -0.2693  0.1723  0.6035
 3935TIP3    H133296   5.134   5.880   0.121 -0.7283  0.3387  0.0102
 3935TIP3    H233297   5.066   6.014   0.101 -1.3682  0.2007  1.1665
 3936TIP3   OH233298   1.284   2.971  11.552  0.0078 -0.2658 -0.3811
 3936TIP3    H133299   1.279   2.934  11.463  0.6611 -0.5420 -0.3039
 3936TIP3    H233300   1.207   2.937  11.596 -0.5560  0.2121 -0.9666
 3937TIP3   OH233301   3.419   1.594  12.934  0.5848  0.6176 -0.1227
 3937TIP3    H133302   3.475   1.670  12.948  1.9278 -0.5060  0.7141
 3937TIP3    H233303   3.477   1.519  12.939 -0.5579 -0.4592 -1.8140
 3938TIP3   OH233304   1.178   5.183   2.453  0.0058  0.2673 -0.2974
 3938TIP3    H133305   1.272   5.197   2.462 -0.2372  1.0004  1.7602
 3938TIP3    H233306   1.165   5.091   2.476  0.0649  0.6349  1.3405
 3939TIP3   OH233307   6.812   3.423   4.361 -0.3478 -0.5506  0.2443
 3939TIP3    H133308   6.906   3.422   4.341 -0.4435 -0.3886 -0.2342
 3939TIP3    H233309   6.808   3.413   4.456  0.1505 -0.6675  0.2585
 3940TIP3   OH233310   0.011   6.407  14.550  0.1373  0.5411 -0.5660
 3940TIP3    H133311   0.058   6.326  14.533  0.3270  0.8519 -1.5820
 3940TIP3    H233312  -0.081   6.383  14.546  0.1872  0.1305  0.4304
 3941TIP3   OH233313   3.878   0.236   2.872 -0.3652 -0.1965  0.0122
 3941TIP3    H133314   3.862   0.293   2.797  2.1082 -0.2125 -0.6033
 3941TIP3    H233315   3.791   0.205   2.897 -1.5515  2.0613 -1.0223
 3942TIP3   OH233316   0.119   3.621   5.356 -0.2677 -0.3617 -0.3803
 3942TIP3    H133317   0.065   3.555   5.400 -1.3142  1.3953  1.0989
 3942TIP3    H233318   0.144   3.682   5.425 -0.2366  1.3873 -1.8522
 3943TIP3   OH233319   1.837   5.592  12.932 -0.1723 -0.0268  0.8704
 3943TIP3    H133320   1.778   5.644  12.987 -2.7085 -0.4682 -1.2000
 3943TIP3    H233321   1.804   5.606  12.843  3.5121  0.4203 -0.6062
 3944TIP3   OH233322   0.868   2.187  16.413  0.8806  0.0577  0.0673
 3944TIP3    H133323   0.943   2.194  16.471  1.4517  0.3563 -0.6872
 3944TIP3    H233324   0.843   2.095  16.416  0.7218  0.1268  0.9956
 3945TIP3   OH233325   5.704   5.192  12.489 -0.6534  0.1638 -0.1635
 3945TIP3    H133326   5.761   5.223  12.560  0.0774  0.0348 -0.6868
 3945TIP3    H233327   5.726   5.100  12.479 -3.0822 -0.7172  1.6312
 3946TIP3   OH233328   3.924   4.210   6.123 -0.3450  0.5390 -0.4649
 3946TIP3    H133329   3.884   4.280   6.071  1.3573  1.6905 -0.3224
 3946TIP3    H233330   3.926   4.245   6.212 -0.3961 -0.1113 -0.2052
 3947TIP3   OH233331   3.290   0.173  16.348 -0.5191  0.2582 -0.3013
 3947TIP3    H133332   3.232   0.182  16.423  0.9247  1.5179  0.7303
 3947TIP3    H233333   3.280   0.255  16.300  0.9654  0.8654  0.3563
 3948TIP3   OH233334   2.300   5.843   5.705  0.3547  0.1690  0.4041
 3948TIP3    H133335   2.305   5.819   5.798  1.2916 -0.2533  0.2506
 3948TIP3    H233336   2.257   5.769   5.664  3.1339 -1.3008 -0.0487
 3949TIP3   OH233337   2.166   2.017  16.253  0.0976  0.1498 -0.8668
 3949TIP3    H133338   2.083   1.969  16.250 -0.7427  1.5447 -0.8200
 3949TIP3    H233339   2.201   2.008  16.164 -1.0279  1.0739 -1.4385
 3950TIP3   OH233340   1.305   1.853  10.728  0.1586  0.3470  0.0006
 3950TIP3    H133341   1.325   1.852  10.634  1.2423  1.3423  0.1995
 3950TIP3    H233342   1.244   1.926  10.738 -0.8433 -0.4577 -0.0736
 3951TIP3   OH233343   0.910   3.054  13.770 -0.2307 -0.5797 -0.0781
 3951TIP3    H133344   0.863   2.977  13.802 -0.4969 -0.9616 -1.3183
 3951TIP3    H233345   0.955   3.023  13.691  0.1385  0.3959 -0.2644
 3952TIP3   OH233346   1.273   1.858  15.336 -0.1437  0.3466 -0.7117
 3952TIP3    H133347   1.276   1.891  15.246 -0.1112  2.7664  0.1093
 3952TIP3    H233348   1.185   1.879  15.366 -0.0929 -0.2891 -0.0954
 3953TIP3   OH233349   5.547   4.147  11.996  0.2550 -0.3540 -0.4680
 3953TIP3    H133350   5.469   4.104  11.961 -0.7520  2.6825 -2.3471
 3953TIP3    H233351   5.620   4.088  11.973 -1.2565 -2.5719  0.0979
 3954TIP3   OH233352   4.918   2.840  12.894  0.4657 -0.1195  0.2780
 3954TIP3    H133353   4.861   2.825  12.970 -0.8759 -0.8067 -0.8186
 3954TIP3    H233354   4.864   2.892  12.834  1.1965 -0.3221 -0.5634
 3955TIP3   OH233355   0.120   4.982   0.152 -0.3089 -0.5581 -0.0448
 3955TIP3    H133356   0.166   4.951   0.074  1.0634 -0.4942  0.7133
 3955TIP3    H233357   0.189   4.995   0.217 -0.8267  3.3123 -0.0393
 3956TIP3   OH233358   4.810   5.117   3.513  0.0531  0.5439  0.1252
 3956TIP3    H133359   4.751   5.171   3.565  0.0469  1.0704 -0.4154
 3956TIP3    H233360   4.759   5.092   3.436  0.1675  0.0579  0.2082
 3957TIP3   OH233361   3.625   2.296  12.521 -0.4386  0.1256 -0.0171
 3957TIP3    H133362   3.531   2.280  12.530 -0.4523  0.5148  0.5561
 3957TIP3    H233363   3.630   2.372  12.463 -0.4445 -0.3761 -0.6959
 3958TIP3   OH233364   1.312   3.303  15.160  0.2001  0.4039  0.2291
 3958TIP3    H133365   1.303   3.320  15.254  1.6345  0.7364  0.3377
 3958TIP3    H233366   1.224   3.281  15.131 -0.1451 -0.4597  1.8040
 3959TIP3   OH233367   4.210   6.013   3.317  0.1850  0.3467 -0.2779
 3959TIP3    H133368   4.297   5.973   3.311 -0.8341 -1.9641 -0.5882
 3959TIP3    H233369   4.165   5.963   3.384 -0.4806  2.4850  0.9731
 3960TIP3   OH233370   3.852   4.672  11.846 -0.1343  0.5246  0.0762
 3960TIP3    H133371   3.882   4.741  11.906  2.1120 -0.3944  0.1183
 3960TIP3    H233372   3.857   4.711  11.759 -0.6809  0.9818  0.2463
 3961TIP3   OH233373   0.059   4.471  11.832 -0.5809  0.1715 -0.0599
 3961TIP3    H133374   0.103   4.548  11.797 -0.5649  0.1184 -0.1559
 3961TIP3    H233375  -0.034   4.489  11.822 -0.6522  1.0507  1.7469
 3962TIP3   OH233376   1.181   2.992   3.008  0.2030  0.2756 -0.0153
 3962TIP3    H133377   1.245   2.932   2.971 -0.9460  0.4361 -2.4481
 3962TIP3    H233378   1.215   3.079   2.988 -0.5508  0.3646 -0.9702
 3963TIP3   OH233379   3.313   5.107  14.757 -0.1128  0.0587 -0.5261
 3963TIP3    H133380   3.346   5.086  14.844  0.4954 -1.2536 -1.0601
 3963TIP3    H233381   3.235   5.052  14.747 -0.7652  0.9444 -0.4377
 3964TIP3   OH233382   3.584   6.279  13.686  0.1764  0.2243  0.1044
 3964TIP3    H133383   3.516   6.264  13.620 -0.7953  1.0333  0.8949
 3964TIP3    H233384   3.595   6.195  13.729 -0.2517  0.0551 -0.1109
 3965TIP3   OH233385   4.201   2.426   0.427 -0.3336 -0.3734 -0.1429
 3965TIP3    H133386   4.250   2.497   0.384 -1.0812  0.2797  0.0595
 3965TIP3    H233387   4.268   2.361   0.449  0.2724 -0.0300 -0.9224
 3966TIP3   OH233388   0.412   2.010   2.634 -0.0927  0.6323 -0.0131
 3966TIP3    H133389   0.343   1.946   2.652 -0.1721  0.3535 -1.2142
 3966TIP3    H233390   0.466   2.010   2.713 -1.8460  1.3653  1.2379
 3967TIP3   OH233391   4.698   4.651   5.105  0.0169 -0.3411 -0.1869
 3967TIP3    H133392   4.613   4.674   5.143 -0.0345 -0.8789  0.0259
 3967TIP3    H233393   4.755   4.635   5.180  0.7990  1.6930 -0.2899
 3968TIP3   OH233394   3.801   3.587  14.334  0.2673 -0.8337 -0.8392
 3968TIP3    H133395   3.872   3.525  14.351 -0.3514 -1.3826 -0.1849
 3968TIP3    H233396   3.722   3.542  14.364 -0.2854 -0.0039 -1.0113
 3969TIP3   OH233397   3.568   2.659   3.818  0.2477  0.1999  0.1490
 3969TIP3    H133398   3.646   2.713   3.802  0.4906 -0.3142 -0.4782
 3969TIP3    H233399   3.543   2.628   3.731  0.0648 -0.6217  0.4794
 3970TIP3   OH233400   6.001   4.857  13.535 -0.1804  0.2002  0.4498
 3970TIP3    H133401   5.998   4.875  13.441  1.9072  0.2424  0.3324
 3970TIP3    H233402   5.982   4.763  13.543  3.6685 -0.8405 -0.5440
 3971TIP3   OH233403   1.386   5.048  13.897 -0.5926  0.0532 -0.4856
 3971TIP3    H133404   1.407   5.139  13.874 -3.8008  1.2806  0.8913
 3971TIP3    H233405   1.373   5.004  13.812 -0.1862  1.2019 -1.1615
 3972TIP3   OH233406   1.630   2.412  11.052  0.4326  0.3389 -0.1324
 3972TIP3    H133407   1.579   2.490  11.029 -1.0413 -0.3067  0.8220
 3972TIP3    H233408   1.710   2.447  11.092  1.4702  1.3975 -2.8840
 3973TIP3   OH233409   5.336   4.735  14.355 -0.3113 -0.0332 -0.1189
 3973TIP3    H133410   5.272   4.792  14.312 -1.2260  0.1544  1.3772
 3973TIP3    H233411   5.283   4.681  14.414  0.6151 -1.9493 -0.9495
 3974TIP3   OH233412   4.214   2.553   2.850 -0.8048 -0.5855 -0.1117
 3974TIP3    H133413   4.280   2.503   2.898  0.5311  1.8238  0.7032
 3974TIP3    H233414   4.138   2.555   2.908 -0.3105 -0.3458  0.5380
 3975TIP3   OH233415   0.606   2.474  12.265  0.2918  0.8621 -0.3601
 3975TIP3    H133416   0.588   2.458  12.173 -0.3459  0.3688 -0.1529
 3975TIP3    H233417   0.674   2.542  12.264  0.8141  0.3525 -1.1970
 3976TIP3   OH233418   4.403   2.061   2.689 -0.1426  0.6458 -0.0748
 3976TIP3    H133419   4.346   2.074   2.613  0.2137 -1.7750 -0.8381
 3976TIP3    H233420   4.344   2.072   2.764 -1.0942  0.4894 -0.7757
 3977TIP3   OH233421   1.439   5.906  11.098 -0.4850 -0.1911  0.6415
 3977TIP3    H133422   1.521   5.869  11.065  0.8467  2.7296  0.3055
 3977TIP3    H233423   1.415   5.851  11.172  0.4132 -2.5612 -0.7177
 3978TIP3   OH233424   2.465   6.412  15.924  0.1220 -0.0975 -0.0960
 3978TIP3    H133425   2.380   6.456  15.917 -0.0972 -0.4686  0.1896
 3978TIP3    H233426   2.444   6.319  15.918  0.6235 -0.1497 -1.0547
 3979TIP3   OH233427   1.685   5.013   5.425  0.2506  0.2427  0.0084
 3979TIP3    H133428   1.594   4.998   5.398  0.8134 -2.7002 -0.6038
 3979TIP3    H233429   1.680   5.025   5.520 -0.6604 -1.9996  0.3075
 3980TIP3   OH233430   3.800   4.233   4.987  0.1929 -0.0809 -0.3963
 3980TIP3    H133431   3.817   4.294   4.915  0.2193 -0.9901 -1.1889
 3980TIP3    H233432   3.887   4.208   5.018  0.1833  1.2163  0.7792
 3981TIP3   OH233433   2.340   3.055  12.746 -0.0471 -0.0673 -0.3078
 3981TIP3    H133434   2.367   3.071  12.837  1.0288 -1.7998 -0.2700
 3981TIP3    H233435   2.356   3.138  12.701 -2.3478  1.4430  1.4027
 3982TIP3   OH233436   0.330   1.843  15.152  0.5351  0.1893 -0.1799
 3982TIP3    H133437   0.313   1.752  15.130  0.5311  0.2728 -0.5358
 3982TIP3    H233438   0.256   1.891  15.115 -1.1953  0.0211  2.7604
 3983TIP3   OH233439   4.104   6.221   2.692  0.6119 -0.2555  0.2778
 3983TIP3    H133440   4.068   6.138   2.662  1.2893 -0.6769  0.5862
 3983TIP3    H233441   4.160   6.197   2.767 -0.1639  0.6188  1.1734
 3984TIP3   OH233442   6.666   2.726  11.861  0.6723 -0.1938  0.3234
 3984TIP3    H133443   6.628   2.684  11.784 -0.6190  1.9907 -0.3109
 3984TIP3    H233444   6.753   2.686  11.869  0.4322 -1.2425 -1.6175
 3985TIP3   OH233445   1.996   1.835   2.533  0.2283 -0.1023 -0.0363
 3985TIP3    H133446   1.954   1.887   2.464 -0.0533  0.9425  0.8971
 3985TIP3    H233447   2.071   1.795   2.490 -0.0844  0.3320 -1.0178
 3986TIP3   OH233448   5.261   1.888  11.524 -0.3927 -1.0155 -0.3430
 3986TIP3    H133449   5.342   1.937  11.541 -0.1566 -0.8664 -1.7167
 3986TIP3    H233450   5.214   1.942  11.460 -1.4011 -1.2973  0.1368
 3987TIP3   OH233451   0.979   0.602  15.964 -0.4258 -0.5025 -0.2704
 3987TIP3    H133452   1.062   0.559  15.945 -0.8590 -1.7487  0.5219
 3987TIP3    H233453   0.947   0.560  16.043 -2.1662 -0.5883 -0.9562
 3988TIP3   OH233454   5.082   5.144   5.833  0.0597 -0.2781  0.4642
 3988TIP3    H133455   5.028   5.180   5.763  1.1896  2.3327  0.7882
 3988TIP3    H233456   5.035   5.067   5.864 -2.1248  0.4138 -0.9433
 3989TIP3   OH233457   2.297   1.837  12.379  0.4535  0.5750  0.6583
 3989TIP3    H133458   2.338   1.753  12.399 -1.4289 -0.9013 -1.3240
 3989TIP3    H233459   2.331   1.860  12.292 -0.8831  0.6144  0.1267
 3990TIP3   OH233460   2.090   0.383  12.268 -0.1163 -0.3138 -0.0366
 3990TIP3    H133461   2.099   0.438  12.190 -2.3036  1.2452  0.7030
 3990TIP3    H233462   2.082   0.294  12.234  2.5345 -0.1583 -1.3367
 3991TIP3   OH233463   2.164   3.710   0.667 -0.8495 -0.5121  0.5914
 3991TIP3    H133464   2.232   3.653   0.704 -0.5685 -0.9262 -0.5270
 3991TIP3    H233465   2.167   3.692   0.573 -1.7692  0.2759  0.4054
 3992TIP3   OH233466   3.069   5.957  13.652 -0.4948  0.3788 -0.1430
 3992TIP3    H133467   3.078   5.920  13.564 -2.1885  1.4029 -0.7861
 3992TIP3    H233468   3.017   6.036  13.640  2.8632  3.0372  1.1942
 3993TIP3   OH233469   3.766   3.328  12.515  0.2598 -0.1676 -0.2206
 3993TIP3    H133470   3.753   3.254  12.575 -0.3393  0.0174 -0.1153
 3993TIP3    H233471   3.820   3.389  12.565  0.0516 -0.1671  0.0071
 3994TIP3   OH233472   2.606   2.873  13.824  0.5019  0.0576  0.4340
 3994TIP3    H133473   2.534   2.935  13.816  0.7828  0.3358  0.0417
 3994TIP3    H233474   2.680   2.925  13.856  0.8640  0.0249 -0.3252
 3995TIP3   OH233475   0.700   6.261   4.361  0.0007 -0.5024  0.3921
 3995TIP3    H133476   0.657   6.245   4.277  0.2373  1.1726 -0.0867
 3995TIP3    H233477   0.631   6.294   4.418  0.4241  1.5650 -0.1850
 3996TIP3   OH233478   3.462   2.978   4.374  0.0375 -0.1304 -0.2976
 3996TIP3    H133479   3.483   2.932   4.293 -1.5824 -1.3129 -0.0975
 3996TIP3    H233480   3.545   3.019   4.400  0.2666  1.5729 -3.2893
 3997TIP3   OH233481   2.884   2.811  12.749 -0.1959 -0.5417 -0.1454
 3997TIP3    H133482   2.837   2.823  12.831 -0.8621  1.3634 -0.7370
 3997TIP3    H233483   2.816   2.798  12.683  0.3282 -2.0156 -0.4402
 3998TIP3   OH233484   3.762   5.351  16.186 -0.2182 -0.0936 -0.8375
 3998TIP3    H133485   3.817   5.278  16.216 -1.1551 -0.9756 -1.2195
 3998TIP3    H233486   3.675   5.313  16.179 -1.1070  1.5230  0.7111
 3999TIP3   OH233487   4.057   6.794  15.770  0.1837  0.4774 -0.1526
 3999TIP3    H133488   4.138   6.816  15.815  0.2166 -0.1503  0.1032
 3999TIP3    H233489   3.990   6.797  15.838 -0.1264  1.6064 -0.4798
 4000TIP3   OH233490   6.074   2.411  16.536  0.0446 -0.2792 -0.4927
 4000TIP3    H133491   6.120   2.435  16.617  0.8040  1.7473 -1.4723
 4000TIP3    H233492   6.054   2.494  16.494 -0.0899 -1.2920 -2.5435
 4001TIP3   OH233493   0.354   4.736  12.071 -0.0022 -0.1793  0.2688
 4001TIP3    H133494   0.371   4.815  12.123  1.5096 -0.9763  1.0650
 4001TIP3    H233495   0.343   4.667  12.137 -0.3088 -0.8122 -0.4404
 4002TIP3   OH233496   2.160   2.443   3.597 -0.3318 -0.3974  0.4881
 4002TIP3    H133497   2.250   2.416   3.614 -0.0871  0.8265  1.3239
 4002TIP3    H233498   2.136   2.495   3.674 -2.1932 -1.7117  0.8443
 4003TIP3   OH233499   3.171   6.207   1.861 -0.2162 -0.0372 -1.0299
 4003TIP3    H133500   3.195   6.150   1.788  0.4394 -0.2434 -0.6658
 4003TIP3    H233501   3.080   6.184   1.881  0.9960 -3.6211  1.4017
 4004TIP3   OH233502   3.487   3.656   5.048  0.1479  0.1830 -0.2286
 4004TIP3    H133503   3.442   3.580   5.085  1.1328  1.0076  3.0548
 4004TIP3    H233504   3.539   3.621   4.976 -0.1305 -2.1072  0.5949
 4005TIP3   OH233505   0.660   5.746   4.996 -0.4897  0.1280  0.4249
 4005TIP3    H133506   0.736   5.740   4.937 -0.3896 -0.7555  0.6319
 4005TIP3    H233507   0.697   5.740   5.084 -0.8083 -0.5675  0.5212
 4006TIP3   OH233508   3.134   4.840  12.779 -0.4577  0.2154 -0.1412
 4006TIP3    H133509   3.180   4.912  12.823 -1.3088  0.0723  1.0512
 4006TIP3    H233510   3.204   4.782  12.747  0.2675 -0.6324  2.6752
 4007TIP3   OH233511   5.556   5.962  16.966  0.2056 -0.5637  0.1851
 4007TIP3    H133512   5.462   5.947  16.964 -0.5453  3.2913 -0.3873
 4007TIP3    H233513   5.585   5.945  16.877 -0.4038  0.3093 -0.1979
 4008TIP3   OH233514   1.372   1.854   2.749  0.1594  0.4873 -0.0956
 4008TIP3    H133515   1.319   1.859   2.670  1.2706  1.3442 -0.8207
 4008TIP3    H233516   1.320   1.801   2.810 -0.8770  0.1275 -1.2587
 4009TIP3   OH233517   0.941   0.659  14.186  0.1361 -0.1767  0.4588
 4009TIP3    H133518   0.849   0.650  14.160 -0.1147  0.3923  1.1196
 4009TIP3    H233519   0.978   0.572  14.171 -0.0823  0.0075 -1.4053
 4010TIP3   OH233520   4.461   6.229   1.460 -0.0976 -0.3883  0.0218
 4010TIP3    H133521   4.392   6.163   1.454 -0.7447  0.3676 -0.9901
 4010TIP3    H233522   4.532   6.195   1.405 -1.0904  0.5176 -1.9079
 4011TIP3   OH233523   2.143   2.830  14.426 -0.0614 -0.2072 -0.6452
 4011TIP3    H133524   2.185   2.849  14.510  1.8145 -0.8912 -1.3710
 4011TIP3    H233525   2.166   2.738  14.408 -0.3966 -0.0584 -1.9150
 4012TIP3   OH233526   4.107   5.591   2.025 -0.2736  0.6343 -0.1095
 4012TIP3    H133527   4.110   5.578   1.930 -0.1353  1.6754 -0.2575
 4012TIP3    H233528   4.061   5.674   2.037  0.7724  1.1247  0.6764
 4013TIP3   OH233529   1.942   4.447   1.695  0.0957  0.5010  0.1619
 4013TIP3    H133530   1.974   4.487   1.614  1.7985  0.3103  0.7094
 4013TIP3    H233531   2.019   4.406   1.734 -1.3405 -2.5053  0.1356
 4014TIP3   OH233532   5.417   1.480   4.357 -0.5907  0.0500  0.5980
 4014TIP3    H133533   5.474   1.461   4.431  1.0296  0.3965 -0.5065
 4014TIP3    H233534   5.416   1.399   4.306  1.9090  1.0520 -1.2504
 4015TIP3   OH233535   2.467   1.372  16.372  0.2676  0.4463  0.7381
 4015TIP3    H133536   2.523   1.414  16.308 -0.0729  0.3848  0.3981
 4015TIP3    H233537   2.378   1.390  16.342  0.1150 -0.2138  0.7798
 4016TIP3   OH233538   0.826   1.788   1.963  0.4446  0.1020 -0.3317
 4016TIP3    H133539   0.900   1.813   1.907  1.1301 -1.6463 -0.2354
 4016TIP3    H233540   0.794   1.872   1.997  1.9028  0.9615 -0.9466
 4017TIP3   OH233541   3.565   6.685   2.175  0.2060  0.5731  0.0876
 4017TIP3    H133542   3.617   6.605   2.183 -1.8067 -0.6505  2.2669
 4017TIP3    H233543   3.624   6.756   2.199  1.0534 -0.7026  1.9808
 4018TIP3   OH233544   2.114   0.981   5.103  0.2976  0.1009  0.6302
 4018TIP3    H133545   2.189   0.933   5.139 -1.6241 -1.5415  2.7305
 4018TIP3    H233546   2.072   0.918   5.045  2.1954  2.0684 -3.2601
 4019TIP3   OH233547   5.469   2.838   4.890 -0.2444  0.1474 -0.1709
 4019TIP3    H133548   5.400   2.817   4.953 -0.0921 -1.5919 -0.5137
 4019TIP3    H233549   5.550   2.833   4.941 -0.2053 -0.1443 -0.2591
 4020TIP3   OH233550   5.964   4.979   2.952 -0.2522  0.3760  0.5860
 4020TIP3    H133551   5.999   4.952   3.036  2.5410 -0.9591 -0.8496
 4020TIP3    H233552   5.985   5.073   2.947  0.8492  0.1643  0.8578
 4021TIP3   OH233553   5.726   1.857  11.973 -0.5711 -0.2201 -0.1966
 4021TIP3    H133554   5.645   1.872  12.023  0.1005 -0.7460  1.0942
 4021TIP3    H233555   5.700   1.868  11.881 -1.6044  1.8874  0.2904
 4022TIP3   OH233556   1.156   4.033   2.796  0.1344 -0.5942  1.0159
 4022TIP3    H133557   1.169   4.120   2.834  3.1839 -0.2287 -0.6087
 4022TIP3    H233558   1.241   3.989   2.806  0.8525 -0.8907 -4.0841
 4023TIP3   OH233559   0.998   0.172  12.308 -0.3674  0.3675 -0.3300
 4023TIP3    H133560   0.932   0.134  12.251 -0.9808 -0.2591  0.7630
 4023TIP3    H233561   0.983   0.266  12.303  0.5903  0.4655 -2.3733
 4024TIP3   OH233562   5.832   4.980  12.130 -0.0356 -0.1496 -0.2514
 4024TIP3    H133563   5.922   4.953  12.146 -0.0997  1.2230  3.3593
 4024TIP3    H233564   5.838   5.040  12.056  1.3403 -2.8694 -2.5451
 4025TIP3   OH233565   4.386   4.160   2.117  0.6859  0.2942  0.4253
 4025TIP3    H133566   4.308   4.174   2.170  0.5826 -1.0714  0.6863
 4025TIP3    H233567   4.366   4.082   2.066  0.3207  2.1924 -2.5472
 4026TIP3   OH233568   4.148   3.527  11.605  0.3732  0.3914  0.1037
 4026TIP3    H133569   4.231   3.484  11.585 -0.1029 -0.3973 -0.2211
 4026TIP3    H233570   4.146   3.603  11.546 -0.2480 -0.9721 -1.7359
 4027TIP3   OH233571   1.387   6.433  14.822 -0.0150  0.2577  0.2126
 4027TIP3    H133572   1.371   6.463  14.911 -0.9268 -1.0546  0.5148
 4027TIP3    H233573   1.386   6.513  14.769 -3.8619  0.7490  0.7605
 4028TIP3   OH233574   0.143   2.100   4.368  0.3537  0.0120 -0.5822
 4028TIP3    H133575   0.147   2.192   4.341  0.7801  0.7024  1.6063
 4028TIP3    H233576   0.062   2.093   4.418 -0.5444 -1.2757 -2.1165
 4029TIP3   OH233577   0.060   5.358  15.205  0.6133  0.5859  0.2652
 4029TIP3    H133578   0.066   5.263  15.212 -1.3554  0.4672  0.9902
 4029TIP3    H233579  -0.030   5.374  15.177  0.7832  2.2569  0.5736
 4030TIP3   OH233580   4.803   6.150   4.847  0.5038  0.4497 -0.3640
 4030TIP3    H133581   4.744   6.107   4.785  0.6078 -0.6613  0.2691
 4030TIP3    H233582   4.820   6.083   4.914  0.8128  1.4357  0.5813
 4031TIP3   OH233583   5.048   6.808  11.753  0.1977  0.3245 -0.0585
 4031TIP3    H133584   4.955   6.784  11.755  0.3286 -0.1645  0.5078
 4031TIP3    H233585   5.057   6.864  11.676 -0.7503  1.1144  0.3853
 4032TIP3   OH233586   4.957   3.602  15.662 -0.7635  0.1778  0.6106
 4032TIP3    H133587   4.931   3.526  15.715 -0.7772  0.6909  1.3531
 4032TIP3    H233588   4.874   3.641  15.634 -0.7562 -0.2232  0.0016
 4033TIP3   OH233589   2.204   4.997  14.832  0.2849 -0.6430  0.0344
 4033TIP3    H133590   2.161   4.916  14.861 -0.4539 -0.1641  0.2986
 4033TIP3    H233591   2.195   4.995  14.737 -0.0815 -0.6860  0.0659
 4034TIP3   OH233592   0.131   4.829  16.823  0.5170  0.1121  0.2426
 4034TIP3    H133593   0.092   4.768  16.761  2.1401  0.3342 -1.0490
 4034TIP3    H233594   0.225   4.825  16.806  0.7932  1.9310  1.0685
 4035TIP3   OH233595   5.454   1.928  13.498  0.1004  0.9352  0.3571
 4035TIP3    H133596   5.368   1.888  13.489  0.3929  0.5323 -0.7242
 4035TIP3    H233597   5.500   1.872  13.561 -0.9788  2.1391  2.3491
 4036TIP3   OH233598   4.998   4.461  14.923  0.4391  0.3163 -0.2285
 4036TIP3    H133599   4.955   4.471  14.838  0.1543 -0.0686 -0.1336
 4036TIP3    H233600   4.995   4.549  14.962  0.0000  0.3537 -0.3455
 4037TIP3   OH233601   0.223   3.687  14.839  0.3154 -0.0917  0.5541
 4037TIP3    H133602   0.223   3.782  14.840  1.4953 -0.0850  1.0547
 4037TIP3    H233603   0.169   3.664  14.763 -0.4348  0.9519  0.7412
 4038TIP3   OH233604   2.533   2.484  13.375  0.5821  0.4897 -0.0432
 4038TIP3    H133605   2.442   2.496  13.345  0.5129  0.0435 -0.0107
 4038TIP3    H233606   2.555   2.568  13.416 -0.9044 -0.3915  2.8434
 4039TIP3   OH233607   3.346   0.271  15.729 -0.1451 -0.0468 -0.0542
 4039TIP3    H133608   3.440   0.257  15.715  0.2862  0.8565  1.6706
 4039TIP3    H233609   3.331   0.361  15.700 -0.1056  0.3758  1.1656
 4040TIP3   OH233610   5.886   1.475  16.638 -0.0791 -0.0275  0.1525
 4040TIP3    H133611   5.888   1.411  16.568  0.4900 -0.8083  0.8600
 4040TIP3    H233612   5.921   1.428  16.714  0.9407  1.3069  0.5412
 4041TIP3   OH233613   5.222   0.537  13.069 -0.1754 -0.0830 -0.4848
 4041TIP3    H133614   5.177   0.535  13.154 -0.7279 -0.2800 -0.7725
 4041TIP3    H233615   5.151   0.537  13.005  0.1152 -3.6429 -1.0583
 4042TIP3   OH233616   0.211   4.308   3.978  0.3696 -1.1358  0.6956
 4042TIP3    H133617   0.136   4.251   3.961  0.2701 -0.8639  0.2220
 4042TIP3    H233618   0.191   4.351   4.061 -0.8028  0.2382 -0.2619
 4043TIP3   OH233619   2.871   6.760  11.303  0.4572  0.3485  0.1885
 4043TIP3    H133620   2.865   6.664  11.300 -0.9199  0.3660  1.2350
 4043TIP3    H233621   2.850   6.788  11.214  0.6348 -0.3122 -0.0713
 4044TIP3   OH233622   3.173   3.605   0.177 -0.7410 -0.1316  0.4389
 4044TIP3    H133623   3.127   3.688   0.190  0.1474  0.8485 -2.1271
 4044TIP3    H233624   3.155   3.555   0.257 -1.2113  2.5547  2.1484
 4045TIP3   OH233625   1.749   1.927  15.558  0.5827  0.2674 -0.4637
 4045TIP3    H133626   1.819   1.945  15.496 -1.0433  0.7730 -2.2489
 4045TIP3    H233627   1.677   1.895  15.504 -0.8113  0.4773  1.2005
 4046TIP3   OH233628   5.912   1.804  13.507 -0.5217  0.8114  0.1531
 4046TIP3    H133629   5.847   1.787  13.439  0.3938 -0.4506 -0.4539
 4046TIP3    H233630   5.917   1.722  13.557  0.0050  1.1672  0.7026
 4047TIP3   OH233631   5.830   0.639  17.033 -0.0092 -0.1351  0.5597
 4047TIP3    H133632   5.905   0.687  16.998 -1.9537  1.0449 -2.3884
 4047TIP3    H233633   5.790   0.699  17.096  1.2462 -0.6386  1.8925
 4048TIP3   OH233634   5.685   3.973   1.527 -0.3516 -0.7464 -0.3577
 4048TIP3    H133635   5.780   3.982   1.527 -0.0469 -3.3110  0.2041
 4048TIP3    H233636   5.655   4.034   1.460  1.8241 -1.0954 -1.7412
 4049TIP3   OH233637   1.679   3.594  17.124 -0.6051  0.3567  0.3490
 4049TIP3    H133638   1.594   3.574  17.084  0.1179 -0.3198 -0.8960
 4049TIP3    H233639   1.703   3.679  17.089  0.2617 -0.4552 -1.1362
 4050TIP3   OH233640   1.740   6.252  13.025 -0.1858 -0.0470 -0.2760
 4050TIP3    H133641   1.688   6.301  12.962  0.2684  0.1848 -0.4745
 4050TIP3    H233642   1.702   6.164  13.025 -2.2514  0.7383  1.4675
 4051TIP3   OH233643   5.888   0.017   1.624 -0.2081  0.1332 -0.0965
 4051TIP3    H133644   5.814  -0.025   1.579 -0.1929  0.7740 -0.7434
 4051TIP3    H233645   5.850   0.053   1.704 -1.1104  2.2668 -1.3819
 4052TIP3   OH233646   2.629   3.418  13.509 -0.5829 -0.2097  0.2000
 4052TIP3    H133647   2.721   3.397  13.498 -0.8229 -0.7365 -1.0084
 4052TIP3    H233648   2.601   3.450  13.423 -1.5120  0.0013  0.5641
 4053TIP3   OH233649   5.765   3.776   4.291  0.0097 -0.1716  0.0334
 4053TIP3    H133650   5.804   3.813   4.212  1.0198 -0.7517  0.2414
 4053TIP3    H233651   5.684   3.825   4.303 -0.5628 -0.6009 -1.7880
 4054TIP3   OH233652   4.751   3.380  11.230 -0.1037  0.3862 -0.5246
 4054TIP3    H133653   4.683   3.444  11.252 -0.0892  0.3044 -0.2329
 4054TIP3    H233654   4.755   3.322  11.306  0.4480  0.5227 -0.4458
 4055TIP3   OH233655   2.242   0.880  10.894  0.2235  0.1482  0.6294
 4055TIP3    H133656   2.198   0.951  10.942  0.1314 -0.6033  1.6751
 4055TIP3    H233657   2.194   0.801  10.918  3.1232 -0.9826  3.1990
 4056TIP3   OH233658   1.461   5.371   1.893  0.1896  0.0039 -0.2590
 4056TIP3    H133659   1.417   5.354   1.976 -0.1263 -1.3341 -0.6824
 4056TIP3    H233660   1.441   5.463   1.873 -1.0625 -0.1185  0.3520
 4057TIP3   OH233661   5.436   4.881   5.432  0.5073  0.3479 -0.0290
 4057TIP3    H133662   5.404   4.956   5.481  0.0109  2.6725 -3.5534
 4057TIP3    H233663   5.529   4.875   5.454  0.1169  0.6696  1.8130
 4058TIP3   OH233664   4.870   2.860  12.249  0.0421  0.4844  0.1398
 4058TIP3    H133665   4.804   2.905  12.302  0.7726  1.8902 -0.0975
 4058TIP3    H233666   4.836   2.866  12.159 -0.8708 -1.3110  0.3302
 4059TIP3   OH233667   6.694   3.014   3.420 -0.1022 -0.1654 -0.2132
 4059TIP3    H133668   6.714   3.108   3.413  0.4530 -0.2291  0.4552
 4059TIP3    H233669   6.689   2.984   3.329  0.1920  0.4123 -0.4268
 4060TIP3   OH233670   5.538   6.185  12.681  0.0943  0.5172 -0.4828
 4060TIP3    H133671   5.460   6.175  12.735 -0.6253 -1.0155 -1.7642
 4060TIP3    H233672   5.517   6.257  12.621  0.2952  1.1467  0.1742
 4061TIP3   OH233673   6.114   2.750   0.116 -0.0544 -0.4758  0.7682
 4061TIP3    H133674   6.157   2.799   0.186  2.6326 -3.0563  1.1295
 4061TIP3    H233675   6.168   2.767   0.039  0.2688 -1.9257  0.6538
 4062TIP3   OH233676   3.035   0.916  14.866 -0.4482  0.2964 -0.6928
 4062TIP3    H133677   3.003   0.990  14.918 -1.4788 -0.1164 -0.7263
 4062TIP3    H233678   3.121   0.945  14.835  1.0575 -0.1170  2.6911
 4063TIP3   OH233679   0.142   2.756  13.392 -0.4866  0.4786 -0.1925
 4063TIP3    H133680   0.189   2.785  13.314  0.7860  2.4790  1.2123
 4063TIP3    H233681   0.059   2.722  13.359  0.1113  1.0049 -2.4103
 4064TIP3   OH233682   6.122   4.721  16.650 -0.1874 -0.1561  0.3106
 4064TIP3    H133683   6.206   4.744  16.611 -0.7010  0.8052 -0.2672
 4064TIP3    H233684   6.078   4.805  16.664 -1.1998 -0.6605  0.2752
 4065TIP3   OH233685   6.210   0.796   0.764  0.4469  0.1152  0.5374
 4065TIP3    H133686   6.266   0.720   0.746  0.0791 -0.6499  2.3864
 4065TIP3    H233687   6.184   0.827   0.678 -0.1812 -2.4762 -0.3140
 4066TIP3   OH233688   1.314   6.317   6.507  0.1856 -0.0373  0.2508
 4066TIP3    H133689   1.269   6.251   6.453 -1.2918 -0.0905  1.4979
 4066TIP3    H233690   1.387   6.269   6.547  0.7408 -0.2235 -0.9321
 4067TIP3   OH233691   5.300   3.637  12.634 -0.0434  0.2390  0.6208
 4067TIP3    H133692   5.285   3.561  12.691 -1.4363 -0.5559 -0.7383
 4067TIP3    H233693   5.395   3.637  12.620  0.0532 -0.8897  1.1476
 4068TIP3   OH233694   6.602   3.315   3.284  0.0976 -0.1662  0.0763
 4068TIP3    H133695   6.521   3.265   3.291  0.0193  0.0009  0.3753
 4068TIP3    H233696   6.619   3.320   3.190 -0.0493 -0.5044  0.0315
 4069TIP3   OH233697   3.876   6.815  14.092 -0.2962 -0.0242 -0.3351
 4069TIP3    H133698   3.853   6.794  14.001  0.3213  0.5420 -0.6369
 4069TIP3    H233699   3.794   6.812  14.139 -1.0494  2.1296 -1.3985
 4070TIP3   OH233700   6.009   6.000  11.020  0.4149  0.5928 -0.1091
 4070TIP3    H133701   6.047   5.957  10.943 -1.2370 -0.1912 -0.5141
 4070TIP3    H233702   5.966   6.078  10.985 -0.1042  0.3819  0.0573
 4071TIP3   OH233703   4.109   4.868  11.621 -0.5395 -0.4790 -0.3314
 4071TIP3    H133704   4.134   4.782  11.586 -0.5997 -0.1502 -1.2088
 4071TIP3    H233705   4.014   4.870  11.615 -0.4734  0.1498 -1.5803
 4072TIP3   OH233706   6.341   1.624  13.206  0.1894 -0.0561 -0.9658
 4072TIP3    H133707   6.377   1.564  13.140  1.4950  1.5802 -1.8321
 4072TIP3    H233708   6.387   1.706  13.191  0.6438  0.3785  2.1134
 4073TIP3   OH233709   2.534   6.431   5.149  0.1549 -0.2475 -0.6656
 4073TIP3    H133710   2.554   6.341   5.172  0.2060  0.2075  1.2338
 4073TIP3    H233711   2.457   6.425   5.092 -0.7787 -1.4158  0.6688
 4074TIP3   OH233712   0.183   2.323  13.315 -0.0565 -0.4423  0.1583
 4074TIP3    H133713   0.117   2.309  13.383  1.0785 -1.9228  1.0195
 4074TIP3    H233714   0.156   2.267  13.243 -0.0086 -0.6895  0.3294
 4075TIP3   OH233715   6.276   2.606  16.036  0.5148  0.2033  0.0873
 4075TIP3    H133716   6.356   2.580  15.989  1.0927  0.1113  1.0938
 4075TIP3    H233717   6.235   2.523  16.060  1.3277  0.1942  1.5656
 4076TIP3   OH233718   4.506   1.323   0.598 -0.4326 -0.5625 -0.0287
 4076TIP3    H133719   4.592   1.365   0.599 -0.1234 -0.8854 -3.1169
 4076TIP3    H233720   4.525   1.232   0.575 -1.6064 -0.3823 -1.9054
 4077TIP3   OH233721   3.628   3.132  16.095  0.3765 -0.4205  0.5877
 4077TIP3    H133722   3.723   3.126  16.087  0.5637  0.8924  1.4685
 4077TIP3    H233723   3.594   3.061  16.041  1.8737 -1.2573  0.7054
 4078TIP3   OH233724   0.460   2.275  12.581  0.1428  0.0078  0.2969
 4078TIP3    H133725   0.504   2.267  12.665  0.2714 -1.1917  0.1436
 4078TIP3    H233726   0.435   2.185  12.559 -2.5508  0.6355  0.4636
 4079TIP3   OH233727   2.936   4.370  15.765  0.0909 -0.2000 -0.3851
 4079TIP3    H133728   2.948   4.296  15.824 -0.7700 -0.2330 -0.2485
 4079TIP3    H233729   2.851   4.406  15.789  1.0002  1.5729  0.3777
 4080TIP3   OH233730   2.228   0.926   1.555 -0.0623 -0.2299  0.2868
 4080TIP3    H133731   2.176   0.977   1.618 -1.5332 -2.9242  1.4535
 4080TIP3    H233732   2.163   0.886   1.498  1.0972 -0.0912 -1.1798
 4081TIP3   OH233733   1.843   2.356   2.100 -0.4799  0.4549 -0.4423
 4081TIP3    H133734   1.937   2.347   2.087 -0.5223  0.4867 -0.8056
 4081TIP3    H233735   1.810   2.381   2.014 -0.7496  1.0214 -0.1745
 4082TIP3   OH233736   1.439   6.842  12.929 -0.3890 -0.0628 -0.1268
 4082TIP3    H133737   1.522   6.799  12.953 -0.2990  0.1993  0.0377
 4082TIP3    H233738   1.395   6.778  12.873 -0.4013 -0.5065  0.3753
 4083TIP3   OH233739   4.905   1.917  13.748  0.3136  0.0821  0.3484
 4083TIP3    H133740   4.984   1.945  13.795 -0.1099  1.6878  0.1856
 4083TIP3    H233741   4.833   1.936  13.808 -0.1056  0.7253 -0.3303
 4084TIP3   OH233742   5.479   6.696  13.346  0.2925  0.5084  0.2584
 4084TIP3    H133743   5.423   6.742  13.409 -0.4083  1.3547 -0.9409
 4084TIP3    H233744   5.532   6.765  13.306 -0.1808  0.1833 -0.9772
 4085TIP3   OH233745   6.557   2.274   1.053 -0.0844  0.2349  0.1510
 4085TIP3    H133746   6.644   2.311   1.040 -0.5548  1.6295  0.8300
 4085TIP3    H233747   6.528   2.250   0.965  1.3911 -1.2677  0.0136
 4086TIP3   OH233748   2.226   6.679   4.671 -0.1845 -0.3004 -0.3667
 4086TIP3    H133749   2.251   6.717   4.756  1.7103 -1.6069 -0.2904
 4086TIP3    H233750   2.273   6.732   4.607  0.8317 -1.1915 -0.3824
 4087TIP3   OH233751   3.591   3.951   0.338 -0.5501  0.3580  0.1057
 4087TIP3    H133752   3.504   3.941   0.377  0.4368 -0.3517  2.3506
 4087TIP3    H233753   3.627   3.862   0.335  0.6448  0.7890  0.6791
 4088TIP3   OH233754   2.153   6.242  13.543 -0.3145  0.3609  0.0943
 4088TIP3    H133755   2.115   6.323  13.511 -1.1110  0.4479  1.2120
 4088TIP3    H233756   2.153   6.184  13.466  0.4004  1.4410 -0.7482
 4089TIP3   OH233757   6.068   4.932  12.700  0.1081 -0.4232  0.0296
 4089TIP3    H133758   5.992   4.876  12.713  1.0635 -1.3955  1.7213
 4089TIP3    H233759   6.104   4.904  12.616 -1.5871  0.3497 -1.0176
 4090TIP3   OH233760   2.480   2.334  12.364 -0.5330  0.1886  0.1450
 4090TIP3    H133761   2.439   2.307  12.446 -1.4328  0.4812 -0.2007
 4090TIP3    H233762   2.553   2.273  12.353 -1.4942 -1.0140  0.2417
 4091TIP3   OH233763   6.680   6.481  12.792 -0.1575 -0.9119 -0.5425
 4091TIP3    H133764   6.635   6.545  12.736  0.2394 -0.6888 -0.6131
 4091TIP3    H233765   6.631   6.400  12.779 -0.4819 -0.6990 -0.6912
 4092TIP3   OH233766   5.999   5.179   3.987  0.0082 -0.1404 -0.6899
 4092TIP3    H133767   6.071   5.242   3.991  0.6974 -0.8967 -0.7608
 4092TIP3    H233768   5.920   5.231   3.995  0.5098  0.8628 -1.9326
 4093TIP3   OH233769   2.928   1.545   2.379 -0.5702 -0.1337  0.5144
 4093TIP3    H133770   2.980   1.609   2.428 -1.2873  1.2008 -0.4034
 4093TIP3    H233771   2.844   1.541   2.426 -0.3066 -0.9113  0.9396
 4094TIP3   OH233772   4.663   3.943   2.892  0.0357  0.7630  0.1948
 4094TIP3    H133773   4.603   4.008   2.929  0.2680  1.3376 -0.4434
 4094TIP3    H233774   4.641   3.862   2.939  0.2968  1.4597  1.5762
 4095TIP3   OH233775   2.534   5.363  11.574  0.0684  0.4630 -0.2944
 4095TIP3    H133776   2.525   5.285  11.519 -1.8511  0.3224  0.1656
 4095TIP3    H233777   2.621   5.397  11.553  0.6332 -1.3504 -1.0901
 4096TIP3   OH233778   1.708   2.637  14.327  0.0453  0.0275  0.2353
 4096TIP3    H133779   1.734   2.728  14.313 -0.4287 -0.1372 -2.2052
 4096TIP3    H233780   1.778   2.585  14.288 -0.1784 -0.6343  0.6951
 4097TIP3   OH233781   2.116   3.443  12.882  0.3504 -0.0207  0.5461
 4097TIP3    H133782   2.196   3.404  12.847  0.8686 -0.3480  2.0146
 4097TIP3    H233783   2.099   3.519  12.826  0.0202 -1.5913 -1.6077
 4098TIP3   OH233784   5.356   4.614  13.408  0.2655  0.1140 -0.2773
 4098TIP3    H133785   5.278   4.577  13.366  1.4294 -1.9911 -0.7296
 4098TIP3    H233786   5.391   4.542  13.460  2.2080  0.8352 -0.5254
 4099TIP3   OH233787   3.743   0.803  12.136  0.0439  0.2483  0.0856
 4099TIP3    H133788   3.799   0.729  12.159 -1.3829 -0.7187  0.6218
 4099TIP3    H233789   3.678   0.766  12.077 -0.7699  1.0414  0.4589
 4100TIP3   OH233790   1.006   3.551   3.105  0.2171  0.2903 -0.0080
 4100TIP3    H133791   0.962   3.484   3.158  0.4362  0.0410 -0.1409
 4100TIP3    H233792   1.025   3.508   3.022  1.6504  0.0467  0.4078
 4101TIP3   OH233793   5.875   6.711  15.417  0.0495  0.0505 -0.5757
 4101TIP3    H133794   5.874   6.773  15.490 -1.1200 -0.0284 -0.5176
 4101TIP3    H233795   5.968   6.704  15.394  0.2499  1.5490 -0.3414
 4102TIP3   OH233796   6.037   5.022  11.919 -0.1186 -0.0231  0.3453
 4102TIP3    H133797   6.076   5.082  11.856  0.9913 -1.3050 -0.2374
 4102TIP3    H233798   5.961   4.986  11.873  0.5347 -0.7541 -0.1941
 4103TIP3   OH233799   5.788   4.303   5.136 -0.0926  0.0084  0.0996
 4103TIP3    H133800   5.860   4.276   5.079  1.4764  0.7397  1.6536
 4103TIP3    H233801   5.755   4.384   5.096  0.6313  0.2190 -0.0812
 4104TIP3   OH233802   0.827   4.092  15.460 -0.1110  0.1532 -0.1441
 4104TIP3    H133803   0.761   4.029  15.433 -1.4974  1.0702  0.9492
 4104TIP3    H233804   0.854   4.063  15.547  1.9480 -0.9599 -1.0882
 4105TIP3   OH233805   1.884   2.436  12.366  0.4764  0.0395  0.1542
 4105TIP3    H133806   1.851   2.446  12.455 -1.0698  1.9368 -0.5712
 4105TIP3    H233807   1.979   2.449  12.374  0.5175 -0.8918  1.6272
 4106TIP3   OH233808   4.145   6.758  13.317 -0.2907 -0.5387 -0.4688
 4106TIP3    H133809   4.122   6.724  13.404  0.7732  1.9022  0.8687
 4106TIP3    H233810   4.106   6.846  13.315  2.5177  0.7994 -1.0227
 4107TIP3   OH233811   5.149   0.401  14.875  0.0541  0.3330 -0.3783
 4107TIP3    H133812   5.221   0.450  14.914  0.1882 -0.0450 -0.1365
 4107TIP3    H233813   5.168   0.310  14.898 -0.2803  0.1885 -0.6687
 4108TIP3   OH233814   4.697   4.182   5.118 -0.5785 -0.3268  0.1597
 4108TIP3    H133815   4.640   4.238   5.066 -0.6778 -0.9348 -0.4056
 4108TIP3    H233816   4.786   4.206   5.090 -0.6221 -0.4689 -0.1112
 4109TIP3   OH233817   5.551   0.193  16.417 -0.0328 -0.1558 -0.7010
 4109TIP3    H133818   5.553   0.251  16.492 -0.1165 -1.5641  0.4454
 4109TIP3    H233819   5.592   0.243  16.346 -1.4706  1.8232 -0.2149
 4110TIP3   OH233820   0.781   2.654  12.945  0.5089 -0.3638  0.0316
 4110TIP3    H133821   0.849   2.623  13.005 -0.0474  0.3413  1.0520
 4110TIP3    H233822   0.769   2.581  12.883  1.0127 -1.1577  0.8355
 4111TIP3   OH233823   0.891   1.661  11.074  0.2490 -0.4639 -0.4050
 4111TIP3    H133824   0.805   1.627  11.052 -0.9170  3.2462 -2.4786
 4111TIP3    H233825   0.923   1.701  10.993  2.8063  0.4722  0.9337
 4112TIP3   OH233826   4.081   1.891  10.989  0.4419 -0.4584 -0.4688
 4112TIP3    H133827   4.102   1.953  11.060  1.4948  0.0047 -1.1572
 4112TIP3    H233828   4.115   1.807  11.020 -2.0185 -1.0454  0.9928
 4113TIP3   OH233829   0.304   5.035   0.351  0.7826  0.5789 -0.1880
 4113TIP3    H133830   0.383   5.022   0.300  0.0595 -2.3289 -0.7345
 4113TIP3    H233831   0.307   4.967   0.419 -0.1672  1.8671  1.2311
 4114TIP3   OH233832   5.935   2.338   0.917 -0.4180  0.1824 -0.7455
 4114TIP3    H133833   5.925   2.390   0.837 -0.3000  1.3411 -0.0345
 4114TIP3    H233834   5.878   2.381   0.981  1.7016  1.1567  0.6546
 4115TIP3   OH233835   5.558   4.267   5.671 -0.3989  0.0127 -0.1837
 4115TIP3    H133836   5.486   4.217   5.633  1.6792 -1.5355 -2.3648
 4115TIP3    H233837   5.586   4.326   5.601 -0.3889  1.6230  1.1074
 4116TIP3   OH233838   4.323   0.064  14.638 -0.1029 -0.0233  0.0535
 4116TIP3    H133839   4.403   0.012  14.635  0.3242  0.4778  1.8272
 4116TIP3    H233840   4.317   0.094  14.729 -0.7926  2.3086 -0.6937
 4117TIP3   OH233841   4.223   0.361   5.996  0.3796  0.1280 -0.0343
 4117TIP3    H133842   4.213   0.436   6.055 -0.9814 -0.4718  0.5516
 4117TIP3    H233843   4.317   0.353   5.984  0.7045  0.3764  1.9343
 4118TIP3   OH233844   3.636   2.210   0.528 -0.7907  0.3963  0.4415
 4118TIP3    H133845   3.614   2.266   0.454 -1.7836  0.3583  0.6954
 4118TIP3    H233846   3.666   2.270   0.596 -1.9971  0.6447  0.7675
 4119TIP3   OH233847   1.063   1.928  16.952  0.2598  0.1693 -0.4527
 4119TIP3    H133848   1.065   1.920  17.047 -0.2853 -0.6669 -0.5024
 4119TIP3    H233849   1.154   1.921  16.925  0.5489  1.5277  0.0772
 4120TIP3   OH233850   1.155   1.171  16.312  0.2428 -0.3044 -0.0694
 4120TIP3    H133851   1.212   1.158  16.388  0.0995 -0.0988  0.0746
 4120TIP3    H233852   1.167   1.093  16.259  2.0563  0.5054 -0.9412
 4121TIP3   OH233853   3.607   4.131   0.665 -0.1615  0.0364  0.5897
 4121TIP3    H133854   3.525   4.104   0.706 -1.0167  1.8146  0.1377
 4121TIP3    H233855   3.674   4.080   0.710 -1.5094 -1.6258  0.8284
 4122TIP3   OH233856   3.493   3.947  12.778 -0.2613 -0.0427 -0.3192
 4122TIP3    H133857   3.456   3.947  12.690 -0.6432  0.7473 -0.1707
 4122TIP3    H233858   3.516   3.856  12.795  0.6600 -0.0726 -1.5787
 4123TIP3   OH233859   5.570   3.108   5.283 -0.5489  0.3770  0.4804
 4123TIP3    H133860   5.506   3.040   5.263 -0.8702  0.3400  1.5567
 4123TIP3    H233861   5.637   3.099   5.215 -1.7434  0.5138 -0.7472
 4124TIP3   OH233862   5.551   2.575   3.445  0.0521  0.0376 -0.1357
 4124TIP3    H133863   5.522   2.566   3.536  1.8804  0.0518  0.5103
 4124TIP3    H233864   5.507   2.505   3.398  0.3377 -1.0193  1.1144
 4125TIP3   OH233865   1.725   6.782  14.399  0.5605  0.2767  0.2834
 4125TIP3    H133866   1.812   6.745  14.417  1.5251  1.8940 -0.7549
 4125TIP3    H233867   1.686   6.723  14.335  1.3877  0.1413 -0.1128
 4126TIP3   OH233868   4.173   3.988  14.530 -0.8080 -0.1059  0.1222
 4126TIP3    H133869   4.123   4.003  14.610 -0.2855  0.4602  0.3503
 4126TIP3    H233870   4.138   4.052  14.468 -1.1481 -0.4805 -0.0764
 4127TIP3   OH233871   3.103   2.289  15.577  0.0488 -0.1774  0.1119
 4127TIP3    H133872   3.090   2.312  15.669 -0.3419  3.0841 -0.6455
 4127TIP3    H233873   3.018   2.306  15.536  1.0973  1.7454 -1.3948
 4128TIP3   OH233874   6.455   6.657  12.180  0.1767  0.0089 -0.4976
 4128TIP3    H133875   6.431   6.639  12.271 -1.2202  0.8177 -0.6830
 4128TIP3    H233876   6.459   6.570  12.139  0.4123 -0.3347  0.2283
 4129TIP3   OH233877   0.048   0.847  12.680  0.3736 -0.4469  0.4026
 4129TIP3    H133878   0.125   0.798  12.655  0.4633 -0.5534  0.8720
 4129TIP3    H233879   0.075   0.939  12.677 -0.0159 -0.3602 -1.2316
 4130TIP3   OH233880   2.201   4.329  11.204 -0.0618 -0.2893 -0.3100
 4130TIP3    H133881   2.160   4.321  11.118 -0.0881  0.0071 -0.3269
 4130TIP3    H233882   2.128   4.321  11.266  0.1718 -2.2517 -0.2363
 4131TIP3   OH233883   2.650   2.549   5.704 -0.1838 -1.1047 -0.0898
 4131TIP3    H133884   2.725   2.601   5.736  0.0245 -1.2259 -0.3778
 4131TIP3    H233885   2.578   2.612   5.700  0.3842 -0.4951 -1.7034
 4132TIP3   OH233886   6.745   0.070   1.020 -0.3475  0.3102  0.5346
 4132TIP3    H133887   6.811   0.137   1.002  0.4406 -0.7490 -0.6442
 4132TIP3    H233888   6.793   0.002   1.068 -0.1768 -1.0838 -1.4728
 4133TIP3   OH233889   1.741   3.318   3.877  0.4398 -0.1650  0.1106
 4133TIP3    H133890   1.827   3.285   3.903  0.5586 -1.5383 -1.7817
 4133TIP3    H233891   1.752   3.342   3.785 -1.0512  0.2699  0.0267
 4134TIP3   OH233892   2.884   1.823   4.582 -0.1058  0.0648  0.3263
 4134TIP3    H133893   2.846   1.776   4.656 -0.1619 -0.2923  0.0712
 4134TIP3    H233894   2.813   1.876   4.548 -0.6210 -1.2052 -0.6508
 4135TIP3   OH233895   2.619   5.382   2.128  0.1534 -0.0836 -0.0815
 4135TIP3    H133896   2.636   5.315   2.194 -1.8478 -0.0053  0.5913
 4135TIP3    H233897   2.556   5.441   2.170 -0.6895  0.3246 -1.8265
 4136TIP3   OH233898   2.589   4.854   0.874 -0.5805  0.5824  0.2173
 4136TIP3    H133899   2.514   4.796   0.866  0.1349 -0.5600  1.3629
 4136TIP3    H233900   2.562   4.922   0.935 -0.7557  0.2897  0.4646
 4137TIP3   OH233901   4.476   0.685   5.939  0.2228  0.2838  0.4504
 4137TIP3    H133902   4.454   0.737   6.017 -0.8329 -0.2696  0.5351
 4137TIP3    H233903   4.553   0.634   5.965 -0.0023  0.2539  1.0711
 4138TIP3   OH233904   5.747   2.020   0.960 -0.1054 -0.5881 -0.3020
 4138TIP3    H133905   5.661   2.013   0.919  0.0957 -2.0795 -0.5194
 4138TIP3    H233906   5.762   1.934   0.999  0.0103  0.5419  2.3357
 4139TIP3   OH233907   5.015   4.982  13.803  0.4798 -0.1627  0.5584
 4139TIP3    H133908   5.069   4.935  13.866  2.3979  1.5467  0.2986
 4139TIP3    H233909   5.075   5.004  13.732 -0.8303  0.8912 -0.2642
 4140TIP3   OH233910   6.791   0.775  16.775  0.0226  0.3061  0.5531
 4140TIP3    H133911   6.786   0.681  16.757  1.4932  0.0055  1.5359
 4140TIP3    H233912   6.738   0.787  16.854 -1.9003  0.7011 -0.7266
 4141TIP3   OH233913   3.169   2.236   4.634  0.2687 -0.7140  0.4361
 4141TIP3    H133914   3.160   2.141   4.626  1.7221 -1.2777  3.7167
 4141TIP3    H233915   3.201   2.265   4.549 -0.7360 -3.0603 -0.8180
 4142TIP3   OH233916   5.980   3.480  11.401  0.0832  0.0645 -0.3314
 4142TIP3    H133917   5.937   3.403  11.363 -0.6064  0.3321 -0.0994
 4142TIP3    H233918   6.072   3.472  11.373 -0.6311  0.9678 -3.2346
 4143TIP3   OH233919   0.179   0.492   2.403  0.2137  0.6573  0.2690
 4143TIP3    H133920   0.177   0.415   2.459  0.0328  1.0060  0.7461
 4143TIP3    H233921   0.094   0.490   2.357  0.6421 -0.0050 -0.5181
 4144TIP3   OH233922   0.473   4.724  12.759 -0.5613 -0.7084  0.2098
 4144TIP3    H133923   0.492   4.666  12.833  1.6623  0.3850  0.5863
 4144TIP3    H233924   0.555   4.725  12.709 -1.2946  0.3703 -1.0074
 4145TIP3   OH233925   3.747   4.272  16.326 -0.0222  0.3976 -0.0253
 4145TIP3    H133926   3.831   4.303  16.361  1.1772 -1.8397 -0.7612
 4145TIP3    H233927   3.731   4.327  16.250  1.3215  0.2111 -0.4748
 4146TIP3   OH233928   6.497   4.630  15.751 -0.2751  0.0371  0.2896
 4146TIP3    H133929   6.502   4.724  15.765 -1.9287  0.5123 -1.6797
 4146TIP3    H233930   6.407   4.615  15.720  0.0930 -2.1091  0.0641
 4147TIP3   OH233931   4.866   5.995   2.999 -0.5103  0.1772  0.3703
 4147TIP3    H133932   4.774   5.992   2.972 -0.1310 -0.0002 -0.9540
 4147TIP3    H233933   4.882   6.088   3.015 -0.8135  0.2556  0.2354
 4148TIP3   OH233934   0.548   5.441  10.457  0.0026  0.3301 -0.9104
 4148TIP3    H133935   0.576   5.506  10.521 -1.5118  0.3874 -0.2580
 4148TIP3    H233936   0.626   5.423  10.404  0.8484  1.4923 -0.0926
 4149TIP3   OH233937   3.947   1.964   4.383 -0.1285 -0.2257  0.2033
 4149TIP3    H133938   3.971   1.991   4.295  1.1839 -2.0472 -0.0616
 4149TIP3    H233939   4.020   1.992   4.438  0.6285 -1.9183  0.1283
 4150TIP3   OH233940   0.068   1.808  12.086  0.3860  0.0093 -0.8189
 4150TIP3    H133941   0.096   1.802  12.177  1.8851  0.6043 -1.2256
 4150TIP3    H233942  -0.024   1.837  12.092  0.0117 -1.2995  0.5108
 4151TIP3   OH233943   0.951   4.996  13.470 -0.0653  0.7297 -0.1796
 4151TIP3    H133944   0.896   5.066  13.435 -1.9234 -0.5980 -0.0828
 4151TIP3    H233945   0.997   5.037  13.543  1.8671  2.8297 -2.3859
 4152TIP3   OH233946   5.674   5.864  14.248 -0.8573 -0.1532 -0.2055
 4152TIP3    H133947   5.597   5.810  14.235 -1.3551  0.5841 -0.3387
 4152TIP3    H233948   5.646   5.953  14.225  0.5348 -0.1427 -2.1746
 4153TIP3   OH233949   2.037   5.564   1.040 -0.0278 -0.1654  0.2658
 4153TIP3    H133950   2.026   5.530   1.129  0.7367  0.5468  0.6511
 4153TIP3    H233951   2.054   5.657   1.052  2.8879 -0.4920 -0.3806
 4154TIP3   OH233952   3.653   2.170   1.593 -0.4753  0.2286  1.0439
 4154TIP3    H133953   3.581   2.234   1.592  0.0199  0.8097 -0.5035
 4154TIP3    H233954   3.612   2.089   1.625 -1.7947  0.5843  0.3445
 4155TIP3   OH233955   6.051   6.649   1.593 -0.7466  0.3479  0.0162
 4155TIP3    H133956   5.984   6.713   1.618 -2.0693 -0.7562 -0.5880
 4155TIP3    H233957   6.017   6.565   1.625  0.0570 -0.3157 -0.8396
 4156TIP3   OH233958   5.108   3.082  12.186  0.4144 -0.1932  0.2229
 4156TIP3    H133959   5.048   3.007  12.183  0.0867  0.0649  0.2727
 4156TIP3    H233960   5.070   3.145  12.125  0.8245 -0.1637 -0.0032
 4157TIP3   OH233961   1.748   1.032  13.533 -0.3274 -0.0672  0.5968
 4157TIP3    H133962   1.726   1.071  13.448 -1.0508  0.2516  0.9176
 4157TIP3    H233963   1.737   0.938  13.520  1.3781 -0.2001 -0.1714
 4158TIP3   OH233964   2.635   4.897  15.752 -0.2579  0.2540 -0.3870
 4158TIP3    H133965   2.616   4.861  15.838  2.1132  1.9447  0.9264
 4158TIP3    H233966   2.602   4.987  15.755  1.1035  0.7875 -0.7006
 4159TIP3   OH233967   4.892   6.752  12.722 -0.3176  0.1523 -0.0975
 4159TIP3    H133968   4.827   6.821  12.740  0.1894  0.9877 -1.3407
 4159TIP3    H233969   4.974   6.788  12.754 -0.4098 -0.8723  1.3915
 4160TIP3   OH233970   0.624   6.126   5.174  0.2650  0.5516 -0.2537
 4160TIP3    H133971   0.553   6.181   5.206  0.2775  0.1132  0.5600
 4160TIP3    H233972   0.593   6.036   5.188  0.6180  0.3576 -0.7063
 4161TIP3   OH233973   4.798   2.519  13.143 -0.2961 -0.5076  0.0572
 4161TIP3    H133974   4.739   2.583  13.181 -0.5626 -0.5731 -0.2515
 4161TIP3    H233975   4.885   2.544  13.177 -0.2373  0.6490 -0.8970
 4162TIP3   OH233976   1.736   2.016  14.296 -0.2637  0.1308 -0.2627
 4162TIP3    H133977   1.721   2.096  14.346  0.6728  0.8531 -1.0992
 4162TIP3    H233978   1.805   2.038  14.234 -0.7633 -1.0047 -1.2841
 4163TIP3   OH233979   0.569   6.264  12.709 -0.2419  0.9363  0.5288
 4163TIP3    H133980   0.620   6.184  12.725 -1.7539 -0.4571 -1.0942
 4163TIP3    H233981   0.486   6.248  12.753 -0.4073  1.8269  0.5538
 4164TIP3   OH233982   1.876   3.194   6.099  0.3867  0.3549 -0.2637
 4164TIP3    H133983   1.970   3.192   6.117  0.9901  2.3891 -2.6738
 4164TIP3    H233984   1.846   3.274   6.142 -0.6569 -1.0316  1.7830
 4165TIP3   OH233985   1.280   6.748   6.048  0.2237  0.8176 -0.3074
 4165TIP3    H133986   1.353   6.688   6.032 -0.7499 -0.3286 -0.5856
 4165TIP3    H233987   1.268   6.794   5.965 -0.1295  0.1360 -0.6457
 4166TIP3   OH233988   0.329   5.511   6.430 -0.4411  0.6526 -0.2551
 4166TIP3    H133989   0.319   5.605   6.446  0.5019  1.1587 -2.2851
 4166TIP3    H233990   0.413   5.504   6.383 -0.3865 -1.2313  0.0566
 4167TIP3   OH233991   1.869   6.279   5.672 -0.3329 -0.1646 -0.1303
 4167TIP3    H133992   1.823   6.217   5.727 -1.0471  1.5957  1.3716
 4167TIP3    H233993   1.949   6.300   5.721 -0.0570  0.0317 -0.6570
 4168TIP3   OH233994   1.807   3.563   1.099 -0.1905  0.5081 -0.1853
 4168TIP3    H133995   1.760   3.534   1.177 -0.2397  0.7259 -0.1331
 4168TIP3    H233996   1.752   3.535   1.026 -0.1826  0.3721 -0.1399
 4169TIP3   OH233997   1.677   6.576  11.051  0.2081  0.2654 -0.0027
 4169TIP3    H133998   1.713   6.648  10.999  1.1657  0.8847  1.4555
 4169TIP3    H233999   1.695   6.600  11.142 -2.4938 -0.1984  0.7351
 4170TIP3   OH234000   5.974   3.805   1.120  0.3265  1.0208  0.3553
 4170TIP3    H134001   6.039   3.857   1.071  2.0940  0.6574  2.1935
 4170TIP3    H234002   5.994   3.714   1.096  0.1113  0.9394  0.4932
 4171TIP3   OH234003   2.144   5.070  15.390 -0.2379  0.1910  0.3624
 4171TIP3    H134004   2.159   4.980  15.361 -0.1046  0.2347  0.2907
 4171TIP3    H234005   2.103   5.062  15.476  0.9509  0.0659  0.9353
 4172TIP3   OH234006   0.724   6.099   4.933 -0.1312  0.3016 -0.0050
 4172TIP3    H134007   0.691   6.074   5.019  1.9407 -2.3062  0.1483
 4172TIP3    H234008   0.652   6.077   4.873  0.6200 -4.2287  0.4176
 4173TIP3   OH234009   2.079   4.653   0.445  0.4705 -0.3666 -0.1361
 4173TIP3    H134010   2.092   4.748   0.444 -0.7549 -0.1518  1.0490
 4173TIP3    H234011   2.053   4.632   0.356  0.1162  0.5188 -0.2532
 4174TIP3   OH234012   2.335   6.207   2.185 -0.5231 -0.7265  0.7924
 4174TIP3    H134013   2.364   6.265   2.114  0.1365 -1.1250  0.7291
 4174TIP3    H234014   2.319   6.123   2.142  0.4895 -1.1422  1.2145
 4175TIP3   OH234015   3.748   2.812  10.847  0.1460  0.2282  0.3467
 4175TIP3    H134016   3.832   2.850  10.872 -0.5783 -0.0860  3.6823
 4175TIP3    H234017   3.713   2.775  10.928 -2.0135 -2.0687 -1.4749
 4176TIP3   OH234018   5.985   6.229  14.943  0.1587 -0.1635 -0.3797
 4176TIP3    H134019   5.900   6.244  14.986  0.1997  0.8798 -0.6294
 4176TIP3    H234020   5.973   6.266  14.855  0.0602 -2.3005 -1.3073
 4177TIP3   OH234021   4.903   5.375  12.116 -0.6824  0.4836 -0.8257
 4177TIP3    H134022   4.996   5.394  12.119 -0.7353  0.6822 -0.3856
 4177TIP3    H234023   4.897   5.295  12.064 -0.2996  0.6435 -1.1268
 4178TIP3   OH234024   0.409   4.005  13.991 -0.2789  0.2534  0.1961
 4178TIP3    H134025   0.421   4.099  13.974  2.3795  0.2870  1.6420
 4178TIP3    H234026   0.482   3.963  13.946 -0.2861 -0.8843  1.1916
 4179TIP3   OH234027   6.432   1.842   2.955 -0.0052  0.3305  0.4321
 4179TIP3    H134028   6.474   1.928   2.949  1.3285 -0.2722  0.8607
 4179TIP3    H234029   6.451   1.801   2.870  3.5977 -1.3649  1.8503
 4180TIP3   OH234030   5.266   0.978  11.413  0.2146 -0.0555  0.1177
 4180TIP3    H134031   5.309   0.952  11.494 -0.6073  0.2890  0.6735
 4180TIP3    H234032   5.183   0.931  11.413 -0.0216  0.3475 -0.2743
 4181TIP3   OH234033   3.620   2.158   2.704 -0.0917  0.2932 -0.5671
 4181TIP3    H134034   3.618   2.212   2.783  1.1992 -0.1500 -0.2094
 4181TIP3    H234035   3.531   2.123   2.696 -0.2030  0.2356  0.7692
 4182TIP3   OH234036   0.385   5.122  14.045 -0.3053  0.2850  0.1593
 4182TIP3    H134037   0.392   5.207  14.002 -0.8710 -0.7671 -2.1606
 4182TIP3    H234038   0.352   5.143  14.133 -1.9253  2.3801 -0.8395
 4183TIP3   OH234039   2.868   6.820  12.587  0.8640  0.2909 -0.6694
 4183TIP3    H134040   2.964   6.821  12.588  0.8766  1.3381  0.7179
 4183TIP3    H234041   2.844   6.838  12.678 -0.6243  3.6442 -1.5783
 4184TIP3   OH234042   4.905   2.053   1.953 -0.0573 -0.5721 -0.5076
 4184TIP3    H134043   4.904   2.147   1.970  0.1779  0.1509 -3.7463
 4184TIP3    H234044   4.996   2.034   1.929 -0.5722 -1.0490 -2.2431
 4185TIP3   OH234045   4.792   3.602   0.635  0.4401 -0.3567  0.2599
 4185TIP3    H134046   4.717   3.656   0.662  0.2567 -0.5296  0.0974
 4185TIP3    H234047   4.866   3.640   0.682  0.4492  0.5354 -0.4584
 4186TIP3   OH234048   3.983   5.361  11.546  0.4015 -0.3543 -0.2014
 4186TIP3    H134049   3.926   5.415  11.490  0.1905  0.7105  1.0045
 4186TIP3    H234050   3.923   5.320  11.608  0.9011  0.8595  1.1476
 4187TIP3   OH234051   1.288   2.866   1.168 -0.7360 -0.2371  0.5685
 4187TIP3    H134052   1.207   2.826   1.199 -0.2985 -0.9849  0.7816
 4187TIP3    H234053   1.262   2.952   1.137 -1.4368 -0.0407  1.6346
 4188TIP3   OH234054   1.976   1.341  11.791 -0.2997 -0.5290  0.0603
 4188TIP3    H134055   1.941   1.253  11.802 -0.5841 -0.1648  2.8493
 4188TIP3    H234056   1.908   1.398  11.827 -0.1444  0.8856 -1.7278
 4189TIP3   OH234057   1.406   5.321   3.618 -0.1083  0.5707 -0.3958
 4189TIP3    H134058   1.498   5.346   3.610 -0.3394  1.9440  0.8365
 4189TIP3    H234059   1.362   5.365   3.546 -0.1766  2.1385  0.5443
 4190TIP3   OH234060   5.178   2.080  10.832 -0.1506  0.7891 -0.6448
 4190TIP3    H134061   5.145   2.028  10.759  2.4056  0.7497 -1.8776
 4190TIP3    H234062   5.227   2.151  10.791  0.8608  1.1142  1.0213
 4191TIP3   OH234063   6.021   5.502   1.496  0.2559 -0.1605 -0.0636
 4191TIP3    H134064   6.042   5.445   1.422 -1.4064 -0.3292 -0.4430
 4191TIP3    H234065   5.925   5.503   1.499  0.1743 -1.8622  3.3729
 4192TIP3   OH234066   5.244   1.285  13.756  0.3925 -0.0598  0.4681
 4192TIP3    H134067   5.221   1.306  13.847 -0.0883  0.1788  0.2939
 4192TIP3    H234068   5.316   1.223  13.764  2.9277  2.7175  1.0241
 4193TIP3   OH234069   0.893   5.267   3.935 -0.3887 -0.1642 -0.3045
 4193TIP3    H134070   0.827   5.333   3.916  0.1398  0.7515  0.8974
 4193TIP3    H234071   0.897   5.213   3.856  0.2425  2.1406 -1.9359
 4194TIP3   OH234072   5.571   3.264   4.264 -0.0640  0.4770  0.7784
 4194TIP3    H134073   5.556   3.316   4.344  3.2703  1.6210  0.8106
 4194TIP3    H234074   5.551   3.325   4.193 -1.9790 -0.2082  0.6618
 4195TIP3   OH234075   0.891   0.892  14.584  0.2157  0.4265 -0.1555
 4195TIP3    H134076   0.886   0.885  14.489  2.1579  0.5111 -0.3155
 4195TIP3    H234077   0.927   0.808  14.612  1.8584  1.2167  0.2299
 4196TIP3   OH234078   3.561   4.073  16.321  0.3882 -1.0482 -0.1620
 4196TIP3    H134079   3.487   4.128  16.296  1.2691 -0.2397 -1.1524
 4196TIP3    H234080   3.635   4.134  16.325  1.4087 -2.1483 -1.3100
 4197TIP3   OH234081   0.404   6.206  14.635  0.3658 -0.4191  0.0394
 4197TIP3    H134082   0.332   6.153  14.599 -0.2774  0.9402 -0.7516
 4197TIP3    H234083   0.429   6.160  14.715 -0.0059 -2.0474 -0.7173
 4198TIP3   OH234084   4.215   0.866   0.788 -0.1189 -0.3360  0.0345
 4198TIP3    H134085   4.185   0.954   0.764 -0.7694 -0.2363  1.1587
 4198TIP3    H234086   4.252   0.830   0.707  1.0299  1.3222 -0.2324
 4199TIP3   OH234087   6.600   2.565  10.524  0.7547 -0.4816 -0.2305
 4199TIP3    H134088   6.572   2.564  10.615  0.6490  0.4771 -0.2461
 4199TIP3    H234089   6.542   2.503  10.480 -1.3585  1.4108 -0.2542
 4200TIP3   OH234090   5.560   0.540   6.037  0.3775 -0.4210  0.0052
 4200TIP3    H134091   5.626   0.599   6.001  0.8468 -0.6104  0.5461
 4200TIP3    H234092   5.503   0.519   5.962 -0.3011  1.3652 -0.0355
 4201TIP3   OH234093   6.374   3.427   4.288 -0.5494  0.0234  0.5046
 4201TIP3    H134094   6.342   3.348   4.245 -1.5953  0.2713  0.7997
 4201TIP3    H234095   6.450   3.454   4.236  1.3610 -2.4675  1.7442
 4202TIP3   OH234096   2.615   4.908   3.701 -0.6146  0.0031 -0.3750
 4202TIP3    H134097   2.667   4.848   3.754 -0.0721 -0.9661 -1.9262
 4202TIP3    H234098   2.574   4.852   3.635 -1.5736  1.1045 -0.7478
 4203TIP3   OH234099   3.877   4.960   0.485  0.1977 -0.1753  0.0259
 4203TIP3    H134100   3.959   4.964   0.436 -0.3597  0.1720 -0.8932
 4203TIP3    H234101   3.817   5.018   0.438 -0.3920  0.0700  1.0436
 4204TIP3   OH234102   0.821   2.281  16.730 -0.0180 -0.0557  0.0833
 4204TIP3    H134103   0.752   2.345  16.715 -0.1880  0.1578  1.6973
 4204TIP3    H234104   0.890   2.306  16.669 -0.1048  1.6227  0.6381
 4205TIP3   OH234105   5.089   6.471   1.154  0.6857  0.1792 -1.0430
 4205TIP3    H134106   5.176   6.497   1.184  0.2066  0.3307  0.2923
 4205TIP3    H234107   5.074   6.525   1.076  0.6663  2.2679  0.3209
 4206TIP3   OH234108   4.720   3.192  14.347 -0.6310 -0.3569  0.3191
 4206TIP3    H134109   4.779   3.198  14.422 -0.1419  0.4584 -0.1284
 4206TIP3    H234110   4.735   3.104  14.313 -1.0812 -0.8574  1.3424
 4207TIP3   OH234111   1.843   3.738   1.480  0.0946 -0.1601  0.0059
 4207TIP3    H134112   1.896   3.659   1.488 -0.2152 -0.5318 -1.2898
 4207TIP3    H234113   1.800   3.748   1.565 -0.6152 -1.9525 -0.1131
 4208TIP3   OH234114   6.083   4.162  16.406 -0.1551  0.1811 -0.0015
 4208TIP3    H134115   5.989   4.150  16.391 -0.2586  0.3550  0.4781
 4208TIP3    H234116   6.110   4.082  16.451 -0.4849  0.9325  1.6147
 4209TIP3   OH234117   5.891   3.002   4.460  0.7287  0.1962 -0.0867
 4209TIP3    H134118   5.923   2.984   4.371  2.3227  0.9333  0.2937
 4209TIP3    H234119   5.859   3.092   4.455  0.1103 -0.0170 -0.0778
 4210TIP3   OH234120   1.009   1.081   0.309  0.2550  0.2507  0.1173
 4210TIP3    H134121   1.088   1.077   0.363 -0.9033  1.0161  1.9778
 4210TIP3    H234122   1.010   0.999   0.260  1.9079 -0.0027  0.4996
 4211TIP3   OH234123   4.972   3.754   6.137 -0.1092  0.2161  0.6374
 4211TIP3    H134124   5.039   3.705   6.185 -0.5180  0.1331  1.1403
 4211TIP3    H234125   4.980   3.844   6.171  0.9578  0.6324 -0.6259
 4212TIP3   OH234126   4.790   0.768  14.495  0.6969  0.6244 -0.4229
 4212TIP3    H134127   4.734   0.705  14.539  1.4494 -0.3383 -0.8216
 4212TIP3    H234128   4.806   0.731  14.408 -0.4213  2.2870 -1.3964
 4213TIP3   OH234129   2.565   5.440   4.036 -0.3551 -0.6303 -1.0849
 4213TIP3    H134130   2.579   5.520   4.088  1.1953 -1.5473  0.0071
 4213TIP3    H234131   2.644   5.434   3.981  0.6529 -2.5378  0.4609
 4214TIP3   OH234132   5.163   6.666   3.641  0.1999  0.3586 -0.6758
 4214TIP3    H134133   5.217   6.655   3.720  0.3461  1.3960 -0.6267
 4214TIP3    H234134   5.082   6.620   3.662  1.5884 -2.7005 -1.3683
 4215TIP3   OH234135   0.921   2.773  12.693  0.1575 -0.2077 -0.8547
 4215TIP3    H134136   0.897   2.688  12.658  0.9960  0.0746 -2.1877
 4215TIP3    H234137   0.873   2.836  12.639 -0.1498  0.1786 -0.1381
 4216TIP3   OH234138   4.077   1.526  14.252 -0.3767 -0.2453  0.6818
 4216TIP3    H134139   4.106   1.506  14.163 -1.1730 -1.9540  0.7789
 4216TIP3    H234140   4.008   1.592  14.240 -0.4522 -0.4377  0.0356
 4217TIP3   OH234141   2.247   4.665   1.538  0.7514  0.0283 -0.5282
 4217TIP3    H134142   2.323   4.607   1.535  2.2547  1.8607 -0.1964
 4217TIP3    H234143   2.242   4.694   1.630 -0.9435 -0.7505 -0.3325
 4218TIP3   OH234144   1.504   4.966  15.109  0.0659 -0.1062 -0.0309
 4218TIP3    H134145   1.576   4.961  15.046 -1.3439 -1.4694 -1.6259
 4218TIP3    H234146   1.508   5.055  15.143  3.3904 -0.5096  1.1010
 4219TIP3   OH234147   0.742   3.989   4.131 -0.1286 -0.3842 -0.2953
 4219TIP3    H134148   0.780   3.944   4.207  2.5902  2.5787  0.3108
 4219TIP3    H234149   0.802   3.969   4.059  0.8215  1.6048 -0.1395
 4220TIP3   OH234150   4.416   2.525   6.284  0.5499  0.4990  0.1480
 4220TIP3    H134151   4.409   2.607   6.332  0.6091  0.8988 -0.5119
 4220TIP3    H234152   4.334   2.519   6.235  0.7690  0.4210 -0.2084
 4221TIP3   OH234153   6.310   5.359   2.067  0.3648 -0.3950  0.0281
 4221TIP3    H134154   6.262   5.439   2.045  0.3954 -0.5959 -0.8152
 4221TIP3    H234155   6.251   5.310   2.123 -0.0457 -0.2169 -0.2426
 4222TIP3   OH234156   5.710   3.447  11.704 -0.2991 -0.1876  0.1290
 4222TIP3    H134157   5.665   3.458  11.788 -1.0904  0.1132 -0.3241
 4222TIP3    H234158   5.698   3.354  11.683 -1.6563  0.1120 -0.5028
 4223TIP3   OH234159   4.732   3.344  11.867  0.4486 -0.2288 -0.6707
 4223TIP3    H134160   4.682   3.326  11.946  3.2948 -1.6975  0.9590
 4223TIP3    H234161   4.730   3.262  11.818  0.4184  0.0190 -1.0911
 4224TIP3   OH234162   3.987   5.652   0.385  0.1650  0.3301  0.7067
 4224TIP3    H134163   4.042   5.687   0.315 -0.4618 -0.7679 -0.3729
 4224TIP3    H234164   3.899   5.684   0.365  0.3273  1.9936  2.3629
 4225TIP3   OH234165   0.377   0.648   1.189  0.1505 -0.3977 -0.0086
 4225TIP3    H134166   0.287   0.645   1.223  0.0037 -1.1615 -0.4506
 4225TIP3    H234167   0.384   0.735   1.149  0.1677  0.3407  1.5025
 4226TIP3   OH234168   0.050   4.897   5.135  0.2852  0.5078 -0.0123
 4226TIP3    H134169   0.014   4.984   5.152 -1.1820  0.0297 -0.4240
 4226TIP3    H234170   0.102   4.908   5.055 -1.1916  0.7411 -0.9991
 4227TIP3   OH234171   3.403   3.545  16.550  0.4905 -0.0125 -0.0155
 4227TIP3    H134172   3.325   3.513  16.503  0.5100  0.8504 -0.6576
 4227TIP3    H234173   3.466   3.563  16.480  0.7354  0.7157  0.3876
 4228TIP3   OH234174   1.361   5.677   2.133  0.7712 -0.0048  0.1628
 4228TIP3    H134175   1.378   5.751   2.192 -0.2350  0.3261  0.0648
 4228TIP3    H234176   1.445   5.660   2.091  0.9946  1.1663  0.0998
 4229TIP3   OH234177   2.871   0.837  13.773  0.0288 -0.0234  0.0852
 4229TIP3    H134178   2.957   0.829  13.732 -0.2179  0.7800 -0.6070
 4229TIP3    H234179   2.889   0.831  13.867  0.6021 -1.9297 -0.0957
 4230TIP3   OH234180   5.649   2.013  16.067 -0.2981 -0.1402  0.3370
 4230TIP3    H134181   5.724   1.964  16.033 -1.4482 -1.9127  0.2443
 4230TIP3    H234182   5.688   2.075  16.129  1.3213 -0.3902 -0.3627
 4231TIP3   OH234183   6.462   4.333  12.214 -0.8833 -0.1198  0.2138
 4231TIP3    H134184   6.466   4.365  12.304 -1.0835 -1.0464  0.5607
 4231TIP3    H234185   6.553   4.336  12.183 -0.3897 -2.2275  1.3276
 4232TIP3   OH234186   5.813   6.772  11.531 -0.0786  0.1599 -0.4492
 4232TIP3    H134187   5.851   6.721  11.602 -1.1160 -0.3870 -0.2716
 4232TIP3    H234188   5.879   6.839  11.512  0.4391 -0.0094  0.6639
 4233TIP3   OH234189   3.407   3.552  12.443 -0.2603 -0.4614  0.8882
 4233TIP3    H134190   3.390   3.608  12.518  0.5260 -1.8486  2.1517
 4233TIP3    H234191   3.488   3.585  12.405 -0.2811 -0.1999  1.0727
 4234TIP3   OH234192   6.777   5.142   5.170  0.1400 -0.3675 -0.8195
 4234TIP3    H134193   6.712   5.118   5.236  0.4438 -0.4762 -0.5579
 4234TIP3    H234194   6.744   5.223   5.132  0.1947 -0.0607 -0.2186
 4235TIP3   OH234195   6.785   0.453  14.934 -0.2962 -0.3503 -0.0289
 4235TIP3    H134196   6.707   0.404  14.957 -0.0182 -0.4916  0.6414
 4235TIP3    H234197   6.818   0.411  14.854 -0.3590 -0.9152  0.2386
 4236TIP3   OH234198   5.325   4.769  14.921 -0.3514  0.1546  0.1882
 4236TIP3    H134199   5.352   4.767  14.829  1.1049  1.8840  0.5243
 4236TIP3    H234200   5.381   4.835  14.961 -3.0490  1.7204  1.6860
 4237TIP3   OH234201   0.058   3.773  13.619 -0.3586 -0.1605  0.0791
 4237TIP3    H134202   0.115   3.840  13.655 -1.8244  1.7093 -0.8645
 4237TIP3    H234203  -0.015   3.768  13.680 -0.5982 -0.3749 -0.2183
 4238TIP3   OH234204   4.229   3.691  11.856 -0.2019 -0.2105 -0.0007
 4238TIP3    H134205   4.196   3.662  11.771 -1.2102 -1.8935  0.9038
 4238TIP3    H234206   4.172   3.764  11.880 -0.2217 -0.0413 -0.5332
 4239TIP3   OH234207   2.256   4.186  12.365  0.5199  0.2324 -0.4941
 4239TIP3    H134208   2.347   4.155  12.363  0.8656  1.1831 -0.3142
 4239TIP3    H234209   2.215   4.134  12.434  2.0513  2.5418  2.4716
 4240TIP3   OH234210   2.624   6.161   4.114 -0.2795  0.1537  0.0714
 4240TIP3    H134211   2.534   6.184   4.137 -0.5784 -0.1271 -0.8019
 4240TIP3    H234212   2.642   6.213   4.036  0.3698  0.3201  0.3290
 4241TIP3   OH234213   0.365   6.442   4.738  0.0213  0.2896 -0.1532
 4241TIP3    H134214   0.433   6.460   4.803 -0.7924  0.3368  0.7142
 4241TIP3    H234215   0.300   6.390   4.786  0.2416 -1.2072 -1.4171
 4242TIP3   OH234216   1.183   3.803   2.601  0.0045  0.0328 -0.1015
 4242TIP3    H134217   1.137   3.807   2.685 -1.2915  0.3341 -0.8041
 4242TIP3    H234218   1.138   3.734   2.553  1.8728 -1.3923  0.0789
 4243TIP3   OH234219   6.635   1.160   5.073  0.0919 -0.1975 -0.0877
 4243TIP3    H134220   6.653   1.130   5.162  0.0754  2.5139  0.9293
 4243TIP3    H234221   6.715   1.206   5.046 -0.9169  1.5342 -0.2785
 4244TIP3   OH234222   3.035   5.350  12.869 -0.5210 -0.3281 -0.3100
 4244TIP3    H134223   3.082   5.430  12.892  1.6613 -0.6635 -3.0167
 4244TIP3    H234224   3.100   5.280  12.882 -1.2773 -1.2191 -1.1514
 4245TIP3   OH234225   0.932   3.225   1.998  0.4900 -0.0625  0.2734
 4245TIP3    H134226   0.849   3.182   1.976  0.2502  0.2720  0.5008
 4245TIP3    H234227   0.995   3.154   2.008  0.3242 -0.2974 -0.2944
 4246TIP3   OH234228   0.763   4.364  12.793 -0.1886  0.4741  0.4045
 4246TIP3    H134229   0.797   4.370  12.882 -0.4358  0.0242  0.5335
 4246TIP3    H234230   0.825   4.309  12.747 -1.5950 -1.8355  1.0977
 4247TIP3   OH234231   0.733   0.254  12.628  0.5627 -0.0080 -0.1745
 4247TIP3    H134232   0.798   0.323  12.618  0.2573  0.0267 -2.6735
 4247TIP3    H234233   0.783   0.174  12.637  0.9207  0.4409  2.6330
 4248TIP3   OH234234   4.758   4.403   4.912  0.0676 -0.2821  0.0991
 4248TIP3    H134235   4.746   4.483   4.964 -1.3030 -0.6946  0.4762
 4248TIP3    H234236   4.700   4.415   4.837 -2.7673 -2.2145  1.7775
 4249TIP3   OH234237   5.164   1.618  16.465  0.2214 -0.1372 -0.5461
 4249TIP3    H134238   5.250   1.580  16.484  0.6725  1.3894  0.6656
 4249TIP3    H234239   5.174   1.657  16.378  0.6339 -0.3116 -0.5812
 4250TIP3   OH234240   0.205   5.073  11.750 -0.2305  0.0994  0.2848
 4250TIP3    H134241   0.187   5.032  11.665 -0.7575  2.5305 -0.8656
 4250TIP3    H234242   0.126   5.057  11.802 -1.8268  2.2592 -1.2805
 4251TIP3   OH234243   5.562   1.610  12.623 -0.4203  0.3881  1.0003
 4251TIP3    H134244   5.518   1.533  12.586  1.6834 -0.3675 -0.1565
 4251TIP3    H234245   5.634   1.573  12.674  0.6834  1.5573  0.3526
 4252TIP3   OH234246   6.802   5.013   2.840 -0.2139 -0.2679  0.8568
 4252TIP3    H134247   6.839   5.069   2.771 -1.3193 -0.4269  0.0954
 4252TIP3    H234248   6.856   5.029   2.917  2.4275 -1.6610 -0.5672
 4253TIP3   OH234249   0.296   6.131   2.219  0.2661 -0.7484  0.3288
 4253TIP3    H134250   0.343   6.087   2.148 -2.5909 -0.9403 -1.6098
 4253TIP3    H234251   0.292   6.067   2.290  4.0470 -0.2154  1.2539
 4254TIP3   OH234252   1.889   6.410   4.117  0.8720 -1.0486  0.2621
 4254TIP3    H134253   1.910   6.361   4.196  1.0957  0.7520  1.3968
 4254TIP3    H234254   1.964   6.468   4.104 -0.5143  0.9766  0.6897
 4255TIP3   OH234255   4.340   4.543   0.465  0.3421 -0.0387 -0.5438
 4255TIP3    H134256   4.271   4.479   0.482 -0.5091  0.6013 -1.4353
 4255TIP3    H234257   4.343   4.550   0.370  1.9488 -0.3498 -0.5460
 4256TIP3   OH234258   5.929   0.945  14.461 -0.1378  0.0285  0.1449
 4256TIP3    H134259   6.016   0.982  14.468 -0.5958  1.2443 -0.3156
 4256TIP3    H234260   5.892   0.954  14.549 -0.3905  1.0800 -0.0560
 4257TIP3   OH234261   3.952   6.394  13.935 -0.6375  0.0573  0.4930
 4257TIP3    H134262   3.979   6.305  13.915  0.8627  0.9849 -2.0554
 4257TIP3    H234263   4.032   6.446  13.928 -1.0951  1.4753  3.6512
 4258TIP3   OH234264   4.107   6.038   4.158  0.5134 -0.1843 -0.3231
 4258TIP3    H134265   4.173   6.061   4.092  0.2454  0.8712 -0.2476
 4258TIP3    H234266   4.025   6.032   4.109  0.7889 -2.6032 -0.6146
 4259TIP3   OH234267   3.456   0.403   2.515  0.0767 -0.0410 -0.0877
 4259TIP3    H134268   3.431   0.428   2.426 -0.6622 -1.4111 -0.2941
 4259TIP3    H234269   3.491   0.314   2.505 -1.4378 -0.8238  1.1830
 4260TIP3   OH234270   3.372   0.358   1.921  0.1522  0.6172 -0.4278
 4260TIP3    H134271   3.277   0.367   1.912  0.3471  1.4698 -2.0180
 4260TIP3    H234272   3.384   0.278   1.973 -1.4367  0.9728  0.5363
 4261TIP3   OH234273   4.779   0.795   3.483  0.6051  0.6810  0.6390
 4261TIP3    H134274   4.809   0.885   3.474 -1.8784  1.4787 -0.5363
 4261TIP3    H234275   4.737   0.775   3.399 -0.3007 -0.9998  1.4367
 4262TIP3   OH234276   5.020   6.506   4.895 -0.6319  0.2685 -0.0171
 4262TIP3    H134277   4.945   6.465   4.939 -0.8889  0.4193 -0.3133
 4262TIP3    H234278   4.991   6.520   4.805 -0.6305  1.3100  0.1309
 4263TIP3   OH234279   5.792   3.532   4.806  0.2937 -0.0371 -0.2350
 4263TIP3    H134280   5.768   3.512   4.715  0.2326  2.2525 -0.7666
 4263TIP3    H234281   5.743   3.468   4.858 -0.9108 -0.3812 -1.7267
 4264TIP3   OH234282   6.304   3.348  13.675 -0.2122 -0.6490 -0.4011
 4264TIP3    H134283   6.225   3.318  13.719  0.5235  0.1203  1.5683
 4264TIP3    H234284   6.359   3.269  13.668 -0.5286 -0.8743 -0.3638
 4265TIP3   OH234285   6.402   6.034  14.770  0.0596 -0.1067  0.2882
 4265TIP3    H134286   6.418   6.017  14.677  0.4767 -2.8252  0.7821
 4265TIP3    H234287   6.309   6.015  14.782  0.4996 -2.1253  0.8253
 4266TIP3   OH234288   4.906   3.230  14.523 -0.2156 -0.1247  0.1998
 4266TIP3    H134289   4.962   3.272  14.458 -2.3227 -0.7643 -2.2075
 4266TIP3    H234290   4.873   3.302  14.577 -1.8336  1.1570 -2.2927
 4267TIP3   OH234291   1.690   2.483  14.904 -0.1156 -0.2451 -0.3025
 4267TIP3    H134292   1.781   2.510  14.914 -0.0091 -0.4094 -0.7638
 4267TIP3    H234293   1.692   2.419  14.832 -0.4365 -1.0622  0.3932
 4268TIP3   OH234294   0.383   5.796   4.962  0.4629 -0.2448  0.0460
 4268TIP3    H134295   0.355   5.710   4.930  1.0010 -0.7360  0.8488
 4268TIP3    H234296   0.476   5.784   4.983  0.1643  0.0526  1.6930
 4269TIP3   OH234297   0.013   2.941  17.042 -0.2371  0.1529 -0.2716
 4269TIP3    H134298   0.088   2.898  17.000 -0.8745 -2.0901  0.7447
 4269TIP3    H234299  -0.042   2.869  17.072 -3.1413  1.7070 -1.4650
 4270TIP3   OH234300   2.737   0.475   4.898 -0.1874  0.1317 -0.9865
 4270TIP3    H134301   2.696   0.555   4.930 -1.7412 -1.0254  0.0662
 4270TIP3    H234302   2.771   0.432   4.977 -1.3233 -1.2764 -1.2231
 4271TIP3   OH234303   5.528   5.043  17.094 -0.1742  0.4513  0.2490
 4271TIP3    H134304   5.534   5.042  17.190  0.7937 -0.8526  0.2035
 4271TIP3    H234305   5.587   4.973  17.066 -1.2171  0.1357 -1.2609
 4272TIP3   OH234306   0.249   5.300   5.095 -0.2959 -0.6707 -0.0352
 4272TIP3    H134307   0.157   5.273   5.093 -0.5977  0.3444 -1.0917
 4272TIP3    H234308   0.278   5.294   5.005  0.1073  0.8317 -0.0290
 4273TIP3   OH234309   4.866   5.640   2.075  0.5306 -0.4747 -0.0596
 4273TIP3    H134310   4.833   5.551   2.062  0.8118 -0.9768  2.1944
 4273TIP3    H234311   4.788   5.696   2.067  0.2242 -0.9920 -0.7617
 4274TIP3   OH234312   5.500   3.388   5.258 -0.5703  0.6721  0.1941
 4274TIP3    H134313   5.434   3.407   5.324 -1.4721  0.6316 -0.6786
 4274TIP3    H234314   5.516   3.294   5.267 -2.1135  0.2682 -0.8932
 4275TIP3   OH234315   2.461   3.261  15.015 -0.0067 -0.3166 -0.0748
 4275TIP3    H134316   2.549   3.286  14.989  0.5314 -1.7641  0.2958
 4275TIP3    H234317   2.411   3.343  15.012  1.5792  0.7128  0.7218
 4276TIP3   OH234318   5.930   6.068  16.040  0.3014  0.0245  0.3413
 4276TIP3    H134319   5.919   5.973  16.046  1.0141 -0.0668  0.2451
 4276TIP3    H234320   5.970   6.083  15.954 -1.7866  0.6035 -0.6027
 4277TIP3   OH234321   5.968   4.651  10.904  0.6101  0.6877 -0.6232
 4277TIP3    H134322   5.877   4.630  10.885  0.7002  0.7349 -1.1400
 4277TIP3    H234323   6.007   4.567  10.929  1.1551 -0.0020 -3.4360
 4278TIP3   OH234324   4.713   2.560  12.216  0.1035  0.0227  0.0687
 4278TIP3    H134325   4.757   2.487  12.259 -0.6038 -0.7426 -0.4590
 4278TIP3    H234326   4.770   2.635  12.230  0.2467 -0.3627  1.6708
 4279TIP3   OH234327   6.264   0.024  16.081 -0.0670  0.1820  0.5122
 4279TIP3    H134328   6.354   0.053  16.097  0.4707 -1.1655  0.0316
 4279TIP3    H234329   6.247  -0.041  16.149 -0.4703  0.0007  0.2400
 4280TIP3   OH234330   2.588   6.575   4.373  0.3552 -0.1352 -0.4920
 4280TIP3    H134331   2.625   6.487   4.375  0.6558 -0.0054  1.1837
 4280TIP3    H234332   2.645   6.623   4.312  1.8097 -0.4555  0.5424
 4281TIP3   OH234333   1.125   1.156   3.389 -0.1161 -0.1780  0.0570
 4281TIP3    H134334   1.212   1.124   3.412 -0.3633 -0.5577  0.4845
 4281TIP3    H234335   1.123   1.154   3.293  0.4511  0.1226  0.0385
 4282TIP3   OH234336   6.827   3.238   0.502  0.4382 -0.2595 -0.2592
 4282TIP3    H134337   6.774   3.302   0.550 -1.3539 -1.8466 -0.0277
 4282TIP3    H234338   6.782   3.228   0.418  0.3388 -1.6541 -0.0573
 4283TIP3   OH234339   5.256   3.458   4.515 -0.3089  0.0609  0.4044
 4283TIP3    H134340   5.237   3.390   4.580  0.5357  0.9790  1.6825
 4283TIP3    H234341   5.352   3.459   4.510 -0.3200  0.9445  0.1989
 4284TIP3   OH234342   0.005   5.015  11.937  0.3704  0.4131  0.4838
 4284TIP3    H134343   0.081   5.023  11.995  1.2344 -1.7352 -0.2368
 4284TIP3    H234344  -0.070   5.024  11.996  1.1900  1.1033  1.4662
 4285TIP3   OH234345   4.297   3.537   4.187  0.3568  0.0624 -0.3450
 4285TIP3    H134346   4.312   3.625   4.153 -0.1440 -0.2197 -1.3272
 4285TIP3    H234347   4.205   3.520   4.171  0.1418 -0.1677  1.0115
 4286TIP3   OH234348   1.131   4.554   1.728 -0.5292 -0.1814 -0.0173
 4286TIP3    H134349   1.068   4.496   1.771  1.0674 -1.0077  1.2720
 4286TIP3    H234350   1.191   4.495   1.683  1.0809  0.4272  1.2507
 4287TIP3   OH234351   6.172   4.155  15.246  0.2236  0.1731  0.2947
 4287TIP3    H134352   6.199   4.227  15.303  0.1736  2.2775 -2.1845
 4287TIP3    H234353   6.077   4.162  15.242  0.3130  1.0752 -1.1996
 4288TIP3   OH234354   3.952   6.385   3.988  0.9943  0.5580 -0.0108
 4288TIP3    H134355   3.945   6.460   4.047  0.5015  0.6674 -0.2040
 4288TIP3    H234356   3.953   6.422   3.900 -0.8317  0.2986 -0.1994
 4289TIP3   OH234357   5.545   5.840  11.529  0.4072  0.0620  0.3988
 4289TIP3    H134358   5.500   5.810  11.608 -0.8937 -0.3372 -0.4635
 4289TIP3    H234359   5.523   5.774  11.462  2.3714 -0.2096 -0.0540
 4290TIP3   OH234360   1.659   5.398   1.573  0.1198  0.0752 -0.3462
 4290TIP3    H134361   1.596   5.468   1.552 -1.6270 -1.6306 -1.1355
 4290TIP3    H234362   1.639   5.374   1.663  1.9137  1.7094  0.5455
 4291TIP3   OH234363   2.192   2.495  15.159  0.0125 -0.3607 -0.0004
 4291TIP3    H134364   2.116   2.438  15.150 -0.9469  0.5544  1.8114
 4291TIP3    H234365   2.263   2.436  15.183 -0.9489 -0.8609  1.7904
 4292TIP3   OH234366   4.068   4.067  17.020 -0.0659  0.0342 -0.0687
 4292TIP3    H134367   4.035   4.078  16.931 -0.1341  1.8837  0.1470
 4292TIP3    H234368   3.991   4.074  17.076  0.0222 -0.8045  0.1732
 4293TIP3   OH234369   0.219   3.391   3.701  0.0848  0.2519  0.3233
 4293TIP3    H134370   0.250   3.349   3.620 -1.2496  0.5740 -0.3721
 4293TIP3    H234371   0.263   3.476   3.702 -0.2647  0.4450 -0.3171
 4294TIP3   OH234372   2.573   3.158  15.744  0.9341  0.8296  0.0216
 4294TIP3    H134373   2.493   3.203  15.775 -0.1382 -1.5395  0.9243
 4294TIP3    H234374   2.552   3.065  15.751  3.2618  0.1472 -1.2454
 4295TIP3   OH234375   2.806   6.528  10.359  0.2149  0.1923 -0.4740
 4295TIP3    H134376   2.854   6.450  10.329  0.4448  0.3746 -0.5782
 4295TIP3    H234377   2.868   6.600  10.348  0.2656  0.2793  0.3445
 4296TIP3   OH234378   4.133   3.690   6.132  0.3562 -0.6575 -0.2611
 4296TIP3    H134379   4.172   3.725   6.211  1.6661  0.8480 -1.4999
 4296TIP3    H234380   4.066   3.629   6.163 -0.1104  0.8646  1.9997
 4297TIP3   OH234381   2.722   1.256   3.953 -0.1674  0.0357 -0.7210
 4297TIP3    H134382   2.715   1.184   3.890 -1.4967 -1.3086  0.8651
 4297TIP3    H234383   2.688   1.332   3.905 -1.8553 -1.0912 -1.4415
 4298TIP3   OH234384   1.395   1.794   3.754 -0.3848 -0.8562 -0.7009
 4298TIP3    H134385   1.470   1.800   3.813 -0.1397 -1.7726 -0.9082
 4298TIP3    H234386   1.362   1.884   3.749  0.0260 -0.6334  0.2558
 4299TIP3   OH234387   0.131   0.988   3.669 -0.4180  0.0651  0.4185
 4299TIP3    H134388   0.098   1.066   3.626  2.0005  1.0196  0.1169
 4299TIP3    H234389   0.146   0.926   3.597 -1.3753 -0.3160  0.5391
 4300TIP3   OH234390   5.478   3.893  10.376  0.3275  0.4107 -0.4175
 4300TIP3    H134391   5.487   3.924  10.466 -1.1561 -0.5471  0.0943
 4300TIP3    H234392   5.569   3.881  10.346  0.8475  0.4062  1.0585
 4301TIP3   OH234393   4.836   4.313   6.448 -0.1389  0.7630  0.3672
 4301TIP3    H134394   4.892   4.297   6.372  2.0379  0.0701  2.0319
 4301TIP3    H234395   4.871   4.392   6.488  0.1709 -0.1059  1.8720
 4302TIP3   OH234396   3.473   2.589  14.226 -0.2351  0.3132 -0.2979
 4302TIP3    H134397   3.483   2.525  14.296 -0.4545  0.8824  0.2647
 4302TIP3    H234398   3.446   2.669  14.270 -0.4618  0.6612 -1.0429
 4303TIP3   OH234399   3.781   1.369  14.749  0.0243  0.2034  0.7808
 4303TIP3    H134400   3.728   1.390  14.826 -0.7930 -1.3096  0.6705
 4303TIP3    H234401   3.871   1.380  14.779 -0.2981  0.3694  1.7368
 4304TIP3   OH234402   5.687   0.681   3.914 -0.1015  0.5620  0.0567
 4304TIP3    H134403   5.633   0.680   3.835  1.0315 -0.6496 -0.7557
 4304TIP3    H234404   5.667   0.598   3.957 -1.8921  1.8962  1.9260
 4305TIP3   OH234405   1.787   4.836  13.246 -0.8802 -0.6565 -0.6066
 4305TIP3    H134406   1.714   4.893  13.270  1.2337  2.3923 -0.7201
 4305TIP3    H234407   1.822   4.875  13.166  1.8841 -0.8144  0.4012
 4306TIP3   OH234408   6.586   0.591   3.706  0.1906 -0.1181  0.6392
 4306TIP3    H134409   6.613   0.548   3.625 -1.2302 -0.4157  0.2836
 4306TIP3    H234410   6.664   0.591   3.762  0.8385 -1.0528 -0.2483
 4307TIP3   OH234411   5.556   1.865  12.186 -0.0068  0.3463 -0.0029
 4307TIP3    H134412   5.461   1.871  12.172 -0.0871 -0.4256  0.2068
 4307TIP3    H234413   5.567   1.791  12.244  0.7990 -0.0861 -0.6917
 4308TIP3   OH234414   6.530   6.313   3.183  0.2412 -0.6578 -0.5241
 4308TIP3    H134415   6.517   6.310   3.089  1.0100 -0.0081 -0.6646
 4308TIP3    H234416   6.581   6.393   3.198  0.7080 -1.1052  0.3638
 4309TIP3   OH234417   0.264   6.170   2.861 -0.1454 -0.3185 -0.1295
 4309TIP3    H134418   0.266   6.089   2.810  0.2662 -1.6347  1.8606
 4309TIP3    H234419   0.324   6.229   2.815  0.0717 -1.3653 -1.2514
 4310TIP3   OH234420   3.071   5.294   0.647 -0.2138  0.3252  0.8572
 4310TIP3    H134421   3.016   5.249   0.582 -1.0472  2.2032  0.1968
 4310TIP3    H234422   3.158   5.256   0.635 -0.2469  0.8294 -1.6595
 4311TIP3   OH234423   2.503   6.463  11.891 -0.1796  0.2637  0.1446
 4311TIP3    H134424   2.497   6.556  11.869 -0.2045  0.0166 -0.9258
 4311TIP3    H234425   2.477   6.459  11.984 -1.1605  1.1991 -0.0661
 4312TIP3   OH234426   5.888   2.496   3.730 -0.6817 -0.0552 -0.1434
 4312TIP3    H134427   5.820   2.541   3.780 -0.6921 -0.0848 -0.1311
 4312TIP3    H234428   5.905   2.554   3.656  0.0957  0.5106  0.4578
 4313TIP3   OH234429   3.220   3.585   1.236  0.6070  0.1152 -0.0871
 4313TIP3    H134430   3.272   3.575   1.316  1.3291 -0.4193 -0.6106
 4313TIP3    H234431   3.211   3.680   1.225 -2.3158  0.2831  2.3756
 4314TIP3   OH234432   1.531   0.177   5.282  0.4343 -0.2987  0.5612
 4314TIP3    H134433   1.540   0.091   5.242  0.1114 -0.4592  0.8300
 4314TIP3    H234434   1.576   0.236   5.221 -1.5662 -0.2588 -1.0036
 4315TIP3   OH234435   3.166   2.485   4.221  0.3031 -0.1886 -0.4354
 4315TIP3    H134436   3.176   2.474   4.316 -0.6804 -1.6914 -0.4807
 4315TIP3    H234437   3.255   2.504   4.190  0.4309  1.8156  0.9287
 4316TIP3   OH234438   1.008   1.974   2.160 -0.1074  0.2864  0.4408
 4316TIP3    H134439   1.032   2.067   2.151 -1.0173  0.4477 -0.5137
 4316TIP3    H234440   0.947   1.972   2.234 -1.8160  0.8390 -0.8690
 4317TIP3   OH234441   6.367   4.103  14.244 -0.4555 -0.2948 -0.6495
 4317TIP3    H134442   6.396   4.067  14.160  0.1485  0.6250 -0.8469
 4317TIP3    H234443   6.272   4.116  14.234 -0.4933 -0.8005 -0.9513
 4318TIP3   OH234444   3.537   1.729  14.057  0.0532 -0.8855  0.1644
 4318TIP3    H134445   3.497   1.643  14.064 -0.2880 -0.6744  0.9831
 4318TIP3    H234446   3.468   1.786  14.023  0.5277 -1.0894 -1.2051
 4319TIP3   OH234447   4.989   5.087  12.154 -0.6937 -0.0033  0.2539
 4319TIP3    H134448   4.919   5.097  12.219 -0.0410  0.9837  0.8148
 4319TIP3    H234449   5.062   5.139  12.187  0.6353 -1.6724  0.0925
 4320TIP3   OH234450   4.211   5.607   4.101 -0.2771  0.2826 -0.1904
 4320TIP3    H134451   4.186   5.692   4.065 -1.1855  0.3693  0.6056
 4320TIP3    H234452   4.128   5.566   4.126  0.2491 -0.1634  0.9152
 4321TIP3   OH234453   4.941   4.272   5.491  0.0623 -0.1867  0.0889
 4321TIP3    H134454   4.910   4.218   5.563  1.0044 -0.1448  0.5391
 4321TIP3    H234455   4.862   4.289   5.439 -0.3602 -1.5079  0.2409
 4322TIP3   OH234456   3.183   3.104  12.659  0.7278 -0.5536  0.2414
 4322TIP3    H134457   3.270   3.074  12.633  1.1487  0.9916 -0.1854
 4322TIP3    H234458   3.129   3.091  12.582  0.8512 -0.4456  0.1364
 4323TIP3   OH234459   1.136   6.014  11.498  0.6149  0.0552  0.0488
 4323TIP3    H134460   1.214   6.039  11.448  1.2033 -0.6647  0.6009
 4323TIP3    H234461   1.101   6.098  11.530  1.7769  0.3192  0.6975
 4324TIP3   OH234462   3.622   2.502   4.871  0.2828 -0.1620  0.3151
 4324TIP3    H134463   3.572   2.468   4.945  0.3373 -2.1836 -0.5088
 4324TIP3    H234464   3.687   2.434   4.853  0.0537  0.1040 -1.7864
 4325TIP3   OH234465   5.691   3.539  10.552  0.2937 -0.1425  0.0782
 4325TIP3    H134466   5.699   3.626  10.592 -0.9342 -0.6552  1.5378
 4325TIP3    H234467   5.616   3.500  10.595  0.8582 -1.9708 -0.5107
 4326TIP3   OH234468   3.568   3.013  14.611  0.0724  0.1442  0.5141
 4326TIP3    H134469   3.548   3.040  14.700 -0.1218 -1.2267  0.9145
 4326TIP3    H234470   3.657   2.976  14.617  0.8315  1.7383 -0.2584
 4327TIP3   OH234471   2.357   1.791   1.869 -0.0677 -0.2784 -0.0231
 4327TIP3    H134472   2.343   1.886   1.860  1.3387  0.1534  1.7258
 4327TIP3    H234473   2.423   1.770   1.804 -0.6343 -0.1461 -0.6558
 4328TIP3   OH234474   6.422   1.693   0.234 -0.3481 -0.1524 -0.1043
 4328TIP3    H134475   6.448   1.719   0.322 -0.9461  1.6466 -0.4297
 4328TIP3    H234476   6.326   1.695   0.235 -0.4092 -1.4058 -0.4530
 4329TIP3   OH234477   4.830   4.877  15.829 -0.3051  0.2537 -0.0802
 4329TIP3    H134478   4.876   4.961  15.819  0.4745 -0.1746 -0.1883
 4329TIP3    H234479   4.753   4.898  15.882  0.7197  0.7570  1.2834
 4330TIP3   OH234480   2.127   1.937   4.581 -0.3133 -0.2374 -0.0043
 4330TIP3    H134481   2.112   2.007   4.644  0.7156 -0.5380  0.5940
 4330TIP3    H234482   2.092   1.858   4.622  2.4915 -0.9068  1.3205
 4331TIP3   OH234483   4.598   5.253   4.889  0.4345 -0.0871  0.7122
 4331TIP3    H134484   4.692   5.260   4.904  0.3030 -1.2480  2.3476
 4331TIP3    H234485   4.558   5.310   4.955 -0.0236 -0.2994  0.6263
 4332TIP3   OH234486   5.208   1.202  15.006 -0.2589 -0.0756 -0.8187
 4332TIP3    H134487   5.265   1.144  14.955 -0.6646 -1.2160 -0.0284
 4332TIP3    H234488   5.152   1.244  14.941 -0.9761 -1.7256 -1.3037
 4333TIP3   OH234489   2.029   5.737   1.768 -0.1263 -0.1528  0.1692
 4333TIP3    H134490   1.981   5.694   1.839  1.2862 -0.1386  1.1781
 4333TIP3    H234491   2.016   5.831   1.784  0.1092 -0.1509  0.3476
 4334TIP3   OH234492   0.247   3.492   2.783 -0.1258  0.4079 -0.0632
 4334TIP3    H134493   0.342   3.480   2.788 -0.3083 -1.1256  0.1407
 4334TIP3    H234494   0.227   3.487   2.690 -0.1848 -1.0301  0.0017
 4335TIP3   OH234495   5.119   4.448   1.257 -1.0815 -0.2917  0.2338
 4335TIP3    H134496   5.042   4.505   1.265  0.0697  1.4589 -0.4840
 4335TIP3    H234497   5.193   4.506   1.274  0.1083 -1.8802  0.6823
 4336TIP3   OH234498   5.984   6.323   4.510  0.3612 -0.3650 -0.3608
 4336TIP3    H134499   6.057   6.367   4.466  0.6993 -1.1878 -0.6385
 4336TIP3    H234500   5.906   6.354   4.463  0.4920  0.7335  0.1138
 4337TIP3   OH234501   6.814   0.397  12.606  0.0386  0.2154 -0.2358
 4337TIP3    H134502   6.839   0.433  12.692 -1.0878  0.8608 -0.1629
 4337TIP3    H234503   6.802   0.475  12.551 -0.2375 -0.1563 -0.7048
 4338TIP3   OH234504   1.602   3.110  11.207  0.7110 -0.1388  0.0161
 4338TIP3    H134505   1.633   3.077  11.123  0.4990 -1.1156  0.3138
 4338TIP3    H234506   1.557   3.036  11.248  1.9303 -0.0917  1.5655
 4339TIP3   OH234507   3.422   4.926  13.307  0.2388 -0.1285 -0.2904
 4339TIP3    H134508   3.443   4.995  13.244 -1.2413  0.8884  0.2767
 4339TIP3    H234509   3.391   4.973  13.384 -0.9657 -1.4309  0.0578
 4340TIP3   OH234510   6.510   6.506   3.507 -0.1812 -0.0220 -0.3934
 4340TIP3    H134511   6.426   6.469   3.483 -0.7173  0.7077  0.2658
 4340TIP3    H234512   6.539   6.555   3.430 -1.1084  0.9801 -0.1343
 4341TIP3   OH234513   1.011   2.758  14.348 -0.4654  0.3034  0.1198
 4341TIP3    H134514   1.036   2.850  14.347  0.1630  0.1661 -2.3225
 4341TIP3    H234515   1.088   2.713  14.382 -0.6189  0.6191  0.9109
 4342TIP3   OH234516   5.160   2.940   3.416  0.2384 -0.0883 -0.5477
 4342TIP3    H134517   5.230   2.909   3.474 -0.3870 -1.7189 -0.5975
 4342TIP3    H234518   5.203   2.957   3.333  0.8284  0.4673 -0.1412
 4343TIP3   OH234519   5.047   0.841   1.932  0.4536 -0.6357 -0.3993
 4343TIP3    H134520   4.972   0.900   1.934 -0.2142 -1.4750  1.5602
 4343TIP3    H234521   5.123   0.898   1.942 -0.1287 -0.0139  0.6333
 4344TIP3   OH234522   3.457   5.135  13.105 -0.2036 -0.2341  0.4099
 4344TIP3    H134523   3.505   5.194  13.162  0.3984  1.3104 -1.5768
 4344TIP3    H234524   3.476   5.166  13.017 -2.8637 -1.1081 -0.5764
 4345TIP3   OH234525   0.612   2.286  11.107  0.1870  0.2429 -0.4329
 4345TIP3    H134526   0.520   2.294  11.083 -0.1578 -0.7369  0.4871
 4345TIP3    H234527   0.659   2.326  11.034 -1.0088  2.3457 -0.1269
 4346TIP3   OH234528   6.355   0.896   4.175 -0.2184 -0.3800  0.2331
 4346TIP3    H134529   6.387   0.806   4.179  1.0828  0.0888  0.8691
 4346TIP3    H234530   6.404   0.936   4.103 -0.2074  0.0359  0.4669
 4347TIP3   OH234531   1.540   2.843  15.132 -0.6265 -0.1848  0.0697
 4347TIP3    H134532   1.585   2.852  15.048 -0.6061  1.6846  0.2234
 4347TIP3    H234533   1.611   2.835  15.196 -0.6538 -2.4176 -0.1243
 4348TIP3   OH234534   3.671   0.222  16.421 -0.8486 -0.0112 -0.0345
 4348TIP3    H134535   3.679   0.302  16.473 -1.2756 -0.9923  1.6086
 4348TIP3    H234536   3.690   0.151  16.483  2.8978 -1.1465 -2.1528
 4349TIP3   OH234537   1.495   4.121   2.025  0.1086 -0.0542  0.3280
 4349TIP3    H134538   1.522   4.128   1.934 -0.0857  1.0342  0.3410
 4349TIP3    H234539   1.459   4.033   2.033  0.4545 -0.2845 -0.5495
 4350TIP3   OH234540   0.036   5.042   5.508  0.2891 -0.3964  0.5612
 4350TIP3    H134541   0.084   5.067   5.429 -1.5375 -1.4173 -0.9480
 4350TIP3    H234542   0.005   5.125   5.544 -0.7453 -0.0112 -1.0979
 4351TIP3   OH234543   3.526   5.247  13.365 -0.2371 -0.1966  0.1696
 4351TIP3    H134544   3.564   5.320  13.414 -0.4823 -0.1667  0.3190
 4351TIP3    H234545   3.600   5.191  13.343 -0.0114  0.2446 -0.1954
 4352TIP3   OH234546   0.720   1.840   3.376  0.1571 -0.0822 -0.5221
 4352TIP3    H134547   0.747   1.903   3.444 -1.9345 -0.2710  0.5537
 4352TIP3    H234548   0.692   1.895   3.303  1.1346  0.1407 -0.7529
 4353TIP3   OH234549   5.498   4.134   6.219 -0.0792  0.2040  0.2367
 4353TIP3    H134550   5.554   4.111   6.144 -0.6732 -0.2126 -0.0837
 4353TIP3    H234551   5.410   4.140   6.182 -0.0693  2.3472  0.4285
 4354TIP3   OH234552   2.071   2.133  10.928  0.1997  0.4994  0.4231
 4354TIP3    H134553   1.998   2.153  10.986 -0.4008 -2.1619  0.6858
 4354TIP3    H234554   2.035   2.142  10.840 -0.1004  0.3665  0.5316
 4355TIP3   OH234555   0.856   2.095   2.334  0.1618 -0.1353 -0.0100
 4355TIP3    H134556   0.828   2.171   2.284 -0.1195  0.4305  0.9843
 4355TIP3    H234557   0.826   2.112   2.423  2.0222 -0.3768  0.7109
 4356TIP3   OH234558   0.638   0.700   1.231  0.7173 -0.1293  0.3318
 4356TIP3    H134559   0.705   0.665   1.290  0.8248 -0.0455  0.2604
 4356TIP3    H234560   0.591   0.623   1.200  0.1329 -0.1145  1.1633
 4357TIP3   OH234561   2.875   4.995   5.562  0.0618 -0.3272  0.5073
 4357TIP3    H134562   2.970   5.006   5.557 -0.1403  1.2254 -0.9104
 4357TIP3    H234563   2.854   4.935   5.491 -0.0147 -0.9726  1.0568
 4358TIP3   OH234564   6.058   6.122   1.407  0.2030  0.3381  0.2203
 4358TIP3    H134565   6.112   6.058   1.359 -1.8515 -0.2088 -1.5002
 4358TIP3    H234566   6.109   6.141   1.486  2.3366 -1.0380 -0.7238
 4359TIP3   OH234567   5.400   5.929  13.712 -0.5347 -0.1754  0.5096
 4359TIP3    H134568   5.407   6.014  13.755  1.5080  0.7832 -1.5001
 4359TIP3    H234569   5.357   5.947  13.629  1.0342 -0.8108 -0.4941
 4360TIP3   OH234570   5.189   1.206  15.422 -0.1589 -0.8044  0.0369
 4360TIP3    H134571   5.234   1.121  15.422  3.7740  1.0398  0.6390
 4360TIP3    H234572   5.247   1.264  15.372 -1.0077  2.2640  2.3236
 4361TIP3   OH234573   4.836   3.179  15.186  0.4987  0.9215  0.5543
 4361TIP3    H134574   4.862   3.189  15.277  0.6043  0.3344  0.5940
 4361TIP3    H234575   4.852   3.087  15.166  2.2908  1.4389 -0.6141
 4362TIP3   OH234576   0.403   2.179  12.045 -0.0631 -0.0891 -0.1660
 4362TIP3    H134577   0.414   2.132  11.962  1.4212 -1.7796  0.9118
 4362TIP3    H234578   0.490   2.214  12.064 -0.7714  1.7983 -0.1199
 4363TIP3   OH234579   5.325   1.226  14.022 -0.1039 -0.3955  0.3276
 4363TIP3    H134580   5.385   1.152  14.027  1.7834  0.9568 -0.6482
 4363TIP3    H234581   5.315   1.255  14.112 -0.5098 -1.5386  0.6689
 4364TIP3   OH234582   0.824   6.670  15.364  0.3036  0.0564 -0.2218
 4364TIP3    H134583   0.737   6.708  15.380 -0.1711 -0.7522 -0.8327
 4364TIP3    H234584   0.865   6.668  15.451 -0.4538  0.0381  0.1439
 4365TIP3   OH234585   4.836   3.349  12.231  0.2916  0.3690 -0.4254
 4365TIP3    H134586   4.770   3.418  12.223 -2.9294 -2.4490 -0.9067
 4365TIP3    H234587   4.861   3.330  12.140  1.1297  0.8598 -0.3000
 4366TIP3   OH234588   3.232   3.815   1.787 -0.3778  0.7874  0.0532
 4366TIP3    H134589   3.304   3.758   1.765  0.9100  2.7383 -1.0819
 4366TIP3    H234590   3.156   3.758   1.792  0.9640 -1.0949 -0.2212
 4367TIP3   OH234591   0.663   3.140  12.798 -0.2941 -0.4412  0.2572
 4367TIP3    H134592   0.637   3.230  12.777  0.6190 -0.4538 -1.0420
 4367TIP3    H234593   0.583   3.100  12.831 -1.4992  0.0582 -1.8064
 4368TIP3   OH234594   5.588   6.434  16.940  0.1542  0.1507  1.3599
 4368TIP3    H134595   5.544   6.349  16.936 -0.1290  0.3421  0.3242
 4368TIP3    H234596   5.634   6.432  17.024 -1.0990 -0.4086  2.0642
 4369TIP3   OH234597   4.671   2.136  10.225  0.1015 -0.4849 -0.4665
 4369TIP3    H134598   4.733   2.185  10.170  0.3175 -0.8845 -0.5840
 4369TIP3    H234599   4.603   2.199  10.246  1.7442  0.7151  1.7063
 4370TIP3   OH234600   6.847   4.116  12.913  0.0491  0.0807 -0.1229
 4370TIP3    H134601   6.918   4.143  12.971  0.1025  0.1395 -0.2150
 4370TIP3    H234602   6.883   4.045  12.861 -0.4239 -0.9302  0.8685
 4371TIP3   OH234603   5.914   1.901   0.140 -0.4761  0.0647  0.0234
 4371TIP3    H134604   5.871   1.824   0.179  2.8844 -2.1281 -0.2281
 4371TIP3    H234605   5.945   1.870   0.055  0.4193  1.9199 -0.3633
 4372TIP3   OH234606   1.901   6.768   4.813 -0.0821  0.3037  0.2817
 4372TIP3    H134607   1.893   6.863   4.805  0.5951  0.3530  0.1981
 4372TIP3    H234608   1.914   6.753   4.907  1.8574  0.4543  0.0629
 4373TIP3   OH234609   1.912   4.318   0.925  0.4618 -0.1644  0.3786
 4373TIP3    H134610   1.935   4.268   0.847 -0.7864  0.1599 -0.2236
 4373TIP3    H234611   1.817   4.308   0.933  0.2024  1.8391  0.3932
 4374TIP3   OH234612   5.608   0.020  12.853 -0.4058  0.1005 -0.3359
 4374TIP3    H134613   5.569  -0.044  12.912  0.0730  1.3662  1.4182
 4374TIP3    H234614   5.588   0.105  12.892 -0.1399  0.9977 -2.0528
 4375TIP3   OH234615   4.967   1.183  13.999 -0.0185  0.2578 -0.4304
 4375TIP3    H134616   4.879   1.176  14.037  0.2913 -0.6695  0.1582
 4375TIP3    H234617   4.954   1.167  13.905 -0.2207 -2.3000 -0.0395
 4376TIP3   OH234618   0.605   2.327  15.006  0.4249 -0.2038 -0.2422
 4376TIP3    H134619   0.661   2.335  15.083 -0.3867  0.7201  0.2779
 4376TIP3    H234620   0.631   2.399  14.949  1.7059 -1.4590 -1.3296
 4377TIP3   OH234621   3.886   6.755  14.558 -0.2943  0.2849 -0.0218
 4377TIP3    H134622   3.847   6.810  14.490  0.9888  0.0386 -0.9778
 4377TIP3    H234623   3.876   6.666  14.525  1.8186  0.2678 -0.7117
 4378TIP3   OH234624   1.546   6.691  13.876  0.1547 -0.0551  0.5106
 4378TIP3    H134625   1.452   6.697  13.891  0.1549 -1.2322  1.1390
 4378TIP3    H234626   1.554   6.641  13.794  0.2277  0.2714  0.3185
 4379TIP3   OH234627   0.448   0.797   0.700 -0.0037  0.2970  0.5562
 4379TIP3    H134628   0.425   0.869   0.641 -0.4489 -1.1320 -1.0918
 4379TIP3    H234629   0.381   0.800   0.768 -1.0699  0.3945 -0.4562
 4380TIP3   OH234630   6.382   4.648   0.706 -0.0404 -0.3170 -0.3932
 4380TIP3    H134631   6.355   4.577   0.648  0.1634 -0.6753 -0.0533
 4380TIP3    H234632   6.337   4.725   0.672  1.4498 -0.1572 -2.1064
 4381TIP3   OH234633   0.436   6.518  11.756  0.0183  0.5088  0.2930
 4381TIP3    H134634   0.371   6.448  11.768  0.8343  0.1256  3.4500
 4381TIP3    H234635   0.390   6.598  11.784  0.1424  0.6459  0.0991
 4382TIP3   OH234636   2.516   4.471   2.359 -1.2318  0.0993 -0.1321
 4382TIP3    H134637   2.473   4.390   2.331 -1.6359  0.3547 -0.2627
 4382TIP3    H234638   2.449   4.516   2.411 -0.2530 -0.7431  1.9888
 4383TIP3   OH234639   2.720   0.087   4.350 -0.1311  0.5073 -0.2288
 4383TIP3    H134640   2.659   0.154   4.320  0.6249  0.4898 -1.8889
 4383TIP3    H234641   2.668   0.006   4.350 -0.2387  0.5727 -1.1485
 4384TIP3   OH234642   0.565   2.466  12.971 -0.0165  0.2457 -0.5532
 4384TIP3    H134643   0.559   2.478  13.065  0.9309  0.2102 -0.4804
 4384TIP3    H234644   0.605   2.547  12.938  0.7997 -0.2361 -0.7710
 4385TIP3   OH234645   1.507   6.157   3.616  0.4916  0.9962  0.7231
 4385TIP3    H134646   1.436   6.207   3.575 -0.8220 -2.0481 -1.0322
 4385TIP3    H234647   1.582   6.171   3.558  0.1120  0.8701  0.1888
 4386TIP3   OH234648   4.556   4.701  12.499 -0.5103 -0.3548  0.3634
 4386TIP3    H134649   4.501   4.646  12.444  0.7573 -0.5144 -0.7910
 4386TIP3    H234650   4.635   4.650  12.513 -0.1652  0.3376  1.0206
 4387TIP3   OH234651   3.607   0.523  14.252  0.4922 -0.2535 -0.1692
 4387TIP3    H134652   3.515   0.539  14.230 -0.0779 -1.8690  0.8682
 4387TIP3    H234653   3.643   0.481  14.174  0.1980 -0.1772 -0.3512
 4388TIP3   OH234654   1.229   0.071  13.380 -0.2865 -0.7056 -0.2720
 4388TIP3    H134655   1.242   0.090  13.287 -0.7655 -0.2874 -0.2582
 4388TIP3    H234656   1.264   0.148  13.425 -0.9171 -0.4913 -0.1482
 4389TIP3   OH234657   6.113   5.745  15.848  0.5030 -0.2026 -0.1983
 4389TIP3    H134658   6.049   5.759  15.919  0.2223 -0.2538 -0.4376
 4389TIP3    H234659   6.090   5.811  15.783 -0.4524 -1.3671 -1.0833
 4390TIP3   OH234660   3.344   3.323  14.702  0.6070 -0.3298 -0.6971
 4390TIP3    H134661   3.299   3.250  14.659  2.2312 -1.4425 -0.5866
 4390TIP3    H234662   3.368   3.382  14.630 -1.8783  0.8523 -0.6699
 4391TIP3   OH234663   5.153   5.258   6.078 -0.8797  0.2885 -0.6236
 4391TIP3    H134664   5.236   5.214   6.099 -2.4014 -1.5214  2.4095
 4391TIP3    H234665   5.117   5.207   6.005 -0.6964 -0.9850  0.1270
 4392TIP3   OH234666   2.237   4.401   1.327 -0.2577  0.4196  0.7900
 4392TIP3    H134667   2.214   4.316   1.362 -0.2800  0.2273  0.3197
 4392TIP3    H234668   2.316   4.427   1.375  1.6276 -1.2782 -1.1725
 4393TIP3   OH234669   3.709   1.676   3.248  0.7634 -0.5011 -0.2689
 4393TIP3    H134670   3.753   1.604   3.293  1.7755  0.2722 -0.0091
 4393TIP3    H234671   3.623   1.682   3.291  1.2286 -0.5983  0.6893
 4394TIP3   OH234672   3.753   0.999  13.396  0.1872 -0.0948 -0.3670
 4394TIP3    H134673   3.682   1.063  13.396 -0.4286 -0.7743 -0.6585
 4394TIP3    H234674   3.813   1.031  13.464 -0.2087  0.6796 -0.3696
 4395TIP3   OH234675   0.946   5.631   6.236  0.1308  0.3240 -0.2189
 4395TIP3    H134676   0.976   5.545   6.206 -0.7859  0.1808 -0.7483
 4395TIP3    H234677   0.867   5.612   6.287  0.1673  0.8230  0.0262
 4396TIP3   OH234678   2.320   3.914  10.441  0.6489 -0.2748 -0.3267
 4396TIP3    H134679   2.330   3.830  10.486  1.8433 -0.0945 -0.2202
 4396TIP3    H234680   2.234   3.910  10.400  1.2498 -2.1342 -1.5168
 4397TIP3   OH234681   4.434   5.953   0.564  0.3763 -0.0477  0.4463
 4397TIP3    H134682   4.406   5.969   0.654 -0.5494 -1.1564  0.3734
 4397TIP3    H234683   4.399   5.867   0.542  2.6199 -0.8477 -0.1910
 4398TIP3   OH234684   0.918   2.309  11.111  0.7020  0.2164  0.4185
 4398TIP3    H134685   0.924   2.215  11.093  3.3246  0.1252  1.3543
 4398TIP3    H234686   0.868   2.345  11.038  2.1965 -1.5048 -1.5437
 4399TIP3   OH234687   3.843   5.349  14.135  0.2583  0.2824  0.0757
 4399TIP3    H134688   3.911   5.357  14.201 -0.8407  1.5594  1.1156
 4399TIP3    H234689   3.777   5.292  14.175 -0.4545  1.1333  0.1594
 4400TIP3   OH234690   3.949   4.909   5.609 -0.4234  0.7152  0.7544
 4400TIP3    H134691   3.999   4.966   5.667 -0.1646  1.4137 -0.1391
 4400TIP3    H234692   3.893   4.858   5.668  0.7830  0.4615  1.7094
 4401TIP3   OH234693   5.429   5.227   4.147  0.1481 -0.1170  0.0760
 4401TIP3    H134694   5.461   5.313   4.120 -2.1407  0.5756 -0.6509
 4401TIP3    H234695   5.346   5.216   4.100 -1.5685 -1.0442  3.0502
 4402TIP3   OH234696   4.947   5.924   2.010  0.7014  0.2763 -0.0613
 4402TIP3    H134697   4.857   5.913   1.980  0.7710  2.5211 -1.3570
 4402TIP3    H234698   4.996   5.855   1.965 -0.1129  0.0848 -0.6830
 4403TIP3   OH234699   2.431   5.119   3.056 -0.1863  1.0829 -0.1244
 4403TIP3    H134700   2.520   5.129   3.090  0.2748 -2.2180  0.0070
 4403TIP3    H234701   2.377   5.103   3.134 -0.7360  2.0643 -0.2893
 4404TIP3   OH234702   1.024   0.911   5.131  0.0628 -0.4675  0.4543
 4404TIP3    H134703   1.113   0.889   5.103 -0.1328 -1.1490  0.3335
 4404TIP3    H234704   1.033   0.993   5.180  0.8340 -0.8067  0.9010
 4405TIP3   OH234705   6.439   1.170   1.183  0.1512 -0.1971  0.5528
 4405TIP3    H134706   6.381   1.100   1.153 -0.9168  0.2783  1.4310
 4405TIP3    H234707   6.527   1.139   1.162 -0.4558  0.3071 -3.4574
 4406TIP3   OH234708   2.942   0.380  15.022  0.2198 -0.2124 -0.4239
 4406TIP3    H134709   2.852   0.403  14.996  0.2053 -0.0931 -0.2699
 4406TIP3    H234710   2.931   0.326  15.100  0.3342  0.8126  0.3048
 4407TIP3   OH234711   3.773   5.413  13.862 -0.6239  0.4349 -0.2371
 4407TIP3    H134712   3.687   5.452  13.845  0.0773  1.5772 -1.3542
 4407TIP3    H234713   3.773   5.396  13.956 -1.8513  0.9510 -0.1182
 4408TIP3   OH234714   0.008   5.262   2.748 -0.3196 -0.2452  0.4663
 4408TIP3    H134715  -0.068   5.308   2.714 -2.9016 -2.3772  2.8871
 4408TIP3    H234716   0.039   5.316   2.821  0.2545  0.4220 -0.2643
 4409TIP3   OH234717   2.748   2.137  11.645  0.3109  0.2682  0.1712
 4409TIP3    H134718   2.653   2.125  11.644  0.2001  0.6872 -2.3476
 4409TIP3    H234719   2.765   2.197  11.718 -1.4998  1.0930 -0.0323
 4410TIP3   OH234720   6.781   5.724   1.686  0.2945  0.0205  0.0078
 4410TIP3    H134721   6.759   5.639   1.649  0.9488  0.2133 -0.8858
 4410TIP3    H234722   6.850   5.758   1.627  0.2048  1.0551  0.4778
 4411TIP3   OH234723   3.682   6.652   1.884 -0.2029  0.0847  0.4318
 4411TIP3    H134724   3.615   6.717   1.865 -0.5988 -0.6002 -0.6471
 4411TIP3    H234725   3.692   6.654   1.979  0.7996  2.6644  0.3385
 4412TIP3   OH234726   2.767   5.257  16.883 -0.2246  0.3925  0.1287
 4412TIP3    H134727   2.833   5.298  16.937  1.6053 -0.7128 -1.1521
 4412TIP3    H234728   2.718   5.330  16.844 -0.9933  1.1977  2.4777
 4413TIP3   OH234729   5.291   6.357  16.791 -0.3430  0.9375 -0.6132
 4413TIP3    H134730   5.202   6.343  16.823  0.4135  0.0069  1.2278
 4413TIP3    H234731   5.311   6.448  16.816 -0.4121  0.8065 -0.0621
 4414TIP3   OH234732   6.274   2.881   1.860 -0.0337  0.5773 -0.0321
 4414TIP3    H134733   6.244   2.812   1.919  0.8491  0.2337  0.0240
 4414TIP3    H234734   6.224   2.867   1.780  0.7418 -0.6662 -0.3179
 4415TIP3   OH234735   0.403   1.496   3.692 -0.4649 -0.2253  0.0066
 4415TIP3    H134736   0.480   1.462   3.738 -0.3602 -0.2031 -0.1538
 4415TIP3    H234737   0.363   1.420   3.652 -0.8072 -0.3109  0.5072
 4416TIP3   OH234738   4.168   3.937  14.009 -0.0320 -0.0484 -0.6164
 4416TIP3    H134739   4.195   4.024  13.979  0.1667  0.3714  0.7060
 4416TIP3    H234740   4.094   3.954  14.067  0.1292 -0.7428 -0.1929
 4417TIP3   OH234741   3.659   1.672  11.201 -0.0291  0.2394  0.2278
 4417TIP3    H134742   3.713   1.751  11.208  0.8488 -0.4041  0.9341
 4417TIP3    H234743   3.569   1.702  11.214  0.2301  1.2109 -0.1597
 4418TIP3   OH234744   5.109   0.010  16.634  0.5301 -0.2728 -0.2676
 4418TIP3    H134745   5.087   0.063  16.710  1.5042  0.8912 -0.7535
 4418TIP3    H234746   5.027  -0.033  16.609  0.3182 -1.0926  1.7185
 4419TIP3   OH234747   0.544   0.697  14.877 -0.5372 -0.1779 -0.3632
 4419TIP3    H134748   0.535   0.689  14.782 -1.2842 -1.6229 -0.2004
 4419TIP3    H234749   0.628   0.741  14.889  0.4523 -1.5594 -1.6879
 4420TIP3   OH234750   0.555   1.248   6.229 -0.5265 -0.3988 -0.7286
 4420TIP3    H134751   0.482   1.270   6.286  1.2371  1.9710  0.8592
 4420TIP3    H234752   0.516   1.202   6.155 -3.0857 -2.6390  1.8008
 4421TIP3   OH234753   5.595   4.779  16.319  0.3482 -0.0119  0.3252
 4421TIP3    H134754   5.617   4.858  16.269  3.5291  0.3121  2.0276
 4421TIP3    H234755   5.519   4.742  16.272  0.4557  2.5341 -2.1309
 4422TIP3   OH234756   6.527   5.192  14.801  0.3168 -0.2096  0.7467
 4422TIP3    H134757   6.464   5.195  14.873 -1.0328 -1.3775 -0.3295
 4422TIP3    H234758   6.598   5.137  14.834 -0.5575 -1.2141  1.0012
 4423TIP3   OH234759   3.233   2.106  13.864 -0.1895 -0.0282  0.1181
 4423TIP3    H134760   3.241   2.097  13.769  2.3112  1.8403  0.0341
 4423TIP3    H234761   3.148   2.147  13.877  0.6084  2.4909 -1.6758
 4424TIP3   OH234762   5.813   1.422   0.026  0.8164  0.0250 -0.5511
 4424TIP3    H134763   5.812   1.332  -0.007 -1.6836  0.5810 -2.3462
 4424TIP3    H234764   5.743   1.424   0.091  3.1275 -0.0643  2.1227
 4425TIP3   OH234765   2.460   0.472   4.771  0.2454  0.0858 -0.3664
 4425TIP3    H134766   2.477   0.549   4.718 -0.7881  1.0414  0.6318
 4425TIP3    H234767   2.541   0.460   4.822  0.8584 -0.2382 -1.3854
 4426TIP3   OH234768   0.426   4.160   5.053 -0.2220 -0.1814 -0.0746
 4426TIP3    H134769   0.405   4.203   4.970  1.2124  2.7821  0.9486
 4426TIP3    H234770   0.518   4.136   5.045  0.8710  2.9016  1.5701
 4427TIP3   OH234771   6.116   1.975  11.819 -0.0871  0.0358  0.4396
 4427TIP3    H134772   6.076   2.055  11.785 -1.2033  0.2692  2.1656
 4427TIP3    H234773   6.100   1.978  11.913 -1.2384 -2.7725  0.4413
 4428TIP3   OH234774   6.082   0.801  17.010 -0.3552  0.2658 -0.0507
 4428TIP3    H134775   6.157   0.777  17.064 -0.1840 -0.7908 -0.7197
 4428TIP3    H234776   6.114   0.791  16.920 -1.3795 -0.5265 -0.3459
 4429TIP3   OH234777   2.639   1.680   2.067  0.1426  0.2290  0.0124
 4429TIP3    H134778   2.728   1.648   2.077  1.4502  2.9378 -1.8671
 4429TIP3    H234779   2.603   1.632   1.993  0.2340 -0.4577  0.4117
 4430TIP3   OH234780   6.766   2.669  11.071  0.3757 -0.0262  0.0592
 4430TIP3    H134781   6.793   2.739  11.012  1.7608 -0.1981  0.4616
 4430TIP3    H234782   6.690   2.706  11.118 -1.0640 -0.0680 -2.1028
 4431TIP3   OH234783   1.614   4.629   5.658  0.0324  0.2097 -0.0629
 4431TIP3    H134784   1.675   4.665   5.722 -0.4957  2.2786 -0.6550
 4431TIP3    H234785   1.648   4.658   5.573 -0.9641  0.1673 -0.4942
 4432TIP3   OH234786   5.791   2.403  12.305 -0.4640  0.3306  0.2069
 4432TIP3    H134787   5.735   2.371  12.234 -0.8174 -0.0018  0.6292
 4432TIP3    H234788   5.742   2.384  12.385  0.9930 -1.5515  0.7189
 4433TIP3   OH234789   1.045   4.275   1.739  0.3962  0.0540 -0.1011
 4433TIP3    H134790   1.037   4.229   1.656  1.9978 -0.5807  0.0641
 4433TIP3    H234791   1.139   4.278   1.757  0.1621  1.1354  1.1634
 4434TIP3   OH234792   4.792   2.377  12.438  0.2697 -0.0801 -0.2834
 4434TIP3    H134793   4.810   2.347  12.528  0.0731  0.5255 -0.0363
 4434TIP3    H234794   4.701   2.352  12.422 -0.3731  1.6401  0.4626
 4435TIP3   OH234795   4.920   6.632  15.113 -0.1451 -0.2269  0.3414
 4435TIP3    H134796   4.953   6.545  15.091 -0.6358 -0.3174 -0.0739
 4435TIP3    H234797   4.861   6.617  15.187 -1.1206 -0.4369 -0.4451
 4436TIP3   OH234798   1.249   2.853   0.442  0.4841  0.4272 -0.1321
 4436TIP3    H134799   1.157   2.852   0.417  0.5106 -0.2433 -0.2095
 4436TIP3    H234800   1.249   2.839   0.537  0.5609 -1.0994 -0.3312
 4437TIP3   OH234801   4.381   3.751   4.967 -0.1005 -0.6711  0.4427
 4437TIP3    H134802   4.420   3.707   4.891 -1.2252 -0.8243 -0.0745
 4437TIP3    H234803   4.454   3.797   5.008  0.5578 -0.6640 -0.6775
 4438TIP3   OH234804   3.164   3.486   5.293  0.3109 -0.3310  0.3829
 4438TIP3    H134805   3.120   3.549   5.351 -0.0962 -0.0216 -0.2495
 4438TIP3    H234806   3.093   3.429   5.263  0.8438 -1.8727  1.8880
 4439TIP3   OH234807   3.866   0.061  15.201  0.2273 -0.7382 -0.3029
 4439TIP3    H134808   3.811   0.047  15.124  0.3925 -1.1014 -0.3552
 4439TIP3    H234809   3.878  -0.026  15.239 -1.2858 -0.3669  1.1310
 4440TIP3   OH234810   4.888   5.905   2.341  0.2540  0.1023  0.4435
 4440TIP3    H134811   4.799   5.870   2.351  1.0750 -2.0152  0.9087
 4440TIP3    H234812   4.917   5.872   2.256  0.3140  1.5044 -0.0994
 4441TIP3   OH234813   0.837   6.014  14.428 -0.4604  0.2014 -0.2709
 4441TIP3    H134814   0.809   6.032  14.517 -1.9242 -1.2242 -0.3975
 4441TIP3    H234815   0.836   6.099  14.384 -0.0478  0.8604  0.9541
 4442TIP3   OH234816   3.868   5.443  14.507  0.6115 -0.2894 -0.5863
 4442TIP3    H134817   3.800   5.465  14.571  1.4179 -0.3614  0.3087
 4442TIP3    H234818   3.866   5.516  14.444  0.4475  0.2532  0.0425
 4443TIP3   OH234819   1.749   1.733   2.651  0.1339  0.6025 -0.4210
 4443TIP3    H134820   1.821   1.765   2.598  0.7335 -0.3868 -0.2293
 4443TIP3    H234821   1.775   1.751   2.741 -0.4114  1.3290 -0.3960
 4444TIP3   OH234822   1.513   5.884   2.210  0.4578 -0.2718 -0.0792
 4444TIP3    H134823   1.594   5.862   2.164  0.1399 -0.3559 -0.6044
 4444TIP3    H234824   1.495   5.975   2.185  0.5771 -0.1365  0.3190
 4445TIP3   OH234825   6.613   2.476  13.948  0.7523 -0.7990  1.2968
 4445TIP3    H134826   6.690   2.433  13.913  0.3359  0.6534 -1.7678
 4445TIP3    H234827   6.543   2.412  13.938  0.7460 -0.5927 -0.2108
 4446TIP3   OH234828   5.466   6.253   4.438 -0.2894  0.2155  0.2057
 4446TIP3    H134829   5.439   6.302   4.361 -0.4442 -1.2214 -0.6891
 4446TIP3    H234830   5.516   6.179   4.404 -1.6194 -1.2985  1.3454
 4447TIP3   OH234831   1.223   6.454   3.876 -0.0728  0.5724  1.0114
 4447TIP3    H134832   1.276   6.530   3.852 -0.2969  0.0746 -1.3136
 4447TIP3    H234833   1.253   6.384   3.817 -1.1198 -0.6276  1.8431
 4448TIP3   OH234834   3.443   2.842  12.176  0.2156  0.3531  0.3488
 4448TIP3    H134835   3.428   2.791  12.097  1.9912  0.2555  0.0211
 4448TIP3    H234836   3.359   2.842  12.221 -0.4520 -0.8289 -0.8170
 4449TIP3   OH234837   4.571   0.840  16.500  0.5332  0.2552  0.0945
 4449TIP3    H134838   4.630   0.768  16.477  1.3997  0.6409  1.0341
 4449TIP3    H234839   4.492   0.823  16.449  0.4407 -1.7419  0.7996
 4450TIP3   OH234840   4.690   0.805   5.517 -0.0827 -0.1988 -0.5716
 4450TIP3    H134841   4.703   0.711   5.517  0.4629 -0.1943  1.9249
 4450TIP3    H234842   4.622   0.820   5.583 -2.9223  0.9413 -3.4511
 4451TIP3   OH234843   2.363   0.687   1.601 -0.1051  0.2118 -0.4368
 4451TIP3    H134844   2.313   0.630   1.543 -0.5269  0.7013 -0.5649
 4451TIP3    H234845   2.321   0.773   1.592  1.0414  0.7505 -0.9084
 4452TIP3   OH234846   2.864   3.070   4.632 -0.5964 -0.4695  0.3334
 4452TIP3    H134847   2.958   3.063   4.648 -0.5974  0.6727  0.8920
 4452TIP3    H234848   2.847   3.163   4.620 -1.3713 -0.8110 -1.7536
 4453TIP3   OH234849   5.171   5.003   4.938 -0.3565 -0.1860 -0.1189
 4453TIP3    H134850   5.147   4.911   4.927  0.1266 -0.5506  1.5189
 4453TIP3    H234851   5.243   5.002   5.002 -0.4918  1.3319  0.1059
 4454TIP3   OH234852   3.164   6.618   2.423  0.0268  0.2751 -0.6046
 4454TIP3    H134853   3.116   6.698   2.404 -0.3979 -0.1710 -1.4628
 4454TIP3    H234854   3.096   6.552   2.440  0.3573 -0.0521 -0.5271
 4455TIP3   OH234855   3.489   2.334   3.796 -0.2462  0.1348  0.7481
 4455TIP3    H134856   3.473   2.242   3.816 -0.9654 -0.1155 -0.7837
 4455TIP3    H234857   3.512   2.374   3.880  1.5668 -1.7354  1.2232
 4456TIP3   OH234858   4.524   5.941  13.655  0.0659  0.6364 -0.1938
 4456TIP3    H134859   4.483   5.945  13.741 -2.9144 -0.5485 -1.4570
 4456TIP3    H234860   4.536   6.033  13.631 -1.2487  1.0250  0.5209
 4457TIP3   OH234861   2.069   1.200   4.673  0.3461 -0.2493 -0.7512
 4457TIP3    H134862   2.035   1.223   4.760  1.5885 -0.4992 -0.1686
 4457TIP3    H234863   2.161   1.178   4.689  0.7730  0.3349 -2.2371
 4458TIP3   OH234864   5.378   6.146  15.253 -0.5166 -0.0070  0.2861
 4458TIP3    H134865   5.301   6.204  15.254 -0.9317 -0.4897 -1.0184
 4458TIP3    H234866   5.434   6.179  15.323 -2.3241 -0.2119  1.9233
 4459TIP3   OH234867   5.351   1.872   3.811  0.3493 -0.5960 -0.0296
 4459TIP3    H134868   5.429   1.817   3.824  0.5793 -0.1538  0.5181
 4459TIP3    H234869   5.364   1.947   3.870  0.1379  0.1519 -0.9077
 4460TIP3   OH234870   5.230   0.857  15.196 -0.6061 -0.0670 -0.6292
 4460TIP3    H134871   5.229   0.919  15.269 -1.0299 -1.1909  0.3501
 4460TIP3    H234872   5.300   0.795  15.218 -1.1133 -0.7422 -0.8786
 4461TIP3   OH234873   0.579   6.389  12.438 -0.2629  0.3253 -0.7032
 4461TIP3    H134874   0.487   6.399  12.462 -0.7884 -2.1050 -1.4242
 4461TIP3    H234875   0.623   6.368  12.521 -0.6105  0.1166 -0.5684
 4462TIP3   OH234876   4.059   6.744   1.211  0.3209 -0.3937  0.2798
 4462TIP3    H134877   4.148   6.773   1.231  0.6797  0.1372 -1.8005
 4462TIP3    H234878   4.005   6.784   1.279  1.6585 -0.8422  1.6636
 4463TIP3   OH234879   5.611   0.411  13.473 -0.5506  0.4229  0.7537
 4463TIP3    H134880   5.703   0.407  13.497 -0.5830 -2.0104  0.6577
 4463TIP3    H234881   5.567   0.445  13.552  0.1595 -0.7074  1.6599
 4464TIP3   OH234882   2.895   1.932  15.168 -0.6573  0.2688  0.3037
 4464TIP3    H134883   2.854   1.866  15.112  0.6688 -1.1580  0.9477
 4464TIP3    H234884   2.853   2.014  15.142 -1.3642 -0.5968 -1.4955
 4465TIP3   OH234885   3.084   1.992   2.683 -0.0503  0.3337 -0.7627
 4465TIP3    H134886   3.133   2.044   2.746  0.5500  0.1415 -1.0683
 4465TIP3    H234887   3.031   2.055   2.635 -3.0995  0.2576  2.0867
 4466TIP3   OH234888   2.443   1.619   2.632 -0.6633  0.1518 -0.3312
 4466TIP3    H134889   2.371   1.560   2.610 -1.7502  0.7081  1.5269
 4466TIP3    H234890   2.407   1.677   2.699  1.6448  0.1792  0.9802
 4467TIP3   OH234891   2.667   1.143   4.509 -0.3571 -0.5300 -0.2358
 4467TIP3    H134892   2.688   1.123   4.418  1.8421  1.5681 -0.3105
 4467TIP3    H234893   2.621   1.227   4.505  0.1945 -0.1694  0.5598
 4468TIP3   OH234894   0.532   3.527  15.069  0.6100  0.0856  0.4881
 4468TIP3    H134895   0.573   3.583  15.002  0.7316 -0.1484  0.3650
 4468TIP3    H234896   0.535   3.439  15.031 -0.3572  0.1196  0.3076
 4469TIP3   OH234897   2.360   0.365  15.167 -0.3851  0.4179 -0.1007
 4469TIP3    H134898   2.448   0.365  15.129 -0.4210 -0.8934 -0.2280
 4469TIP3    H234899   2.347   0.275  15.198 -1.7165  0.5589 -0.1887
 4470TIP3   OH234900   3.219   4.381   5.022 -0.0016 -0.8733  0.1726
 4470TIP3    H134901   3.313   4.369   5.038  0.0705 -0.3436  0.1572
 4470TIP3    H234902   3.189   4.438   5.093  0.1929  0.9614 -1.1461
 4471TIP3   OH234903   2.255   4.997  14.084 -0.3612 -0.0568  0.3003
 4471TIP3    H134904   2.250   5.053  14.007  4.1798 -1.9674 -1.7281
 4471TIP3    H234905   2.208   4.917  14.059  0.8305 -0.5484 -0.4152
 4472TIP3   OH234906   6.171   4.448   0.175 -0.0531 -0.3091  0.1467
 4472TIP3    H134907   6.178   4.374   0.235 -0.3151 -0.2852  0.2084
 4472TIP3    H234908   6.093   4.495   0.204  0.5913  0.4791  0.6480
 4473TIP3   OH234909   3.070   4.892   4.268  0.1630  0.3640  0.4572
 4473TIP3    H134910   3.114   4.822   4.317 -0.2583  0.3719  0.8524
 4473TIP3    H234911   3.051   4.853   4.182  1.3043  0.4936  0.1340
 4474TIP3   OH234912   1.682   0.695   6.140  0.1965 -0.2782  0.0693
 4474TIP3    H134913   1.748   0.627   6.125  2.5613  2.0531 -0.8412
 4474TIP3    H234914   1.719   0.773   6.099 -1.7235  1.9477  2.3061
 4475TIP3   OH234915   5.643   0.007  15.301 -0.0690 -1.2636  0.2338
 4475TIP3    H134916   5.716  -0.052  15.281  0.0991 -1.5458  1.5926
 4475TIP3    H234917   5.567  -0.051  15.308  0.2262 -1.4882  2.3227
 4476TIP3   OH234918   2.725   5.998  13.923  0.2653  0.8223  0.4107
 4476TIP3    H134919   2.723   5.960  14.011 -1.4046  2.6841  1.2392
 4476TIP3    H234920   2.774   6.080  13.934 -0.3126  1.2663 -0.2984
 4477TIP3   OH234921   5.836   2.407  10.834 -0.2386  0.6915 -0.0724
 4477TIP3    H134922   5.833   2.359  10.916  1.8354  1.0975  0.2991
 4477TIP3    H234923   5.918   2.380  10.793 -0.1006  2.2204 -0.8955
 4478TIP3   OH234924   0.632   0.140   3.982  0.0155 -0.3446 -0.3892
 4478TIP3    H134925   0.655   0.055   3.944  0.0790  0.0534 -1.2623
 4478TIP3    H234926   0.616   0.121   4.075  0.7178 -1.1844 -0.4276
 4479TIP3   OH234927   2.931   3.775  16.971  0.9025  0.1135  0.8071
 4479TIP3    H134928   2.907   3.844  16.909  1.7360  1.2448  1.6978
 4479TIP3    H234929   2.867   3.782  17.041  0.3801 -0.7033  0.4205
 4480TIP3   OH234930   3.453   4.981   2.132  0.5177 -0.6034 -0.2324
 4480TIP3    H134931   3.507   5.059   2.143  0.4999 -0.6212 -0.0059
 4480TIP3    H234932   3.494   4.915   2.189  0.6196 -0.8042 -0.5350
 4481TIP3   OH234933   4.769   4.891   5.455 -0.2492  0.3239 -1.2189
 4481TIP3    H134934   4.706   4.869   5.387  1.2851 -0.8461 -2.3245
 4481TIP3    H234935   4.843   4.832   5.440  0.3911  0.4253  1.1162
 4482TIP3   OH234936   1.237   4.797   1.840 -0.7390  0.6391 -0.3384
 4482TIP3    H134937   1.303   4.790   1.770 -0.4572  0.8606 -0.0969
 4482TIP3    H234938   1.180   4.721   1.827 -0.0733  0.1053 -0.1788
 4483TIP3   OH234939   0.181   5.944  12.444  0.4397 -0.0686  0.2314
 4483TIP3    H134940   0.107   5.893  12.477  1.7099 -1.1550  1.5259
 4483TIP3    H234941   0.194   6.014  12.508  0.7092 -0.0677  0.1801
 4484TIP3   OH234942   4.478   0.828  11.511  0.5233 -0.0828 -0.3111
 4484TIP3    H134943   4.530   0.905  11.534 -0.4211  0.3067  0.6220
 4484TIP3    H234944   4.460   0.838  11.418 -0.5144  1.4334  0.0193
 4485TIP3   OH234945   6.623   3.465  13.326  0.4619 -0.1991 -0.0296
 4485TIP3    H134946   6.690   3.506  13.271 -1.3623  1.8662 -0.8738
 4485TIP3    H234947   6.661   3.381  13.351  2.9843  0.4915 -1.1732
 4486TIP3   OH234948   5.495   3.945   2.058  0.1219  0.3778 -0.1939
 4486TIP3    H134949   5.542   3.927   1.977 -1.1075 -0.6996 -0.7107
 4486TIP3    H234950   5.538   3.891   2.124  2.9076  3.2691  0.6044
 4487TIP3   OH234951   1.542   6.700  11.433 -0.2139 -0.1988 -0.1367
 4487TIP3    H134952   1.466   6.673  11.382  1.6662 -3.0951 -1.6492
 4487TIP3    H234953   1.613   6.706  11.370  1.1875  0.9125  1.4566
 4488TIP3   OH234954   6.269   1.412   2.209 -0.0455  0.1143  0.2646
 4488TIP3    H134955   6.269   1.370   2.123 -1.1577 -0.6229  0.6161
 4488TIP3    H234956   6.320   1.353   2.264  0.6866  0.5984  0.1231
 4489TIP3   OH234957   3.752   4.540   3.487  0.1208 -0.5778  0.2908
 4489TIP3    H134958   3.718   4.602   3.422  0.6997 -0.2707  0.2674
 4489TIP3    H234959   3.836   4.578   3.514  0.4325 -1.3007  0.3598
 4490TIP3   OH234960   5.511   2.324  14.174 -0.5227 -0.2941 -0.6698
 4490TIP3    H134961   5.465   2.242  14.195  1.5145 -1.0491  1.2783
 4490TIP3    H234962   5.509   2.329  14.079 -0.9697 -2.4733 -0.8322
 4491TIP3   OH234963   3.989   2.813  15.790  0.1207 -0.2846  0.4710
 4491TIP3    H134964   4.039   2.768  15.858 -1.8913 -1.3748  1.3096
 4491TIP3    H234965   3.934   2.875  15.839 -0.3204 -0.0781 -0.2768
 4492TIP3   OH234966   5.440   4.979   6.611  0.2424 -0.3726  0.4056
 4492TIP3    H134967   5.535   4.972   6.615  0.1635 -1.0133  2.2739
 4492TIP3    H234968   5.408   4.891   6.632 -0.7372  0.2643  1.7903
 4493TIP3   OH234969   6.572   3.887   4.401 -0.2027  0.0324 -0.5474
 4493TIP3    H134970   6.648   3.833   4.421 -0.3028  0.2470  0.4898
 4493TIP3    H234971   6.502   3.851   4.455 -0.4447  0.7696 -0.3522
 4494TIP3   OH234972   3.233   1.304  11.187 -0.1585 -0.2053  0.1712
 4494TIP3    H134973   3.298   1.257  11.240 -0.2232 -0.0734  0.3682
 4494TIP3    H234974   3.254   1.397  11.200  0.1768 -0.1847 -0.4779
 4495TIP3   OH234975   6.370   3.424  14.701 -0.3617 -0.1964  0.4086
 4495TIP3    H134976   6.322   3.435  14.619 -0.0279  0.2842  0.2716
 4495TIP3    H234977   6.393   3.331  14.703  0.7000  0.0208 -0.6671
 4496TIP3   OH234978   6.151   1.977   0.234  0.3116  0.8484  0.0566
 4496TIP3    H134979   6.145   1.933   0.318 -2.0339  1.1317  0.1012
 4496TIP3    H234980   6.069   1.956   0.189  1.2701  1.1415 -1.9489
 4497TIP3   OH234981   2.470   3.355  11.553  0.0633 -0.0377  0.2506
 4497TIP3    H134982   2.423   3.387  11.630  0.9363 -0.2303  0.8782
 4497TIP3    H234983   2.446   3.263  11.547  0.2236 -0.0940  0.4673
 4498TIP3   OH234984   1.765   1.402  12.302  0.1011 -0.1242  0.3635
 4498TIP3    H134985   1.759   1.483  12.251 -1.7652 -0.2084  0.3835
 4498TIP3    H234986   1.859   1.386  12.310  0.5030  1.6943 -0.1776
 4499TIP3   OH234987   5.503   5.614  11.334 -0.2957 -0.3984  0.1747
 4499TIP3    H134988   5.588   5.571  11.335 -0.3176 -0.5801 -1.7306
 4499TIP3    H234989   5.455   5.576  11.408  0.8225 -1.2267  0.4940
 4500TIP3   OH234990   3.842   5.592  15.108  0.3451  0.6943 -0.0023
 4500TIP3    H134991   3.768   5.610  15.050  0.4020 -1.7360 -0.9293
 4500TIP3    H234992   3.906   5.660  15.087 -0.7919  1.5796 -0.7035
 4501TIP3   OH234993   0.027   1.642  11.638 -0.2891 -0.5433 -0.5725
 4501TIP3    H134994   0.012   1.551  11.614  0.0909 -0.9038  0.4938
 4501TIP3    H234995  -0.039   1.661  11.705 -1.3779  0.4585 -1.8703
 4502TIP3   OH234996   2.853   3.646   0.278  0.0577  0.5861 -0.0661
 4502TIP3    H134997   2.785   3.617   0.338  0.7198  0.1168  0.4764
 4502TIP3    H234998   2.852   3.581   0.207  1.2202 -0.5569  0.9120
 4503TIP3   OH234999   5.672   0.610   0.526  0.0421 -0.4926 -0.5084
 4503TIP3    H135000   5.635   0.553   0.458  1.2103 -0.3034 -1.3449
 4503TIP3    H235001   5.608   0.608   0.597 -1.2122 -0.7260 -1.5993
 4504TIP3   OH235002   4.828   4.285  15.058 -0.0318 -0.1788 -0.3542
 4504TIP3    H135003   4.748   4.324  15.022  0.9531  1.8076 -0.5790
 4504TIP3    H235004   4.899   4.335  15.017  1.2808 -0.9457  0.8862
 4505TIP3   OH235005   0.655   5.282   3.375  0.5070  0.5524 -0.6546
 4505TIP3    H135006   0.631   5.345   3.307  0.4820  0.6316 -0.5708
 4505TIP3    H235007   0.750   5.291   3.384  1.2365 -2.2783 -3.6010
 4506TIP3   OH235008   3.977   3.323   3.967  0.2063  0.2011 -0.1484
 4506TIP3    H135009   3.888   3.292   3.954 -0.0258  0.6370  0.3379
 4506TIP3    H235010   3.988   3.392   3.901  0.0157  0.4726  0.1007
 4507TIP3   OH235011   3.810   1.230   3.233 -0.6714 -0.6712  0.0529
 4507TIP3    H135012   3.741   1.193   3.288 -1.1341 -0.0853 -0.1233
 4507TIP3    H235013   3.882   1.247   3.293 -0.0923 -2.7124 -0.0103
 4508TIP3   OH235014   5.987   4.779  15.450  0.7591  0.0384  0.3521
 4508TIP3    H135015   5.933   4.712  15.407 -0.7672  0.7297  1.1008
 4508TIP3    H235016   5.968   4.768  15.543  1.1480  0.9567  0.5507
 4509TIP3   OH235017   0.852   0.550  16.590  0.0361  0.1740  0.2153
 4509TIP3    H135018   0.887   0.608  16.522 -1.2888 -1.2263 -1.7612
 4509TIP3    H235019   0.807   0.610  16.650 -2.1016  1.2580 -2.2548
 4510TIP3   OH235020   3.762   3.104  11.193  0.1509 -0.4211 -0.0060
 4510TIP3    H135021   3.851   3.082  11.218 -0.1648 -0.0989  1.4441
 4510TIP3    H235022   3.760   3.200  11.192 -0.0286 -0.4207 -0.6566
 4511TIP3   OH235023   0.437   2.252   4.361 -0.5274 -0.0936  0.5515
 4511TIP3    H135024   0.372   2.308   4.317 -1.0658 -0.9543  0.2417
 4511TIP3    H235025   0.427   2.166   4.320 -0.0651 -0.5594  1.3935
 4512TIP3   OH235026   3.648   1.494   4.196  0.6688  0.2777  0.3720
 4512TIP3    H135027   3.629   1.535   4.280 -1.7648  0.7499 -0.3318
 4512TIP3    H235028   3.654   1.568   4.135 -3.0936 -0.1583 -0.7888
 4513TIP3   OH235029   0.761   1.085  15.542 -0.0021  0.3490 -0.8164
 4513TIP3    H135030   0.679   1.067  15.587  0.6101 -1.4137 -0.3142
 4513TIP3    H235031   0.825   1.097  15.613  0.3158  1.0286 -1.2066
 4514TIP3   OH235032   0.993   1.965   4.544  0.2471  0.2537 -1.0807
 4514TIP3    H135033   0.939   1.959   4.465 -0.3951 -1.1811 -0.5810
 4514TIP3    H235034   0.943   2.022   4.603  0.0573  0.2210 -1.2078
 4515TIP3   OH235035   4.823   4.624   2.192 -0.0745  1.3478 -0.6437
 4515TIP3    H135036   4.872   4.654   2.115  0.5697  0.5582 -0.5517
 4515TIP3    H235037   4.834   4.529   2.192 -2.2348  1.0486 -1.0410
 4516TIP3   OH235038   0.230   3.110  16.332 -0.0262 -0.2098 -0.8268
 4516TIP3    H135039   0.323   3.094  16.322  0.0039  0.2614 -1.3637
 4516TIP3    H235040   0.197   3.035  16.381  0.6446 -0.3427 -0.5768
 4517TIP3   OH235041   3.048   2.684   4.942 -0.2426 -0.1724  0.3801
 4517TIP3    H135042   3.109   2.654   5.009 -2.4235  0.5137  2.7999
 4517TIP3    H235043   2.970   2.629   4.954 -1.0816  0.6761 -0.9131
 4518TIP3   OH235044   1.552   0.991   5.643 -0.0809 -0.0469  0.4892
 4518TIP3    H135045   1.475   0.947   5.679 -0.9429 -0.2122 -1.4385
 4518TIP3    H235046   1.580   0.935   5.570  0.9667  0.7809  0.2255
 4519TIP3   OH235047   3.142   4.499  16.652 -0.2840 -0.3594 -0.3809
 4519TIP3    H135048   3.103   4.415  16.677 -1.2347 -0.4860 -2.1635
 4519TIP3    H235049   3.219   4.475  16.600  0.7204 -0.0844  0.8899
 4520TIP3   OH235050   5.187   3.075  11.368 -0.1273  0.0217  0.4736
 4520TIP3    H135051   5.207   3.057  11.276 -2.3593 -0.8963  0.0937
 4520TIP3    H235052   5.156   3.166  11.368 -0.0798  0.0389  0.3025
 4521TIP3   OH235053   6.613   4.629  11.305 -0.2344 -0.2835 -0.0866
 4521TIP3    H135054   6.628   4.620  11.399 -0.4316 -1.3172 -0.1428
 4521TIP3    H235055   6.530   4.584  11.289 -1.6919  2.3180 -0.3243
 4522TIP3   OH235056   3.301   0.063   2.013 -0.5380  0.0477  0.0287
 4522TIP3    H135057   3.268  -0.026   2.024 -1.3183  0.2793 -0.4240
 4522TIP3    H235058   3.250   0.116   2.074  0.0367  0.1616  0.4157
 4523TIP3   OH235059   2.504   0.416   2.331  0.5878 -0.0759 -0.0071
 4523TIP3    H135060   2.562   0.435   2.257  1.5113  1.6199  1.0952
 4523TIP3    H235061   2.561   0.420   2.408 -0.3089 -1.9895  0.8341
 4524TIP3   OH235062   0.424   4.507   4.922 -0.1555 -0.4887  0.0567
 4524TIP3    H135063   0.381   4.458   4.992 -0.0216 -2.1217 -0.9476
 4524TIP3    H235064   0.426   4.447   4.848  1.8165  0.3416 -0.6427
 4525TIP3   OH235065   6.217   3.714   3.887  0.4622  0.5647  0.7092
 4525TIP3    H135066   6.208   3.637   3.830  2.4055 -0.3648  1.5689
 4525TIP3    H235067   6.198   3.788   3.830 -0.2243 -0.4647 -0.4739
 4526TIP3   OH235068   4.498   6.179  15.801  0.5378  0.2225  0.0449
 4526TIP3    H135069   4.419   6.221  15.767  0.5234  0.0340 -0.1550
 4526TIP3    H235070   4.568   6.213  15.746  0.5841  0.3154  0.1608
 4527TIP3   OH235071   2.208   2.830   5.880 -0.7080  0.2664  0.9066
 4527TIP3    H135072   2.196   2.736   5.866  0.5736  0.1118  0.7543
 4527TIP3    H235073   2.127   2.869   5.846 -0.8638 -0.7076  0.0965
 4528TIP3   OH235074   3.192   3.370   2.395 -0.3822  0.8607  0.5060
 4528TIP3    H135075   3.132   3.343   2.325 -1.1499 -0.0323  1.4684
 4528TIP3    H235076   3.161   3.323   2.472 -0.7473  3.2690  1.9245
 4529TIP3   OH235077   3.903   1.921   5.431 -0.6850 -0.0862 -0.0595
 4529TIP3    H135078   3.861   1.960   5.355  2.5049  2.5256 -0.6768
 4529TIP3    H235079   3.902   1.990   5.497 -0.3040 -1.1035  1.0394
 4530TIP3   OH235080   6.158   0.722   4.392 -0.1725  0.9211 -0.3235
 4530TIP3    H135081   6.206   0.803   4.375 -0.4476  1.0818 -0.3493
 4530TIP3    H235082   6.122   0.697   4.307 -0.0536  0.7480 -0.3233
 4531TIP3   OH235083   0.710   0.080   4.874 -0.0615  0.0977  0.4383
 4531TIP3    H135084   0.741   0.157   4.827  1.7485 -1.3319 -0.8290
 4531TIP3    H235085   0.625   0.060   4.834  0.3139  0.3696 -0.5094
 4532TIP3   OH235086   1.400   0.895  16.956 -0.5533 -0.2134 -1.1154
 4532TIP3    H135087   1.473   0.841  16.928  0.1761  0.0875  0.1088
 4532TIP3    H235088   1.350   0.839  17.016 -0.2858  0.1629 -0.5282
 4533TIP3   OH235089   0.299   5.852   6.520  0.1532 -0.7428  0.1579
 4533TIP3    H135090   0.248   5.913   6.466  0.5593  0.6256  1.2770
 4533TIP3    H235091   0.287   5.883   6.609  2.3354 -0.8462  0.5232
 4534TIP3   OH235092   6.796   5.311   4.022 -0.6814 -0.0359 -0.2849
 4534TIP3    H135093   6.778   5.236   4.079 -0.0758  0.1863  0.2096
 4534TIP3    H235094   6.729   5.305   3.954 -1.2683 -0.4554  0.3058
 4535TIP3   OH235095   2.343   1.855   3.634 -0.0478  0.0104  0.2423
 4535TIP3    H135096   2.248   1.854   3.648 -0.5368  0.3965 -2.3784
 4535TIP3    H235097   2.370   1.943   3.660 -0.9708  0.9030 -1.6236
 4536TIP3   OH235098   2.186   3.669  16.377 -0.5221 -0.7837  0.0400
 4536TIP3    H135099   2.226   3.696  16.294 -2.3792 -0.5909 -0.8449
 4536TIP3    H235100   2.230   3.587  16.399  0.4380 -0.5206 -0.8055
 4537TIP3   OH235101   5.502   0.909   0.900 -0.0125 -0.0429 -0.2870
 4537TIP3    H135102   5.499   0.851   0.976  0.5512  0.6022  0.2324
 4537TIP3    H235103   5.433   0.875   0.842  1.8680 -2.7510 -1.1202
 4538TIP3   OH235104   4.260   3.113  10.598 -0.6419  0.0721 -0.5893
 4538TIP3    H135105   4.230   3.085  10.685 -0.7662  1.5542 -0.1207
 4538TIP3    H235106   4.322   3.046  10.571  1.4637  0.8593  1.8434
 4539TIP3   OH235107   5.836   6.203   1.166  0.1872 -0.2607  0.5375
 4539TIP3    H135108   5.843   6.242   1.253 -2.7278  0.3158  0.6170
 4539TIP3    H235109   5.838   6.278   1.106 -1.3834 -0.2931  0.4069
 4540TIP3   OH235110   0.764   4.523  13.704  0.4335 -0.0571 -0.1990
 4540TIP3    H135111   0.716   4.450  13.665 -0.1040 -0.4946  1.2502
 4540TIP3    H235112   0.854   4.511  13.673  0.4231 -1.5157  0.2620
 4541TIP3   OH235113   0.393   3.290   2.362  0.3245  0.4698 -0.0238
 4541TIP3    H135114   0.391   3.361   2.298 -0.2957 -0.4335 -1.0383
 4541TIP3    H235115   0.378   3.211   2.310 -1.3314 -0.1979  1.3850
 4542TIP3   OH235116   3.805   1.131  10.297 -0.9211  0.4097  0.4562
 4542TIP3    H135117   3.772   1.151  10.209 -3.2711  1.1915  1.4480
 4542TIP3    H235118   3.799   1.036  10.303 -0.9175  0.3642 -0.1643
 4543TIP3   OH235119   1.395   2.309  13.180  0.2445 -0.1918  0.0241
 4543TIP3    H135120   1.365   2.236  13.235  0.8571  0.2214  0.9414
 4543TIP3    H235121   1.491   2.301  13.180  0.3678  0.9727  0.6861
 4544TIP3   OH235122   2.163   6.006  17.009 -0.5453  0.1461 -0.4512
 4544TIP3    H135123   2.156   6.101  16.999  1.5269  0.5323  1.2039
 4544TIP3    H235124   2.094   5.983  17.072 -2.5525  0.1355 -2.5195
 4545TIP3   OH235125   3.814   4.161   5.776 -0.1075  0.0648 -0.6104
 4545TIP3    H135126   3.872   4.164   5.852 -0.4905 -1.3265 -0.2494
 4545TIP3    H235127   3.840   4.082   5.729 -1.3357 -0.2614 -0.7494
 4546TIP3   OH235128   6.140   0.542  14.967  0.0041  0.4886 -0.3507
 4546TIP3    H135129   6.197   0.552  15.043  0.0164 -0.3497 -0.2362
 4546TIP3    H235130   6.194   0.494  14.903 -0.6428 -0.5277 -0.1470
 4547TIP3   OH235131   3.947   1.849   0.552 -0.0784  0.2985  0.2070
 4547TIP3    H135132   3.889   1.842   0.627 -0.8941 -2.8986 -0.5897
 4547TIP3    H235133   4.006   1.774   0.559 -1.3788 -1.2497 -3.1846
 4548TIP3   OH235134   5.134   1.361   0.563  0.1412 -0.1566  0.0541
 4548TIP3    H135135   5.118   1.312   0.644  0.5891 -1.8520 -0.8483
 4548TIP3    H235136   5.070   1.433   0.566  0.0689 -0.2563  1.8382
 4549TIP3   OH235137   0.216   2.968  11.737 -0.7322 -0.2635 -0.1443
 4549TIP3    H135138   0.290   2.987  11.795 -1.4628  0.2021  0.6620
 4549TIP3    H235139   0.141   3.010  11.780 -1.3821 -0.3351 -1.1796
 4550TIP3   OH235140   5.419   2.201  10.551  0.0717 -0.2853  0.2501
 4550TIP3    H135141   5.427   2.119  10.502 -1.8197 -1.2275  1.4224
 4550TIP3    H235142   5.475   2.189  10.627  0.6008 -0.0599 -0.0990
 4551TIP3   OH235143   4.038   4.462   4.574  0.2047  0.2761 -0.1341
 4551TIP3    H135144   4.110   4.510   4.534  0.4070  0.0303 -0.0721
 4551TIP3    H235145   4.071   4.372   4.582 -0.2621  0.0735 -0.4833
 4552TIP3   OH235146   4.861   4.314  11.141 -0.2558  0.4988 -0.1665
 4552TIP3    H135147   4.779   4.267  11.122 -1.5305  3.1389 -1.8560
 4552TIP3    H235148   4.911   4.307  11.060  0.5303  0.1857  0.3424
 4553TIP3   OH235149   1.023   6.417  17.099 -0.2132  0.1424 -0.1303
 4553TIP3    H135150   0.966   6.446  17.170  0.2493  0.6995  0.0269
 4553TIP3    H235151   0.964   6.396  17.027 -0.6198  0.7357  0.0179
 4554TIP3   OH235152   6.761   6.173   4.287 -0.5828 -0.0630 -0.1888
 4554TIP3    H135153   6.767   6.262   4.254 -1.0892 -0.0945 -0.3859
 4554TIP3    H235154   6.839   6.129   4.254 -0.1711  0.3925  0.1792
 4555TIP3   OH235155   0.662   1.960   2.079  0.1436  0.3415  0.1765
 4555TIP3    H135156   0.586   1.904   2.061 -1.7641  2.1077  2.1495
 4555TIP3    H235157   0.647   1.992   2.167  2.9347  1.2819  0.3901
 4556TIP3   OH235158   1.987   6.269  12.104 -0.2780 -0.2465  0.4086
 4556TIP3    H135159   1.894   6.273  12.084 -0.4406 -0.4840  1.0800
 4556TIP3    H235160   2.031   6.298  12.024 -0.9077 -0.7207 -0.1190
 4557TIP3   OH235161   1.004   2.186   0.502  0.2227 -0.1026  0.2012
 4557TIP3    H135162   0.937   2.121   0.479  1.2588 -1.2550  0.3166
 4557TIP3    H235163   1.032   2.160   0.590  1.0736  0.1377  0.0036
 4558TIP3   OH235164   6.834   2.805   1.746 -0.4366 -0.2455  0.1169
 4558TIP3    H135165   6.774   2.748   1.794  1.7499 -1.4592  1.5939
 4558TIP3    H235166   6.835   2.770   1.657 -0.5373 -1.3619  0.5422
 4559TIP3   OH235167   2.700   5.942  15.630 -0.4832  0.2361 -0.1142
 4559TIP3    H135168   2.752   5.986  15.564 -1.6569 -1.1259 -2.0711
 4559TIP3    H235169   2.610   5.972  15.615 -0.6160  0.9874  1.8347
 4560TIP3   OH235170   4.766   2.784  13.581  0.0009 -0.9399  0.4883
 4560TIP3    H135171   4.834   2.818  13.638  0.3078 -0.8340  0.0582
 4560TIP3    H235172   4.684   2.810  13.623  0.2086  0.9697 -0.1892
 4561TIP3   OH235173   3.434   6.418   6.749  0.3853 -0.0915  0.2118
 4561TIP3    H135174   3.448   6.390   6.658  1.7127  0.1309  0.3267
 4561TIP3    H235175   3.510   6.472   6.769 -0.2211  0.4007  1.2543
 4562TIP3   OH235176   4.861   6.788   5.194 -0.1398  0.4430  0.2609
 4562TIP3    H135177   4.916   6.715   5.223 -2.1863 -1.7453 -0.9650
 4562TIP3    H235178   4.853   6.775   5.100 -0.4592  2.3972 -0.0164
 4563TIP3   OH235179   3.410   3.571   0.057  0.6257  0.2549 -0.1728
 4563TIP3    H135180   3.406   3.623  -0.023  0.5721  0.3827 -0.0887
 4563TIP3    H235181   3.327   3.589   0.101  1.1489  1.1023  0.4820
 4564TIP3   OH235182   1.442   5.072   5.745  0.1801 -0.3002 -0.5519
 4564TIP3    H135183   1.363   5.066   5.691 -0.4715 -1.5656  0.5053
 4564TIP3    H235184   1.478   5.158   5.724 -2.8471  1.4443  0.7608
 4565TIP3   OH235185   0.039   0.904   4.620  0.2723 -0.2910 -0.4370
 4565TIP3    H135186   0.110   0.939   4.566  1.7436  0.9920  2.1223
 4565TIP3    H235187  -0.033   0.966   4.607  0.2106 -0.5996 -1.6938
 4566TIP3   OH235188   4.984   1.727   2.977 -0.2596 -0.1107  0.3579
 4566TIP3    H135189   4.915   1.665   3.000 -0.1019  0.0013  1.1683
 4566TIP3    H235190   4.945   1.782   2.910 -1.5838  1.0526  2.0015
 4567TIP3   OH235191   6.759   6.496  14.787  0.5703  0.4037 -0.1803
 4567TIP3    H135192   6.851   6.520  14.779  1.0330 -0.4044  2.0736
 4567TIP3    H235193   6.757   6.402  14.766 -0.2935  0.9653 -3.1416
 4568TIP3   OH235194   5.644   3.136   1.369 -0.1949  0.5171 -0.3206
 4568TIP3    H135195   5.728   3.121   1.326 -0.3414 -0.1748 -0.3676
 4568TIP3    H235196   5.665   3.139   1.462 -0.3611 -1.4563 -0.1980
 4569TIP3   OH235197   4.122   1.041   5.520 -0.0071 -0.4120  0.0840
 4569TIP3    H135198   4.138   0.982   5.594 -0.3879  1.6825  1.9263
 4569TIP3    H235199   4.201   1.095   5.514 -0.5380  0.3422 -0.1771
 4570TIP3   OH235200   6.498   3.155  13.730  0.6382  0.2138  0.1868
 4570TIP3    H135201   6.583   3.131  13.769  1.0382  0.7287 -0.3547
 4570TIP3    H235202   6.504   3.125  13.640 -0.0628 -0.4404  0.3472
 4571TIP3   OH235203   5.817   1.081  12.259  0.2093 -0.0724 -0.4560
 4571TIP3    H135204   5.846   1.022  12.328  0.3334  0.5032 -0.0112
 4571TIP3    H235205   5.732   1.046  12.232  0.5632 -0.8131 -0.6334
 4572TIP3   OH235206   4.674   6.837   0.883  0.0658 -0.8042  0.1736
 4572TIP3    H135207   4.769   6.849   0.893  0.0566 -0.6720  0.1095
 4572TIP3    H235208   4.655   6.756   0.931  0.1056 -0.4790  0.7479
 4573TIP3   OH235209   0.752   3.622  17.129  0.2760  0.1439 -0.6490
 4573TIP3    H135210   0.814   3.666  17.187 -0.9047  0.4045  0.4625
 4573TIP3    H235211   0.701   3.566  17.187  0.9049 -1.7822 -1.8565
 4574TIP3   OH235212   0.081   4.204   4.456 -0.4459 -0.0618  0.1247
 4574TIP3    H135213   0.055   4.160   4.537  0.5206  0.1201  0.5401
 4574TIP3    H235214   0.056   4.142   4.387  0.9115 -1.3096  0.6963
 4575TIP3   OH235215   2.620   3.509  14.090  0.0240 -0.0528 -0.0681
 4575TIP3    H135216   2.663   3.594  14.078 -0.0088 -0.3040 -2.2585
 4575TIP3    H235217   2.629   3.465  14.006 -0.2473 -2.1147  0.9316
 4576TIP3   OH235218   5.405   0.359   2.680  0.3861 -0.5043  0.5207
 4576TIP3    H135219   5.371   0.353   2.769 -0.3372 -1.2630  0.2073
 4576TIP3    H235220   5.497   0.382   2.691  0.2309 -0.2746  1.4476
 4577TIP3   OH235221   4.853   1.844   0.613 -0.2670  0.6248  0.4947
 4577TIP3    H135222   4.870   1.777   0.546  2.2015  1.5779  0.0644
 4577TIP3    H235223   4.761   1.833   0.635 -0.5352 -1.3281 -1.3016
 4578TIP3   OH235224   1.093   0.705   2.655  0.4481  0.0391 -0.3125
 4578TIP3    H135225   1.157   0.638   2.682  0.6538 -0.1813 -1.3115
 4578TIP3    H235226   1.139   0.756   2.588 -0.0166  0.6346 -0.1853
 4579TIP3   OH235227   0.578   2.446  11.999 -0.7680 -0.1716  0.8904
 4579TIP3    H135228   0.541   2.489  11.922 -0.8109 -1.9616 -0.1558
 4579TIP3    H235229   0.664   2.416  11.971 -1.0210 -1.3668  1.3306
 4580TIP3   OH235230   1.907   4.774   1.145 -0.2530  0.4672 -0.5307
 4580TIP3    H135231   1.918   4.770   1.050 -0.4585 -0.2314 -0.5284
 4580TIP3    H235232   1.914   4.684   1.174 -0.9783  0.5761  0.0281
 4581TIP3   OH235233   3.660   1.201  15.747 -0.4991  0.1801 -0.5245
 4581TIP3    H135234   3.632   1.258  15.675  1.9188  0.7828 -1.0627
 4581TIP3    H235235   3.697   1.261  15.811 -0.4968 -0.5736  0.1872
 4582TIP3   OH235236   0.770   1.097   6.105 -0.0531  0.3096  0.5119
 4582TIP3    H135237   0.748   1.172   6.161 -0.7676 -0.1604  0.8735
 4582TIP3    H235238   0.713   1.027   6.135  2.0722 -1.0424  1.5944
 4583TIP3   OH235239   2.892   5.683  16.968 -0.1885  0.5524  0.1683
 4583TIP3    H135240   2.801   5.668  16.990 -0.0702 -0.5885 -0.0706
 4583TIP3    H235241   2.891   5.762  16.913 -1.1078  0.1926 -0.3510
 4584TIP3   OH235242   0.422   1.001  11.392 -0.5118  0.1586 -0.1582
 4584TIP3    H135243   0.497   0.942  11.393 -1.8464 -1.6813  2.5778
 4584TIP3    H235244   0.353   0.952  11.347 -1.4621 -0.2170  1.6191
 4585TIP3   OH235245   0.844   6.435  15.881  0.3360  0.0217  0.0410
 4585TIP3    H135246   0.808   6.445  15.793  0.1471 -4.2804 -0.6163
 4585TIP3    H235247   0.782   6.378  15.926  0.7374  1.6178  2.8396
 4586TIP3   OH235248   0.387   5.620   3.022 -0.5250 -0.6342  0.0932
 4586TIP3    H135249   0.367   5.656   2.936 -0.4689  2.2188  1.1903
 4586TIP3    H235250   0.306   5.632   3.073 -0.1862 -1.2205  0.7952
 4587TIP3   OH235251   3.187   6.255   0.353 -0.5227  0.1915  0.0317
 4587TIP3    H135252   3.212   6.275   0.443  0.0623  0.5622 -0.2033
 4587TIP3    H235253   3.266   6.214   0.316 -1.1361 -1.0268  0.0169
 4588TIP3   OH235254   5.814   4.585  15.356  0.0018  0.6000 -0.3847
 4588TIP3    H135255   5.851   4.532  15.285  0.6906  0.6604 -0.0840
 4588TIP3    H235256   5.723   4.558  15.361  0.0333  0.3288 -1.0501
 4589TIP3   OH235257   6.392   5.227   6.316 -0.5912  0.2558  0.3786
 4589TIP3    H135258   6.463   5.227   6.381  0.7670 -0.8778 -1.0134
 4589TIP3    H235259   6.346   5.144   6.330  0.8337 -0.8730 -1.1746
 4590TIP3   OH235260   2.410   0.593  13.946 -0.6068 -0.0795 -0.2395
 4590TIP3    H135261   2.504   0.612  13.948 -0.4516 -0.8421 -0.2677
 4590TIP3    H235262   2.383   0.614  13.856 -1.1170  3.1466  0.5333
 4591TIP3   OH235263   4.727   0.081  16.774 -0.6164  0.5015 -0.4030
 4591TIP3    H135264   4.774   0.125  16.704 -0.6285 -0.1392 -0.8276
 4591TIP3    H235265   4.789   0.078  16.847 -1.2060  2.7591  0.2627
 4592TIP3   OH235266   3.165   3.894   1.201 -0.2730  0.0274  0.0874
 4592TIP3    H135267   3.081   3.897   1.248 -0.3455  0.3675 -0.0619
 4592TIP3    H235268   3.216   3.965   1.238  0.0082 -0.2733  0.2811
 4593TIP3   OH235269   2.509   6.802   0.407  0.1857  0.1778 -0.2400
 4593TIP3    H135270   2.520   6.892   0.438  0.1453  0.6676 -1.5909
 4593TIP3    H235271   2.559   6.749   0.469 -0.1561  1.0730  0.8300
 4594TIP3   OH235272   5.005   2.467   1.783 -0.1943 -0.6864  0.2242
 4594TIP3    H135273   4.931   2.526   1.793 -1.8645 -2.4061 -1.0961
 4594TIP3    H235274   5.053   2.501   1.708 -0.2174 -0.1195  0.4613
 4595TIP3   OH235275   5.223   5.686  12.863  0.0205 -0.3716 -0.4088
 4595TIP3    H135276   5.205   5.779  12.850  1.7031  0.3095  1.5128
 4595TIP3    H235277   5.316   5.677  12.845  0.4329 -1.1350  1.7714
 4596TIP3   OH235278   4.939   3.223  14.919 -0.1510  0.5046  0.1787
 4596TIP3    H135279   4.944   3.207  15.013 -0.8538 -0.9794 -0.0159
 4596TIP3    H235280   4.866   3.169  14.889 -1.0003  2.1882 -0.9795
 4597TIP3   OH235281   2.755   5.791   3.692  0.4736 -0.3596 -0.1076
 4597TIP3    H135282   2.809   5.727   3.737  2.5711  0.6517 -1.0610
 4597TIP3    H235283   2.687   5.815   3.755  0.4512 -2.4747  0.7263
 4598TIP3   OH235284   3.668   6.024  11.318 -0.1724 -0.3664  0.0484
 4598TIP3    H135285   3.648   6.082  11.391  1.7173  1.0121 -0.4684
 4598TIP3    H235286   3.754   5.988  11.339 -0.4560 -1.4681 -0.5882
 4599TIP3   OH235287   4.899   6.340   4.290 -0.1459 -0.3913  0.2884
 4599TIP3    H135288   4.887   6.320   4.383  0.1335 -1.7462  0.0544
 4599TIP3    H235289   4.820   6.308   4.248 -1.5181  2.5968  0.3141
 4600TIP3   OH235290   0.128   1.768  15.384 -0.2108 -0.5086  0.6889
 4600TIP3    H135291   0.156   1.686  15.424 -2.2317 -1.8961 -0.5799
 4600TIP3    H235292   0.086   1.742  15.302 -0.4702  1.8523 -0.0168
 4601TIP3   OH235293   0.724   4.310  17.111 -0.2487 -0.2978  0.0057
 4601TIP3    H135294   0.731   4.378  17.044 -1.6006  0.1200  0.2492
 4601TIP3    H235295   0.792   4.331  17.175  1.0310 -0.6808 -1.1919
 4602TIP3   OH235296   4.032   2.958  13.930  0.3914 -0.6076  0.2031
 4602TIP3    H135297   4.017   2.881  13.874  0.1474 -0.0778 -0.4730
 4602TIP3    H235298   4.052   3.028  13.869  0.8756 -0.1857  0.8355
 4603TIP3   OH235299   0.882   0.899  14.319 -0.2154  0.2084  0.1439
 4603TIP3    H135300   0.926   0.827  14.273  1.8897  2.8836 -2.4599
 4603TIP3    H235301   0.803   0.915  14.268  0.3731  0.9949 -0.5474
 4604TIP3   OH235302   5.474   5.422  11.768  0.0040 -0.1725  0.1604
 4604TIP3    H135303   5.446   5.507  11.801  0.3587  0.1868 -0.4430
 4604TIP3    H235304   5.484   5.368  11.846  0.0241  0.4118  0.5660
 4605TIP3   OH235305   0.221   2.588   3.106  0.9035 -0.1336  0.2003
 4605TIP3    H135306   0.172   2.626   3.180 -0.3075 -2.4322  0.6814
 4605TIP3    H235307   0.181   2.628   3.028 -2.7480 -2.7226  0.4881
 4606TIP3   OH235308   0.281   5.625  10.973  0.3899 -0.2997 -0.2808
 4606TIP3    H135309   0.227   5.700  10.947  0.7287 -0.0473 -0.2677
 4606TIP3    H235310   0.304   5.582  10.891  1.4210  0.4704 -0.4191
 4607TIP3   OH235311   2.481   3.241   5.365  0.3869 -0.0744  0.0635
 4607TIP3    H135312   2.564   3.276   5.398  0.1894  0.2286  0.2435
 4607TIP3    H235313   2.500   3.148   5.348  0.5681 -0.1829  0.7899
 4608TIP3   OH235314   0.589   0.612   4.667  0.5894  0.0807  0.1011
 4608TIP3    H135315   0.521   0.558   4.708 -0.4103 -1.2107 -2.9476
 4608TIP3    H235316   0.542   0.688   4.633  0.6592 -0.5739 -1.5862
 4609TIP3   OH235317   4.380   6.083   3.112  0.0990 -0.6972  0.1734
 4609TIP3    H135318   4.350   6.155   3.167 -0.1819  0.8269 -1.8401
 4609TIP3    H235319   4.390   6.009   3.172  4.5665  1.9324  3.2743
 4610TIP3   OH235320   3.063   6.199   2.711 -0.2364 -0.5732 -0.0191
 4610TIP3    H135321   3.022   6.140   2.774 -2.9344  0.3953 -0.7477
 4610TIP3    H235322   3.026   6.175   2.626 -0.0796  1.0031 -0.5770
 4611TIP3   OH235323   4.514   6.039   5.358 -0.7935 -0.0941 -0.1924
 4611TIP3    H135324   4.605   6.036   5.387 -1.1662 -1.1517  0.8962
 4611TIP3    H235325   4.462   6.024   5.437 -1.9221  0.3670 -0.8180
 4612TIP3   OH235326   5.876   4.950  16.299 -0.4697  0.3736 -0.5160
 4612TIP3    H135327   5.845   4.939  16.209 -1.1724  0.1420 -0.2475
 4612TIP3    H235328   5.967   4.921  16.296 -0.6451 -0.1520 -1.0419
 4613TIP3   OH235329   0.478   2.527  10.542  0.0896  0.4694  0.2661
 4613TIP3    H135330   0.440   2.536  10.455  0.2982 -1.8872 -0.1241
 4613TIP3    H235331   0.409   2.486  10.594  0.3570  0.8275  0.9118
 4614TIP3   OH235332   1.562   0.225  15.436 -0.0879  0.2790  0.4510
 4614TIP3    H135333   1.564   0.151  15.376 -0.2845  0.5424  0.1170
 4614TIP3    H235334   1.471   0.255  15.433 -0.0149  0.5165  0.6081
 4615TIP3   OH235335   6.029   5.147   0.567 -0.3761 -0.0849  0.2301
 4615TIP3    H135336   6.114   5.175   0.532 -0.3488 -0.2105  0.1953
 4615TIP3    H235337   6.009   5.211   0.635 -2.6072  3.0453 -2.9961
 4616TIP3   OH235338   1.654   2.139   3.299 -0.0399 -0.0568  0.1800
 4616TIP3    H135339   1.608   2.129   3.216 -1.0311  2.0007  0.4287
 4616TIP3    H235340   1.586   2.155   3.363  0.8906  3.1062  0.5585
 4617TIP3   OH235341   5.794   0.247   1.193  0.2837  0.5621 -0.2871
 4617TIP3    H135342   5.819   0.271   1.282  0.9134  0.4353 -0.4238
 4617TIP3    H235343   5.846   0.169   1.174  0.6874  0.9936 -1.0155
 4618TIP3   OH235344   3.313   6.316  12.582 -0.3247  0.3867 -0.0613
 4618TIP3    H135345   3.225   6.341  12.555  0.0407  3.4561  1.2014
 4618TIP3    H235346   3.354   6.282  12.502 -2.4978 -0.8496 -0.7277
 4619TIP3   OH235347   3.641   5.032   1.793  0.0988  0.2712 -0.0465
 4619TIP3    H135348   3.629   5.034   1.698 -1.5854  1.1509  0.1482
 4619TIP3    H235349   3.615   5.119   1.822 -0.3422 -0.2965  1.3132
 4620TIP3   OH235350   5.991   5.527  14.827  0.4494  0.1496  0.0236
 4620TIP3    H135351   6.059   5.563  14.770  0.6818 -0.0489  0.1730
 4620TIP3    H235352   5.914   5.580  14.809  0.9054  1.0112  0.5661
 4621TIP3   OH235353   0.586   5.256   1.710 -0.3420 -0.3227 -0.3834
 4621TIP3    H135354   0.537   5.236   1.631 -0.5647  1.1650 -0.6581
 4621TIP3    H235355   0.519   5.262   1.779 -0.1599 -1.5185 -0.0749
 4622TIP3   OH235356   5.014   5.971  15.669  0.2482 -0.8050  0.1992
 4622TIP3    H135357   4.951   6.040  15.688  0.1098 -0.9188  0.1544
 4622TIP3    H235358   4.963   5.904  15.623  0.2867 -1.1329  0.6306
 4623TIP3   OH235359   1.704   1.505   1.827 -0.3212  0.0411  0.3461
 4623TIP3    H135360   1.655   1.585   1.842  1.8680  2.1487 -2.3624
 4623TIP3    H235361   1.786   1.517   1.875  0.8658  0.5001 -1.6336
 4624TIP3   OH235362   6.394   1.179  12.665 -0.0652 -0.1153  0.0382
 4624TIP3    H135363   6.383   1.239  12.591  0.3212 -1.4787 -1.1652
 4624TIP3    H235364   6.488   1.178  12.681 -0.2165  0.6947  1.0046
 4625TIP3   OH235365   4.729   3.094  14.810  0.3850  0.1761 -0.3877
 4625TIP3    H135366   4.635   3.094  14.828  0.5793  0.3007  0.6865
 4625TIP3    H235367   4.737   3.051  14.725 -0.5260 -1.0239  0.1056
 4626TIP3   OH235368   4.165   2.701  15.981  0.3389  0.2056  0.9885
 4626TIP3    H135369   4.185   2.732  16.069  0.6872 -0.6280  1.2097
 4626TIP3    H235370   4.207   2.615  15.975  1.5155  0.8326 -0.4814
 4627TIP3   OH235371   0.519   4.219  16.120  0.1471 -0.2945 -0.5443
 4627TIP3    H135372   0.505   4.287  16.186 -0.7457 -0.7316 -0.2717
 4627TIP3    H235373   0.447   4.230  16.058  1.0647  0.2103 -1.5442
 4628TIP3   OH235374   3.753   2.842   4.300  0.4968 -0.5151 -0.0005
 4628TIP3    H135375   3.836   2.871   4.262  1.1308 -1.0632  0.9240
 4628TIP3    H235376   3.735   2.904   4.370  0.0896 -0.3635 -0.2365
 4629TIP3   OH235377   2.972   4.459   2.771  0.4958 -0.1631  0.2546
 4629TIP3    H135378   3.044   4.522   2.776 -0.2771  0.6878  0.9085
 4629TIP3    H235379   2.932   4.461   2.858 -1.0019  0.1892 -0.4138
 4630TIP3   OH235380   5.128   5.268   2.487 -0.1878 -0.0082 -0.5832
 4630TIP3    H135381   5.173   5.206   2.545  0.7352  0.8186 -0.3859
 4630TIP3    H235382   5.172   5.352   2.502 -3.1619  1.4050  1.2409
 4631TIP3   OH235383   0.077   5.891  16.660  0.9767 -0.1085 -0.1420
 4631TIP3    H135384   0.106   5.868  16.572  0.8106  1.2399 -0.5735
 4631TIP3    H235385   0.107   5.981  16.673  1.0758 -0.3143  1.2204
 4632TIP3   OH235386   5.370   2.088   5.618 -0.1500 -0.0136 -0.2826
 4632TIP3    H135387   5.417   2.005   5.606 -0.7875 -0.1296 -2.3742
 4632TIP3    H235388   5.401   2.121   5.702 -0.0967 -2.5071  0.7738
 4633TIP3   OH235389   2.739   3.081  15.052 -0.2236  0.3528 -0.5550
 4633TIP3    H135390   2.791   3.156  15.081  0.7115 -0.1158 -0.9742
 4633TIP3    H235391   2.779   3.006  15.095 -0.8209  0.0214 -0.5598
 4634TIP3   OH235392   4.076   2.583  14.312 -0.0283  0.2527  0.4702
 4634TIP3    H135393   4.104   2.583  14.403  0.4173 -0.9197  0.3535
 4634TIP3    H235394   4.132   2.648  14.269  1.6296 -1.0616  0.5224
 4635TIP3   OH235395   1.710   2.604   1.178 -0.2977 -0.4222  0.2476
 4635TIP3    H135396   1.732   2.564   1.262 -0.9869  0.0766  0.6852
 4635TIP3    H235397   1.672   2.533   1.127  0.3266 -0.7806  0.2708
 4636TIP3   OH235398   5.871   0.575  14.598  0.2438 -0.3336 -0.4815
 4636TIP3    H135399   5.847   0.661  14.564  2.2553 -0.0273 -1.2156
 4636TIP3    H235400   5.811   0.561  14.672 -1.7847  0.5653 -1.8749
 4637TIP3   OH235401   3.855   0.263  10.996 -0.2437 -0.0829 -0.1806
 4637TIP3    H135402   3.929   0.311  11.033  1.0644 -1.2344 -1.2156
 4637TIP3    H235403   3.876   0.171  11.010 -2.5144 -0.4503  1.3961
 4638TIP3   OH235404   5.760   3.713  13.743  0.3070  0.5939  0.3574
 4638TIP3    H135405   5.723   3.627  13.766  1.4297  0.0432  0.1926
 4638TIP3    H235406   5.854   3.698  13.741  0.4858  1.7199 -0.1803
 4639TIP3   OH235407   1.936   3.604   4.577  0.8476  0.3405  0.1651
 4639TIP3    H135408   1.897   3.682   4.616  1.2019  1.9903 -2.5511
 4639TIP3    H235409   1.866   3.538   4.582 -0.7919  1.9394 -0.7260
 4640TIP3   OH235410   3.239   0.395  15.087 -0.1324 -0.0452  0.6210
 4640TIP3    H135411   3.258   0.351  15.170 -0.2225 -0.1824  0.5678
 4640TIP3    H235412   3.196   0.476  15.113 -0.2251 -0.1219  0.7046
 4641TIP3   OH235413   3.077   6.080   1.409  0.2908  0.0483  0.9199
 4641TIP3    H135414   3.039   6.155   1.365  1.5886  0.1256 -0.1269
 4641TIP3    H235415   3.056   6.005   1.353  1.5890  0.0889  0.3324
 4642TIP3   OH235416   4.773   1.667  12.884 -0.1104  0.5144  0.1762
 4642TIP3    H135417   4.819   1.647  12.966 -1.1016 -0.8898  0.4263
 4642TIP3    H235418   4.815   1.610  12.819 -0.5692  0.2277  0.1233
 4643TIP3   OH235419   1.049   3.609   2.108  0.0809  0.2588  0.9693
 4643TIP3    H135420   1.028   3.698   2.136 -0.8353  0.4814 -0.3365
 4643TIP3    H235421   0.970   3.578   2.064  0.7599 -0.8157  0.4485
 4644TIP3   OH235422   1.670   5.435   1.230 -0.0655  0.2142  0.3143
 4644TIP3    H135423   1.617   5.372   1.280 -2.2554  0.9816 -0.9172
 4644TIP3    H235424   1.709   5.491   1.297 -2.0693  0.5618  1.2740
 4645TIP3   OH235425   2.538   6.685   5.583  0.3887  0.0751 -0.0727
 4645TIP3    H135426   2.467   6.733   5.540  0.6700  0.3834 -0.2016
 4645TIP3    H235427   2.502   6.598   5.600  0.1419  0.0746 -0.5747
 4646TIP3   OH235428   6.688   0.067  14.208 -0.0600 -0.0076  0.0445
 4646TIP3    H135429   6.744  -0.005  14.236 -1.8949 -1.5205  0.0366
 4646TIP3    H235430   6.699   0.135  14.274 -0.7549 -1.6361  1.9284
 4647TIP3   OH235431   2.498   0.464  11.154 -0.3280 -0.1035  0.4176
 4647TIP3    H135432   2.460   0.398  11.212 -2.3205 -1.6729 -2.3928
 4647TIP3    H235433   2.426   0.489  11.096  1.2038  2.2302 -0.6443
 4648TIP3   OH235434   5.185   0.229   4.831  0.1789  0.6351 -0.4040
 4648TIP3    H135435   5.108   0.211   4.884  0.3319 -0.0119 -0.3818
 4648TIP3    H235436   5.258   0.228   4.894  0.0761  2.5176 -0.2254
 4649TIP3   OH235437   6.601   0.840  11.455 -0.4732 -0.0300 -0.5489
 4649TIP3    H135438   6.602   0.831  11.360  1.2068 -1.9176 -0.4146
 4649TIP3    H235439   6.669   0.904  11.475 -1.5410  1.1722 -0.6314
 4650TIP3   OH235440   5.131   5.781  12.483 -0.3531 -0.2816 -0.0051
 4650TIP3    H135441   5.070   5.839  12.437  0.2607 -0.5869 -1.2435
 4650TIP3    H235442   5.218   5.807  12.453  0.2934  0.8775  2.5625
 4651TIP3   OH235443   3.490   3.124   3.588  0.4215 -0.0070  0.3586
 4651TIP3    H135444   3.578   3.089   3.576  0.0685 -0.5696 -0.8087
 4651TIP3    H235445   3.450   3.066   3.653  0.4135 -0.7186 -0.2649
 4652TIP3   OH235446   6.811   2.332  11.862 -0.3237 -0.1045 -0.6051
 4652TIP3    H135447   6.790   2.425  11.861  0.9998  0.2729  1.2071
 4652TIP3    H235448   6.725   2.289  11.866 -0.9489  1.0113 -1.3840
 4653TIP3   OH235449   5.606   2.886  16.839  0.0326  0.1418 -0.3275
 4653TIP3    H135450   5.601   2.793  16.817 -0.4292 -0.0534  0.5840
 4653TIP3    H235451   5.570   2.930  16.762  1.2959 -0.3576 -1.2347
 4654TIP3   OH235452   3.418   5.995   4.033 -0.3300 -0.0136  0.3250
 4654TIP3    H135453   3.331   6.007   3.996  0.4117  0.3689 -1.4237
 4654TIP3    H235454   3.417   6.045   4.114 -2.2926 -1.5590  1.3270
 4655TIP3   OH235455   6.714   6.181  14.848 -0.1927 -0.4095 -0.5468
 4655TIP3    H135456   6.720   6.211  14.939 -3.5340  0.7083 -0.5708
 4655TIP3    H235457   6.743   6.089  14.851 -1.0755 -0.6771  1.8279
 4656TIP3   OH235458   1.267   3.651  14.514  0.0788 -0.6605  0.5503
 4656TIP3    H135459   1.234   3.682  14.430  0.9087  0.0232  0.4628
 4656TIP3    H235460   1.265   3.727  14.571  0.8206 -0.7650  0.7369
 4657TIP3   OH235461   5.293   5.424   4.333 -0.1451  0.0108  0.6890
 4657TIP3    H135462   5.227   5.465   4.277  1.2846  0.9191 -0.4125
 4657TIP3    H235463   5.367   5.408   4.275 -0.1267 -3.0047  1.3836
 4658TIP3   OH235464   4.250   4.324  11.717 -0.2020  0.4539  0.8656
 4658TIP3    H135465   4.167   4.316  11.765 -1.6922  0.0587 -1.5801
 4658TIP3    H235466   4.276   4.234  11.698  0.3219  0.5976  0.8932
 4659TIP3   OH235467   4.044   0.991   4.178  0.0852  0.2235  0.3897
 4659TIP3    H135468   4.090   0.907   4.184  0.6601  0.5463  0.6262
 4659TIP3    H235469   4.112   1.056   4.195 -0.3421  0.7394  0.1407
 4660TIP3   OH235470   5.188   0.452   3.677  0.2661 -0.5356 -0.0410
 4660TIP3    H135471   5.185   0.519   3.745  1.4627 -1.9245  1.4783
 4660TIP3    H235472   5.097   0.442   3.649  0.0640  1.6771 -0.3300
 4661TIP3   OH235473   0.723   2.175  14.613  0.3587  0.1904  0.3196
 4661TIP3    H135474   0.817   2.158  14.617  0.7908  1.5005 -2.2709
 4661TIP3    H235475   0.717   2.267  14.588 -1.6445  0.3212  1.1598
 4662TIP3   OH235476   4.308   4.443  15.377 -0.1224 -0.2636 -0.2174
 4662TIP3    H135477   4.311   4.360  15.424  0.7462 -0.2167 -0.1814
 4662TIP3    H235478   4.303   4.509  15.446  0.9718 -0.2044 -0.1726
 4663TIP3   OH235479   3.450   0.632   0.574  0.2183 -0.3903 -0.3621
 4663TIP3    H135480   3.483   0.543   0.590  0.9937  0.1028  0.9190
 4663TIP3    H235481   3.527   0.688   0.584 -0.2337  0.4333 -1.3195
 4664TIP3   OH235482   4.287   4.653   4.760  0.3091  0.5529  0.2026
 4664TIP3    H135483   4.227   4.674   4.832  1.3447  1.8671  0.7364
 4664TIP3    H235484   4.267   4.718   4.693  0.0673 -0.0134 -0.2837
 4665TIP3   OH235485   6.286   2.883   4.529  0.0623  0.3796  0.0223
 4665TIP3    H135486   6.381   2.896   4.538  0.7963 -2.1371 -2.5551
 4665TIP3    H235487   6.270   2.795   4.563 -1.8631  1.5411  2.4829
 4666TIP3   OH235488   0.031   0.208  15.765  0.0148  0.4186  0.2645
 4666TIP3    H135489   0.101   0.242  15.821 -1.0494  0.9551  1.3027
 4666TIP3    H235490   0.056   0.117  15.748 -0.2533 -0.1504  2.6497
 4667TIP3   OH235491   4.560   5.444   1.838 -0.2759 -0.0130 -0.1649
 4667TIP3    H135492   4.585   5.537   1.836  1.4539 -0.4169 -3.6086
 4667TIP3    H235493   4.634   5.401   1.882  1.4418 -0.2107 -2.9867
 4668TIP3   OH235494   1.181   6.103  15.570  0.3363  0.0036  0.2032
 4668TIP3    H135495   1.270   6.068  15.564 -0.2516 -3.0987  4.6475
 4668TIP3    H235496   1.126   6.036  15.529 -0.2159  0.0016  0.9312
 4669TIP3   OH235497   1.951   5.452   4.111  0.2723 -0.5488  0.3534
 4669TIP3    H135498   1.992   5.528   4.154  0.6169 -1.7874  2.3475
 4669TIP3    H235499   1.857   5.467   4.122  0.3423 -0.5416  1.0333
 4670TIP3   OH235500   5.233   2.193  11.080 -0.2849  0.4794 -0.0990
 4670TIP3    H135501   5.325   2.217  11.076 -0.4174  0.9203 -0.6462
 4670TIP3    H235502   5.213   2.159  10.993 -0.1832 -1.3787  0.5455
 4671TIP3   OH235503   0.287   2.385   0.206  0.1499  0.6685 -0.3221
 4671TIP3    H135504   0.323   2.321   0.145  1.1707  0.2981  0.6400
 4671TIP3    H235505   0.194   2.363   0.212  0.2446  0.0727 -0.9614
 4672TIP3   OH235506   5.088   1.327  14.194  0.9995 -0.1653  0.4831
 4672TIP3    H135507   5.158   1.271  14.226 -0.2521 -1.6604  0.7164
 4672TIP3    H235508   5.061   1.287  14.111  0.4258  0.3900  0.3905
 4673TIP3   OH235509   6.178   3.750  15.396 -0.3820 -0.4384  0.5873
 4673TIP3    H135510   6.256   3.733  15.342  0.7553  2.5928  1.0810
 4673TIP3    H235511   6.204   3.725  15.484 -0.9308 -1.8500  0.3762
 4674TIP3   OH235512   3.302   2.740   6.322  0.9153 -0.0377 -0.3764
 4674TIP3    H135513   3.388   2.705   6.298  0.2547 -1.4729 -0.7315
 4674TIP3    H235514   3.322   2.823   6.367  2.5205 -0.7327  0.2673
 4675TIP3   OH235515   3.529   0.648  12.018 -0.4465 -0.8645  0.4682
 4675TIP3    H135516   3.560   0.560  11.994 -0.8976 -1.1923  1.0689
 4675TIP3    H235517   3.496   0.685  11.936  1.3656 -0.5540 -0.1791
 4676TIP3   OH235518   3.795   6.808   3.253  0.2356 -0.2198  0.5516
 4676TIP3    H135519   3.712   6.823   3.299  0.1274 -0.2197  0.3579
 4676TIP3    H235520   3.813   6.715   3.265 -0.0563 -0.3287  0.1592
 4677TIP3   OH235521   4.051   2.308   2.433 -0.2084 -0.3670  0.1097
 4677TIP3    H135522   4.053   2.287   2.526  1.0604  2.5197  0.8496
 4677TIP3    H235523   3.967   2.352   2.419  0.5173  1.1560  0.4236
 4678TIP3   OH235524   5.230   3.948  10.763  0.4365 -0.4565  0.3112
 4678TIP3    H135525   5.223   3.959  10.668  0.6321 -0.6078  0.2788
 4678TIP3    H235526   5.141   3.959  10.795  0.5987  1.1758  0.2809
 4679TIP3   OH235527   4.823   2.590  16.762 -0.1196  0.0446 -0.5497
 4679TIP3    H135528   4.821   2.496  16.780 -0.4581 -0.2793 -2.0969
 4679TIP3    H235529   4.909   2.618  16.794  0.4810 -1.0445 -1.1384
 4680TIP3   OH235530   0.100   3.483   1.416 -0.5664 -0.1471  0.0431
 4680TIP3    H135531   0.179   3.432   1.435 -0.9760 -0.8776 -0.1599
 4680TIP3    H235532   0.028   3.428   1.448 -1.1476 -0.5612 -1.8678
 4681TIP3   OH235533   4.962   6.303   6.298 -0.1307  0.4367  0.6097
 4681TIP3    H135534   5.057   6.309   6.314  0.4212 -3.4707 -0.0657
 4681TIP3    H235535   4.953   6.315   6.204  0.2462 -2.1384  0.1555
 4682TIP3   OH235536   2.932   0.294   0.135 -0.1861 -0.0888  0.0548
 4682TIP3    H135537   3.008   0.353   0.129  0.2569 -0.7883 -2.0633
 4682TIP3    H235538   2.859   0.352   0.156  0.2282  1.2897 -1.9922
 4683TIP3   OH235539   3.324   1.666  11.003 -0.0314  0.7739 -0.7396
 4683TIP3    H135540   3.315   1.758  11.026  0.7563  0.8545 -0.7407
 4683TIP3    H235541   3.396   1.663  10.940 -1.7665  0.4944 -2.8466
 4684TIP3   OH235542   6.099   4.804   5.907  0.3656 -0.0652  0.0356
 4684TIP3    H135543   6.156   4.845   5.842 -0.0316 -0.6725 -0.7075
 4684TIP3    H235544   6.153   4.738   5.949  0.5714  0.2135  0.2186
 4685TIP3   OH235545   3.621   0.907  12.351  0.2289  0.2242 -0.3042
 4685TIP3    H135546   3.544   0.856  12.328  1.7962 -3.0881  1.0193
 4685TIP3    H235547   3.686   0.886  12.283  0.2524  2.4914 -1.0797
 4686TIP3   OH235548   5.549   3.035  13.896 -0.3037 -0.3859 -0.1211
 4686TIP3    H135549   5.495   2.977  13.842 -0.0288 -0.0715 -0.7470
 4686TIP3    H235550   5.559   2.988  13.979  1.2200 -1.9999 -1.1480
 4687TIP3   OH235551   0.356   2.973   0.882 -0.5208 -0.6368  0.3048
 4687TIP3    H135552   0.265   2.977   0.913  0.0934  1.0174  2.1306
 4687TIP3    H235553   0.350   2.935   0.795 -3.0065 -0.2094  0.2037
 4688TIP3   OH235554   6.738   2.260   4.143  0.7429 -0.2584 -0.2920
 4688TIP3    H135555   6.773   2.341   4.180 -0.3105 -0.3631  0.9615
 4688TIP3    H235556   6.760   2.192   4.207 -1.4354 -0.3828  0.3940
 4689TIP3   OH235557   4.835   0.574  15.434  0.4581  0.1541 -0.6535
 4689TIP3    H135558   4.873   0.571  15.346 -0.0560 -3.0708 -0.9107
 4689TIP3    H235559   4.905   0.610  15.489  2.0596 -0.8899 -1.9011
 4690TIP3   OH235560   3.796   1.365  11.709 -0.2428 -0.1163 -0.3462
 4690TIP3    H135561   3.735   1.381  11.637 -0.1695  2.2041  0.0251
 4690TIP3    H235562   3.770   1.428  11.777  0.2555 -1.6148  1.3259
 4691TIP3   OH235563   4.393   6.466   1.171 -0.2216 -0.2926 -0.6166
 4691TIP3    H135564   4.370   6.473   1.263 -1.1815 -0.6760 -0.8203
 4691TIP3    H235565   4.476   6.417   1.171  0.5986  1.0548  0.1116
 4692TIP3   OH235566   0.404   2.334   4.857  0.1302  0.4462 -0.1952
 4692TIP3    H135567   0.448   2.407   4.901 -0.3908  1.5417 -1.4198
 4692TIP3    H235568   0.407   2.357   4.764 -0.6609 -0.7587 -0.5348
 4693TIP3   OH235569   6.507   0.931   0.680 -0.0150 -0.2418  0.2696
 4693TIP3    H135570   6.510   1.015   0.635 -0.7105  0.9198  2.2597
 4693TIP3    H235571   6.438   0.882   0.634 -2.5329  1.8651  1.4987
 4694TIP3   OH235572   1.601   3.821   4.146  0.3721 -0.8205  0.5366
 4694TIP3    H135573   1.639   3.821   4.058 -0.0196 -2.2371  0.3574
 4694TIP3    H235574   1.507   3.810   4.133  0.1988 -0.1342  1.1077
 4695TIP3   OH235575   0.034   0.932  14.211  0.1378  0.1726 -0.2309
 4695TIP3    H135576  -0.058   0.952  14.195  0.7170  2.1189 -1.5827
 4695TIP3    H235577   0.070   0.915  14.124  0.7468 -2.3309  0.4372
 4696TIP3   OH235578   2.294   3.707  14.750  0.0766 -0.3433  0.1135
 4696TIP3    H135579   2.369   3.746  14.795 -0.7122  0.0621  1.1081
 4696TIP3    H235580   2.223   3.708  14.815 -1.0270  0.0397 -1.0439
 4697TIP3   OH235581   1.029   3.879   4.131 -1.1204 -0.3564 -0.1311
 4697TIP3    H135582   0.959   3.823   4.167 -2.6028  2.0925  1.0933
 4697TIP3    H235583   1.075   3.913   4.208  0.4230 -0.6612 -0.8810
 4698TIP3   OH235584   0.572   2.914  15.271 -0.3027 -0.0054  0.0622
 4698TIP3    H135585   0.533   2.836  15.309 -2.0764 -0.4731 -2.4520
 4698TIP3    H235586   0.547   2.985  15.330 -0.4521 -1.0498  1.2781
 4699TIP3   OH235587   5.499   0.731   4.569 -0.4772 -0.3486 -0.2018
 4699TIP3    H135588   5.417   0.766   4.604 -0.0462  0.2291  0.2424
 4699TIP3    H235589   5.561   0.739   4.641 -0.3208 -1.8863 -0.1529
 4700TIP3   OH235590   4.397   3.296   0.389 -0.5032  0.2491  0.4859
 4700TIP3    H135591   4.381   3.369   0.329  0.9849 -1.2619 -1.9247
 4700TIP3    H235592   4.326   3.234   0.370  0.4176 -0.5829 -0.3909
 4701TIP3   OH235593   6.645   5.974   1.578  0.2435  1.1088 -0.2025
 4701TIP3    H135594   6.688   5.897   1.617  0.6558  0.8400 -1.1467
 4701TIP3    H235595   6.703   6.000   1.507 -0.8325  1.1374 -1.1015
 4702TIP3   OH235596   3.737   5.507   4.279  0.6280 -0.4517 -0.2334
 4702TIP3    H135597   3.756   5.582   4.335  0.5396 -0.6062  0.0095
 4702TIP3    H235598   3.706   5.439   4.340  1.6152 -1.0012 -0.3133
 4703TIP3   OH235599   2.530   6.055  16.826 -0.7171  0.1502 -0.1253
 4703TIP3    H135600   2.528   6.150  16.818 -2.2059  0.1059 -0.6353
 4703TIP3    H235601   2.556   6.038  16.916 -2.0744  1.0798  0.4647
 4704TIP3   OH235602   0.397   3.311  15.788 -0.1313 -0.5925 -0.3760
 4704TIP3    H135603   0.362   3.255  15.718 -4.0563  0.4611  0.4684
 4704TIP3    H235604   0.423   3.249  15.856 -1.6307 -1.5347 -0.5967
 4705TIP3   OH235605   0.938   5.103  12.984 -0.0033  0.1166  0.4157
 4705TIP3    H135606   0.866   5.105  12.922  2.2268  1.0857 -2.3702
 4705TIP3    H235607   0.986   5.023  12.963  0.8497  0.5044  0.8157
 4706TIP3   OH235608   6.005   3.713   0.196  0.2400 -0.2004 -0.0563
 4706TIP3    H135609   5.936   3.771   0.165  0.5886  0.2515  0.0102
 4706TIP3    H235610   6.084   3.766   0.197  0.6202 -0.7479 -0.2461
 4707TIP3   OH235611   3.458   5.769   4.724  0.0795 -0.4436  0.0076
 4707TIP3    H135612   3.497   5.854   4.742 -0.8515  0.0060 -0.0412
 4707TIP3    H235613   3.473   5.719   4.804  1.2354 -0.4727 -0.2192
 4708TIP3   OH235614   3.720   4.723   1.770  0.3049 -0.3507  0.2246
 4708TIP3    H135615   3.673   4.806   1.758 -1.5540 -1.1864  1.2703
 4708TIP3    H235616   3.798   4.732   1.715 -0.4369  1.6160 -0.6182
 4709TIP3   OH235617   6.024   4.426   0.743  0.6372 -0.2319  0.3039
 4709TIP3    H135618   6.027   4.337   0.780  1.8211 -0.0550  0.6803
 4709TIP3    H235619   6.107   4.435   0.696  1.4894  1.3852  1.9827
 4710TIP3   OH235620   2.930   0.083  16.731  0.0624 -0.5309  0.7468
 4710TIP3    H135621   2.984   0.033  16.670 -0.4210  1.2384 -1.2643
 4710TIP3    H235622   2.967   0.064  16.818  2.8070 -0.7085 -0.3717
 4711TIP3   OH235623   6.355   0.214  10.937 -1.0255  0.1512 -0.5189
 4711TIP3    H135624   6.372   0.167  11.019 -0.0642  1.3529  0.0073
 4711TIP3    H235625   6.272   0.260  10.953 -2.0182 -1.3591 -1.0694
 4712TIP3   OH235626   0.932   3.460   1.004  1.2095 -0.4113  0.1808
 4712TIP3    H135627   1.000   3.470   1.071 -0.0027  1.4599  1.2418
 4712TIP3    H235628   0.878   3.539   1.013 -0.0029 -0.9214 -1.8919
 4713TIP3   OH235629   1.475   3.992  11.232  0.5985 -0.1184 -0.1998
 4713TIP3    H135630   1.423   4.067  11.204  1.7424  0.1245 -1.7872
 4713TIP3    H235631   1.426   3.956  11.307 -1.2229  0.7717 -0.8956
 4714TIP3   OH235632   2.375   3.123  11.220 -0.3947 -0.1324 -0.4277
 4714TIP3    H135633   2.424   3.051  11.260 -1.5493 -1.9836 -2.1557
 4714TIP3    H235634   2.436   3.162  11.158  0.1132  0.1829  0.2468
 4715TIP3   OH235635   4.400   3.209   3.932  0.4727 -0.4903 -0.3128
 4715TIP3    H135636   4.385   3.285   3.876 -0.9305 -0.8072 -0.4046
 4715TIP3    H235637   4.446   3.147   3.875  1.2216  0.1056 -0.3722
 4716TIP3   OH235638   6.735   1.675  10.569 -0.1757 -0.2993  0.0139
 4716TIP3    H135639   6.642   1.699  10.567 -0.4049 -1.1748 -1.6330
 4716TIP3    H235640   6.736   1.588  10.610  0.0929  0.2817  1.2833
 4717TIP3   OH235641   2.574   2.518   4.935 -0.3621  0.4195 -0.6266
 4717TIP3    H135642   2.575   2.430   4.897 -0.6239 -0.2769  0.8859
 4717TIP3    H235643   2.514   2.568   4.879 -1.0235 -0.6610 -0.9010
 4718TIP3   OH235644   6.133   0.226   0.101 -0.1516  0.2075  0.0300
 4718TIP3    H135645   6.049   0.257   0.068  0.4788  2.4038  0.3433
 4718TIP3    H235646   6.141   0.138   0.066 -1.9250  0.4717 -1.1889
 4719TIP3   OH235647   2.484   0.577   5.377 -0.3397 -0.5289 -0.0841
 4719TIP3    H135648   2.570   0.589   5.418  0.3048  0.0924 -1.5470
 4719TIP3    H235649   2.440   0.512   5.433  0.6638 -0.0942  1.2803
 4720TIP3   OH235650   0.850   1.943  11.604 -0.2426  0.7842 -0.0568
 4720TIP3    H135651   0.768   1.895  11.591  0.5577 -0.5469 -0.3069
 4720TIP3    H235652   0.822   2.031  11.630 -1.7897  1.0043 -2.2416
 4721TIP3   OH235653   2.219   5.426   5.142 -0.1094  0.0056  0.3655
 4721TIP3    H135654   2.277   5.468   5.078 -0.8984  2.5324  1.1956
 4721TIP3    H235655   2.143   5.483   5.147 -0.4621 -0.5484  2.9314
 4722TIP3   OH235656   2.110   3.805   5.050 -0.3310  0.6284  0.3574
 4722TIP3    H135657   2.065   3.873   4.998  0.6340  1.7157  0.9017
 4722TIP3    H235658   2.177   3.771   4.991 -0.0142  1.0241  0.4839
 4723TIP3   OH235659   4.371   2.350   2.957  0.4183  0.0242  0.3885
 4723TIP3    H135660   4.460   2.336   2.926  0.2215  1.1776 -0.7747
 4723TIP3    H235661   4.378   2.420   3.022  0.0867  1.9852 -1.5851
 4724TIP3   OH235662   5.724   4.874   5.467 -0.1308 -0.2665  0.0721
 4724TIP3    H135663   5.804   4.839   5.505 -0.1091 -0.1376  0.1469
 4724TIP3    H235664   5.752   4.914   5.385  0.0350  0.5624  0.5160
 4725TIP3   OH235665   5.434   3.152   3.724 -0.5241 -0.9619  0.0541
 4725TIP3    H135666   5.344   3.121   3.734 -1.0230  0.7739  1.6514
 4725TIP3    H235667   5.436   3.236   3.771  2.5814 -2.1793  2.5321
 4726TIP3   OH235668   4.962   2.890   0.506 -0.4714  0.2181 -0.1168
 4726TIP3    H135669   5.008   2.852   0.431 -0.9265  0.7904 -0.6946
 4726TIP3    H235670   4.996   2.979   0.512 -1.4091  0.6100 -0.4775
 4727TIP3   OH235671   5.418   6.228   0.892 -0.3454  0.1970 -0.8498
 4727TIP3    H135672   5.485   6.164   0.915  1.0438  2.4681  2.0885
 4727TIP3    H235673   5.350   6.217   0.959 -1.4510  0.0062 -1.9560
 4728TIP3   OH235674   1.971   1.390  14.676 -0.3409 -0.5019 -0.0083
 4728TIP3    H135675   2.014   1.308  14.698  0.8190 -0.4138 -1.8114
 4728TIP3    H235676   2.029   1.458  14.712  0.1497 -0.4205 -0.9412
 4729TIP3   OH235677   5.127   5.720   1.910 -0.1006 -0.2527  0.8946
 4729TIP3    H135678   5.116   5.630   1.878  1.6891 -0.4204  0.6911
 4729TIP3    H235679   5.216   5.724   1.943 -0.6191  1.0516  2.2894
 4730TIP3   OH235680   5.017   1.216   4.804 -0.3123  0.7436 -0.1488
 4730TIP3    H135681   5.109   1.241   4.807  0.6369 -2.1351 -1.3546
 4730TIP3    H235682   5.008   1.148   4.871 -0.5637 -1.5308 -2.3344
 4731TIP3   OH235683   3.975   5.531  16.870  0.4475 -0.4395 -0.3572
 4731TIP3    H135684   3.911   5.569  16.810 -0.8365  1.7145  2.1388
 4731TIP3    H235685   4.047   5.594  16.871  0.3743 -0.3517  0.4185
 4732TIP3   OH235686   5.154   4.584  12.645 -0.0020 -0.0376 -0.7864
 4732TIP3    H135687   5.184   4.651  12.706  0.5204 -0.2329 -0.8199
 4732TIP3    H235688   5.233   4.532  12.626 -0.5963 -1.3140  0.0735
 4733TIP3   OH235689   2.581   4.513  12.517  0.6016 -0.7593  0.2315
 4733TIP3    H135690   2.656   4.564  12.485 -0.4752 -0.2633 -1.7076
 4733TIP3    H235691   2.505   4.566  12.493 -0.4096 -1.5426  1.5943
 4734TIP3   OH235692   4.027   6.076  15.524  0.0268  0.2904 -0.0718
 4734TIP3    H135693   3.949   6.028  15.494  0.1252 -0.1321  0.3498
 4734TIP3    H235694   3.993   6.141  15.585  0.0844 -0.4998  0.8376
 4735TIP3   OH235695   4.384   5.196   4.704 -0.3102  0.1741 -0.0331
 4735TIP3    H135696   4.454   5.136   4.678 -0.1623 -0.2553  1.2817
 4735TIP3    H235697   4.430   5.271   4.742 -0.4679  1.4310 -2.1879
 4736TIP3   OH235698   2.368   4.744   5.669  0.2229 -0.1848  0.6345
 4736TIP3    H135699   2.384   4.674   5.606 -1.2969 -1.3727  1.5028
 4736TIP3    H235700   2.447   4.745   5.724 -0.0331 -1.7834  1.0907
 4737TIP3   OH235701   5.298   3.343  11.268  0.0458 -0.2974  0.1953
 4737TIP3    H135702   5.308   3.402  11.342 -2.0863 -0.6718  0.8614
 4737TIP3    H235703   5.387   3.327  11.237  0.7596  2.4232  0.6126
 4738TIP3   OH235704   0.959   3.524   4.576  0.2020 -0.6620  0.3504
 4738TIP3    H135705   0.900   3.502   4.504  1.0784 -0.7665 -0.3534
 4738TIP3    H235706   1.010   3.445   4.591  0.4112 -0.4641  0.7119
 4739TIP3   OH235707   0.154   4.353  14.011  0.2806  0.2439 -0.1463
 4739TIP3    H135708   0.122   4.286  14.072 -0.1864  1.4981  1.0416
 4739TIP3    H235709   0.144   4.313  13.925 -3.1481 -0.0379  0.2548
 4740TIP3   OH235710   2.317   2.672  12.222  0.8954  0.3983  0.1629
 4740TIP3    H135711   2.326   2.767  12.230 -0.6382  0.5129  0.8388
 4740TIP3    H235712   2.283   2.658  12.134  1.8127  0.3932 -0.2086
 4741TIP3   OH235713   3.243   0.863   5.418 -0.0800  0.1382 -0.1111
 4741TIP3    H135714   3.313   0.814   5.461 -1.2158 -0.9541  0.5555
 4741TIP3    H235715   3.165   0.845   5.471 -0.9883  0.8327 -1.1749
 4742TIP3   OH235716   2.061   4.958   6.319 -0.0037 -0.6152 -0.2598
 4742TIP3    H135717   2.038   4.888   6.379 -2.0479  1.5546  1.7009
 4742TIP3    H235718   2.027   5.038   6.360  0.7372  1.3549 -3.1114
 4743TIP3   OH235719   4.884   4.807   0.985  0.4035  0.4199 -0.6867
 4743TIP3    H135720   4.863   4.900   0.978 -0.5111  0.5582  2.4594
 4743TIP3    H235721   4.803   4.767   1.015  0.8216 -1.4212 -1.8576
 4744TIP3   OH235722   1.032   2.987   3.775  0.7284  0.0577 -0.5602
 4744TIP3    H135723   1.031   2.892   3.789  1.3564  0.0293 -0.6659
 4744TIP3    H235724   0.942   3.009   3.753  0.1872 -0.2464  1.1602
 4745TIP3   OH235725   6.470   6.255  12.716  0.3575  0.3769  0.4342
 4745TIP3    H135726   6.392   6.307  12.736 -0.1231  0.6507 -1.8306
 4745TIP3    H235727   6.441   6.164  12.721  0.0150  0.4652  0.0661
 4746TIP3   OH235728   6.680   6.592   1.123 -0.0078 -0.6221 -0.1410
 4746TIP3    H135729   6.648   6.668   1.172  1.3209 -0.1949  0.1261
 4746TIP3    H235730   6.649   6.606   1.034  0.3134  0.3109 -0.1191
 4747TIP3   OH235731   4.981   3.821  11.893 -0.4381  0.0180  0.5842
 4747TIP3    H135732   5.002   3.747  11.949  1.1000  0.9961  1.3845
 4747TIP3    H235733   4.975   3.784  11.805 -1.0567 -1.2420  1.1313
 4748TIP3   OH235734   4.635   4.742   6.414  0.0531 -0.3708 -0.3358
 4748TIP3    H135735   4.724   4.760   6.443  1.0096 -0.4073 -3.0487
 4748TIP3    H235736   4.629   4.647   6.409 -0.4209 -0.4018  0.5497
 4749TIP3   OH235737   0.226   1.640   3.204  0.5190 -0.0964  0.6117
 4749TIP3    H135738   0.220   1.572   3.272  1.5710 -0.5502  0.2722
 4749TIP3    H235739   0.155   1.700   3.224 -1.9599 -2.4623 -0.3879
 4750TIP3   OH235740   0.626   4.021  16.645 -0.3371  0.2845  0.0911
 4750TIP3    H135741   0.549   4.077  16.657 -1.3557 -0.9600 -0.5058
 4750TIP3    H235742   0.615   3.982  16.559  2.3631  2.1433 -1.2366
 4751TIP3   OH235743   5.713   5.277  13.011 -0.1234  0.1020 -0.7368
 4751TIP3    H135744   5.791   5.318  13.049  0.5159 -0.5654 -1.2959
 4751TIP3    H235745   5.731   5.183  13.016 -2.7628 -0.4123  3.1542
 4752TIP3   OH235746   3.367   6.666  11.310  0.1620 -0.1941  0.1233
 4752TIP3    H135747   3.302   6.606  11.347 -0.4414 -0.4033 -1.2158
 4752TIP3    H235748   3.451   6.625  11.328 -0.1897 -0.9197  0.1207
 4753TIP3   OH235749   1.425   5.481   6.023  0.6920  0.2433  0.0425
 4753TIP3    H135750   1.423   5.577   6.022 -0.1571  0.2804  1.9921
 4753TIP3    H235751   1.517   5.459   6.032  0.9880  0.8243 -1.2638
 4754TIP3   OH235752   0.885   2.108   4.789  0.0131  0.3354 -0.3211
 4754TIP3    H135753   0.874   2.183   4.848  1.4286  0.7433 -0.5513
 4754TIP3    H235754   0.796   2.078   4.772 -0.5183  1.3547  0.5578
 4755TIP3   OH235755   5.345   6.557   1.159 -0.3312 -0.2100  0.3394
 4755TIP3    H135756   5.412   6.567   1.091  1.0828 -2.0176  1.3676
 4755TIP3    H235757   5.344   6.641   1.204  1.4643 -0.1890  0.4360
 4756TIP3   OH235758   0.874   6.640  15.614 -0.3387 -0.1845 -0.4481
 4756TIP3    H135759   0.857   6.712  15.675 -0.0042 -0.6817  0.2522
 4756TIP3    H235760   0.789   6.597  15.604 -0.4175 -0.0363 -0.4186
 4757TIP3   OH235761   3.188   1.048   1.823 -0.3700 -0.2311 -0.0898
 4757TIP3    H135762   3.192   1.108   1.897 -0.8075  3.2007 -2.6400
 4757TIP3    H235763   3.119   0.985   1.847 -0.0940  0.3727  2.5819
 4758TIP3   OH235764   3.621   1.289   4.945 -0.1833 -0.0770  0.3982
 4758TIP3    H135765   3.684   1.217   4.940  0.5506  0.4393  1.7112
 4758TIP3    H235766   3.665   1.363   4.903 -0.5307 -0.1186 -0.0438
 4759TIP3   OH235767   4.901   3.880   2.216  0.0824  0.3830  0.0562
 4759TIP3    H135768   4.886   3.886   2.122 -0.5218 -1.1146  0.0337
 4759TIP3    H235769   4.814   3.871   2.254  0.4052 -0.5162  0.6200
 4760TIP3   OH235770   5.215   3.938   1.000  0.3190  0.6289  0.0270
 4760TIP3    H135771   5.144   3.947   0.937  0.3631 -0.1869 -0.1601
 4760TIP3    H235772   5.174   3.894   1.075  0.4612  0.8181  0.2164
 4761TIP3   OH235773   0.151   5.281   3.862  0.1979  0.7005  0.3617
 4761TIP3    H135774   0.149   5.191   3.828 -0.7981  1.0280 -0.5148
 4761TIP3    H235775   0.077   5.285   3.923  1.0741  0.5522  1.4746
 4762TIP3   OH235776   0.117   4.719  16.098 -0.0445  0.1944  0.6454
 4762TIP3    H135777   0.068   4.766  16.030  0.3475  0.2164  0.3707
 4762TIP3    H235778   0.054   4.656  16.134 -0.6772  1.1492  1.2512
 4763TIP3   OH235779   3.497   6.693  13.535  0.4934 -0.2943 -1.0503
 4763TIP3    H135780   3.487   6.732  13.448  0.2262 -0.8415 -1.2739
 4763TIP3    H235781   3.567   6.628  13.524  1.6669  0.8296 -0.4287
 4764TIP3   OH235782   3.255   1.558  11.282 -0.4217  0.4480  0.6113
 4764TIP3    H135783   3.199   1.612  11.338  0.8921  2.1377  0.3693
 4764TIP3    H235784   3.298   1.620  11.224  1.0870 -0.8840  0.2250
 4765TIP3   OH235785   1.614   6.561   0.441  0.7331  0.2018 -0.8195
 4765TIP3    H135786   1.671   6.555   0.364  0.2894 -2.0973 -1.0421
 4765TIP3    H235787   1.626   6.478   0.487  0.0588  1.0255  0.9547
 4766TIP3   OH235788   4.953   2.002  12.396  0.3499 -0.2914  0.1491
 4766TIP3    H135789   4.968   1.971  12.485  0.3037  0.0410  0.2748
 4766TIP3    H235790   5.032   2.051  12.374  1.0413 -1.6717 -0.5757
 4767TIP3   OH235791   3.438   0.152   5.808  0.3217 -0.2923  0.3162
 4767TIP3    H135792   3.456   0.208   5.883  0.0156  1.0380 -0.5751
 4767TIP3    H235793   3.501   0.080   5.816 -0.1972 -0.5942  2.2385
 4768TIP3   OH235794   5.954   2.469  15.315  0.2723  0.0157 -0.3956
 4768TIP3    H135795   6.049   2.463  15.324  0.3164  0.9695 -0.1227
 4768TIP3    H235796   5.934   2.563  15.323 -0.7995 -0.2756  0.6546
 4769TIP3   OH235797   0.603   4.097   4.481  0.5445 -0.4629 -0.5101
 4769TIP3    H135798   0.591   4.005   4.505 -1.2217 -0.3537 -0.8757
 4769TIP3    H235799   0.686   4.121   4.522 -0.7192 -1.1879  2.7823
 4770TIP3   OH235800   4.923   2.282  13.921  0.3122 -0.2507  0.0432
 4770TIP3    H135801   4.952   2.311  13.835  0.5179 -0.5440  0.0136
 4770TIP3    H235802   4.958   2.193  13.930 -2.7614 -1.7051 -1.0969
 4771TIP3   OH235803   4.038   0.908   2.665  0.0518 -0.1076 -0.2012
 4771TIP3    H135804   3.953   0.936   2.634 -0.6487 -2.0183 -0.1574
 4771TIP3    H235805   4.101   0.953   2.608 -1.0264  0.3068 -1.0949
 4772TIP3   OH235806   4.697   0.524   4.008 -0.1912 -0.4056 -0.6098
 4772TIP3    H135807   4.677   0.493   3.920 -2.8927 -0.6569  0.0128
 4772TIP3    H235808   4.739   0.609   3.995  0.7172 -1.0437 -2.1400
 4773TIP3   OH235809   2.747   5.957   1.299 -0.0064 -0.0323  0.1342
 4773TIP3    H135810   2.833   5.922   1.278 -0.0243 -0.1404  0.2381
 4773TIP3    H235811   2.729   6.020   1.230  0.1732  0.0187  0.1329
 4774TIP3   OH235812   0.569   0.924   4.041  0.1047 -0.5032 -0.0375
 4774TIP3    H135813   0.581   0.854   4.105  0.9534 -1.6963 -1.4526
 4774TIP3    H235814   0.549   1.001   4.094  2.6453 -0.9909  1.8377
 4775TIP3   OH235815   3.599   2.025   1.885  0.2905  0.0261 -0.3995
 4775TIP3    H135816   3.520   1.993   1.928  0.4456 -0.3502 -0.3911
 4775TIP3    H235817   3.607   1.970   1.807  1.6038 -1.2428  0.5840
 4776TIP3   OH235818   1.486   3.812  11.469  0.3643 -0.0555 -0.8113
 4776TIP3    H135819   1.483   3.727  11.426 -1.1166 -0.1356 -0.6207
 4776TIP3    H235820   1.394   3.838  11.476  0.5563  0.1932  1.7821
 4777TIP3   OH235821   5.810   0.828   0.775  0.0266  0.4275  0.0240
 4777TIP3    H135822   5.869   0.754   0.786  1.8887  2.0706  1.9571
 4777TIP3    H235823   5.739   0.811   0.836 -0.2075 -0.3169 -0.4386
 4778TIP3   OH235824   5.229   2.179   4.913 -0.2421  0.1557  0.3112
 4778TIP3    H135825   5.239   2.263   4.958  1.1527 -0.2222  0.7406
 4778TIP3    H235826   5.182   2.201   4.832  0.4027  1.4035  0.2582
 4779TIP3   OH235827   6.620   4.799   6.250 -0.1307 -0.0526  0.2357
 4779TIP3    H135828   6.659   4.788   6.337 -0.0817 -0.1963  0.1953
 4779TIP3    H235829   6.531   4.764   6.259 -0.1108 -0.1073  0.2157
 4780TIP3   OH235830   6.082   2.617  16.784  0.6130  0.0927 -0.1836
 4780TIP3    H135831   6.113   2.611  16.874 -0.7685  0.7996  0.3662
 4780TIP3    H235832   6.096   2.708  16.759 -1.4159  0.5538  0.2522
 4781TIP3   OH235833   3.874   4.550   5.295 -0.0123  0.8319 -0.4775
 4781TIP3    H135834   3.918   4.629   5.327  0.2253  0.0463  1.2994
 4781TIP3    H235835   3.799   4.541   5.353  0.4189 -0.6673 -0.1144
 4782TIP3   OH235836   1.068   0.916  11.307 -0.1000 -0.0796  0.0569
 4782TIP3    H135837   1.107   0.959  11.231  2.9959  0.9066  2.0182
 4782TIP3    H235838   1.123   0.839  11.323 -1.1131 -0.6571  0.8813
 4783TIP3   OH235839   6.585   5.689  14.512 -0.1205  0.1143 -0.2925
 4783TIP3    H135840   6.680   5.697  14.523 -0.1169 -0.6612  0.2816
 4783TIP3    H235841   6.560   5.616  14.568 -0.9249 -0.3012 -1.1598
 4784TIP3   OH235842   5.557   2.061   4.236 -0.1599  0.5099  0.2281
 4784TIP3    H135843   5.570   1.973   4.271 -1.8415  0.1871  0.1123
 4784TIP3    H235844   5.596   2.118   4.302  1.4784 -0.3035  0.0349
 4785TIP3   OH235845   3.635   5.858  11.703 -0.2937  0.2465 -0.0555
 4785TIP3    H135846   3.561   5.852  11.643  0.5731  0.4586 -1.1998
 4785TIP3    H235847   3.666   5.768  11.713 -0.6168  0.1764  0.3024
 4786TIP3   OH235848   5.741   5.690   1.135 -0.3972  0.0908 -0.1552
 4786TIP3    H135849   5.786   5.768   1.103  0.3459 -0.1701  0.2403
 4786TIP3    H235850   5.741   5.629   1.061  0.7164 -0.2544  0.1192
 4787TIP3   OH235851   4.345   3.762   6.712  0.4310  0.3034  0.0452
 4787TIP3    H135852   4.399   3.722   6.643  0.5231 -1.1744  0.9419
 4787TIP3    H235853   4.309   3.840   6.671  0.6149 -0.4477 -1.6343
 4788TIP3   OH235854   3.881   4.837  12.616  0.3617 -0.0212 -0.4787
 4788TIP3    H135855   3.885   4.908  12.552 -0.4792  1.3949  0.9841
 4788TIP3    H235856   3.811   4.780  12.584  0.2598  0.4160 -1.0422
 4789TIP3   OH235857   0.362   3.898   0.232  0.1362  0.1571  0.5918
 4789TIP3    H135858   0.441   3.949   0.213  0.0374 -0.0815 -0.5169
 4789TIP3    H235859   0.395   3.814   0.262  0.3364 -0.2581 -0.7216
 4790TIP3   OH235860   6.264   4.547   3.056 -0.3080 -0.4071  0.3122
 4790TIP3    H135861   6.234   4.637   3.043  0.7020 -0.0837  0.1392
 4790TIP3    H235862   6.312   4.526   2.976 -0.3745 -1.0321  0.4331
 4791TIP3   OH235863   0.216   0.059   0.816  0.1064 -0.2312 -0.0039
 4791TIP3    H135864   0.244  -0.027   0.848 -1.7064 -0.5796  0.7607
 4791TIP3    H235865   0.297   0.100   0.786  1.3988 -1.2647  1.8249
 4792TIP3   OH235866   4.224   4.973   2.260  0.1066  0.6145 -0.0885
 4792TIP3    H135867   4.225   5.032   2.185  0.1132 -0.7325 -1.1914
 4792TIP3    H235868   4.166   4.902   2.233 -0.6355  0.5506  1.5607
 4793TIP3   OH235869   2.096   3.634   1.834  0.1881 -0.0626 -1.1366
 4793TIP3    H135870   2.078   3.544   1.862  0.4007 -0.1992 -1.4259
 4793TIP3    H235871   2.067   3.636   1.742 -0.1332  0.2608 -1.0277
 4794TIP3   OH235872   6.472   6.816  10.899 -0.2469 -0.7879  0.3160
 4794TIP3    H135873   6.447   6.733  10.941 -0.7120 -1.3809 -1.0524
 4794TIP3    H235874   6.542   6.791  10.838  0.0971 -0.0385  0.4014
 4795TIP3   OH235875   2.492   2.702  14.118 -0.3781  0.0870 -0.2786
 4795TIP3    H135876   2.578   2.735  14.146 -0.9420 -0.5430  2.5351
 4795TIP3    H235877   2.483   2.731  14.027  2.3653  1.0362 -0.3273
 4796TIP3   OH235878   1.518   6.339  16.821 -0.0241 -0.1756 -0.0439
 4796TIP3    H135879   1.501   6.375  16.734  0.6916  2.3320  0.7838
 4796TIP3    H235880   1.431   6.333  16.861 -0.0658  2.1164  0.3036
 4797TIP3   OH235881   5.554   0.181   3.075 -0.0834 -0.4736  0.3503
 4797TIP3    H135882   5.494   0.233   3.128 -0.1076  0.3153 -0.4240
 4797TIP3    H235883   5.519   0.188   2.986  1.3936  0.3926 -0.1994
 4798TIP3   OH235884   2.009   2.003  15.425 -0.6447 -0.1401 -0.3320
 4798TIP3    H135885   2.052   1.918  15.418  2.9018  1.4903 -0.6095
 4798TIP3    H235886   2.010   2.037  15.336  0.6954  1.3041  0.1881
 4799TIP3   OH235887   1.044   3.921   0.851  0.3307 -0.2241 -0.6396
 4799TIP3    H135888   0.971   3.870   0.887  0.1988  0.7729  0.5600
 4799TIP3    H235889   1.018   3.941   0.761 -1.2152  0.6939 -0.0201
 4800TIP3   OH235890   2.864   0.832  16.049 -0.4153 -0.3027 -0.0757
 4800TIP3    H135891   2.901   0.795  16.130 -2.8585  1.2986  1.9323
 4800TIP3    H235892   2.940   0.867  16.002  0.9292  1.0925  2.8595
 4801TIP3   OH235893   2.566   1.810   5.204 -0.3914  0.0952 -0.4903
 4801TIP3    H135894   2.576   1.904   5.188 -0.9397  0.1314 -0.6261
 4801TIP3    H235895   2.478   1.789   5.172  0.8283 -1.0746 -3.3946
 4802TIP3   OH235896   5.356   1.569   1.333 -0.3372  0.0626  0.0528
 4802TIP3    H135897   5.427   1.590   1.393 -0.7847  0.3909  0.4711
 4802TIP3    H235898   5.310   1.496   1.373 -0.1272 -0.2680 -0.3060
 4803TIP3   OH235899   2.201   1.287  11.949 -0.2319  0.1902 -0.5609
 4803TIP3    H135900   2.217   1.192  11.953 -0.1088  0.2403  1.0068
 4803TIP3    H235901   2.135   1.297  11.881 -1.3181 -1.2107  0.2078
 4804TIP3   OH235902   2.108   6.373  11.864 -0.0227  0.5785 -0.3023
 4804TIP3    H135903   2.107   6.468  11.865 -0.0447  0.5823 -0.5737
 4804TIP3    H235904   2.106   6.350  11.771  0.6695  0.3221 -0.2605
 4805TIP3   OH235905   4.666   4.951  12.504  0.1253  0.4024 -0.1313
 4805TIP3    H135906   4.633   4.861  12.499  0.8295 -0.0313  2.0212
 4805TIP3    H235907   4.602   5.003  12.456 -0.3528 -1.2138 -1.3350
 4806TIP3   OH235908   3.014   5.410  13.296 -0.1528 -0.1708  0.5001
 4806TIP3    H135909   3.105   5.387  13.278 -0.4268  0.2597 -1.6207
 4806TIP3    H235910   2.986   5.346  13.362  1.1667 -1.4278 -0.1021
 4807TIP3   OH235911   5.941   6.169  12.571  0.3982 -0.1519 -0.5701
 4807TIP3    H135912   6.034   6.179  12.590  0.6654 -0.8819 -1.4294
 4807TIP3    H235913   5.917   6.249  12.524  0.3974  0.3719  0.2842
 4808TIP3   OH235914   2.584   0.820   3.128 -0.5381 -0.0439  0.2171
 4808TIP3    H135915   2.516   0.753   3.129 -0.2164 -0.4770 -1.8690
 4808TIP3    H235916   2.663   0.773   3.102  0.4187  0.6169  1.7266
 4809TIP3   OH235917   1.295   2.328   0.875 -0.2690 -0.1140 -0.0841
 4809TIP3    H135918   1.385   2.306   0.901 -0.9835 -1.9547  1.0393
 4809TIP3    H235919   1.306   2.378   0.794  1.8883  2.8591  1.8359
 4810TIP3   OH235920   2.447   4.789   0.039  0.0721  0.4025 -0.6050
 4810TIP3    H135921   2.526   4.836   0.064  0.0842 -0.5048  1.2156
 4810TIP3    H235922   2.378   4.856   0.041  0.9308  1.5788 -3.7937
 4811TIP3   OH235923   6.523   1.022  12.959 -0.3069  0.0411 -0.2883
 4811TIP3    H135924   6.574   1.090  12.916  1.5154 -1.4808 -0.6711
 4811TIP3    H235925   6.553   1.022  13.050 -1.6969  0.9958  0.1928
 4812TIP3   OH235926   3.661   6.377  14.637  0.4904 -0.1640 -0.4750
 4812TIP3    H135927   3.617   6.292  14.634 -0.4905  0.3296 -0.7064
 4812TIP3    H235928   3.595   6.437  14.673  0.9043  0.6458 -1.0256
 4813TIP3   OH235929   2.818   0.835  12.122  0.2500 -0.5968 -0.0361
 4813TIP3    H135930   2.737   0.841  12.171  0.1598  0.0583 -0.2592
 4813TIP3    H235931   2.817   0.747  12.084  0.0695 -0.9064  0.6811
 4814TIP3   OH235932   3.472   1.110  16.701  0.3419  0.4450 -0.1151
 4814TIP3    H135933   3.505   1.184  16.650  0.1791  0.8360  0.3492
 4814TIP3    H235934   3.493   1.131  16.792 -0.2316  0.1969  0.0791
 4815TIP3   OH235935   0.943   3.494   5.445 -0.0184 -0.5051  0.4125
 4815TIP3    H135936   0.982   3.579   5.467  1.1166 -0.9850  0.3394
 4815TIP3    H235937   0.851   3.513   5.429  0.5041  0.9792 -1.1362
 4816TIP3   OH235938   4.914   0.327   3.155 -0.1675 -0.5001 -0.2034
 4816TIP3    H135939   4.845   0.341   3.089  0.0353  0.4058 -0.2322
 4816TIP3    H235940   4.869   0.281   3.226 -1.3847  1.9982  0.7541
 4817TIP3   OH235941   2.692   4.254  12.513  0.4190  0.0421 -0.5246
 4817TIP3    H135942   2.708   4.344  12.486 -0.5702  0.8425  1.3620
 4817TIP3    H235943   2.626   4.221  12.452  1.8067  0.0720 -2.1014
 4818TIP3   OH235944   3.009   6.378  12.031  0.2824  0.1328  0.6208
 4818TIP3    H135945   3.093   6.390  11.987  0.0755 -1.2509 -0.2077
 4818TIP3    H235946   2.944   6.399  11.963 -0.0382 -0.3931  0.7672
 4819TIP3   OH235947   5.938   0.595  16.286 -0.0372 -0.4537  0.3250
 4819TIP3    H135948   5.938   0.500  16.277  1.4417 -0.5374  1.0524
 4819TIP3    H235949   5.957   0.627  16.197  0.7712 -0.8807  0.3374
 4820TIP3   OH235950   1.507   0.288   3.275 -0.1063  0.2543  0.3990
 4820TIP3    H135951   1.579   0.226   3.262 -0.2687  0.2143 -0.3770
 4820TIP3    H235952   1.439   0.237   3.319 -1.6926 -1.2660 -3.3599
 4821TIP3   OH235953   3.090   3.158  14.327  0.3286  0.1092  0.2966
 4821TIP3    H135954   3.056   3.247  14.315  2.8651  1.2563  0.9520
 4821TIP3    H235955   3.013   3.102  14.324 -1.2365  2.1934 -1.4055
 4822TIP3   OH235956   4.907   0.046  11.074  0.2989  0.7996 -0.3868
 4822TIP3    H135957   4.899   0.024  10.981 -0.9460 -0.9745  0.0950
 4822TIP3    H235958   4.818   0.071  11.101  0.8098  2.1390  0.1623
 4823TIP3   OH235959   2.509   4.923   4.986 -0.1639  0.1414 -0.0166
 4823TIP3    H135960   2.502   4.831   5.010 -0.9778  0.6831  2.0208
 4823TIP3    H235961   2.603   4.937   4.974  0.0639 -0.7602  0.5501
 4824TIP3   OH235962   6.427   5.367  13.872  0.2581 -0.2653  0.0344
 4824TIP3    H135963   6.446   5.276  13.895 -2.1876 -0.9471 -0.3676
 4824TIP3    H235964   6.347   5.363  13.819 -1.0562  2.2295  1.5976
 4825TIP3   OH235965   3.227   3.122  14.544  0.3013  0.5847 -0.7548
 4825TIP3    H135966   3.231   3.030  14.570  0.0335  0.7838  0.0314
 4825TIP3    H235967   3.183   3.121  14.459  0.8433 -0.0586 -1.0414
 4826TIP3   OH235968   0.274   3.166  12.627 -0.2267  0.2378 -0.5888
 4826TIP3    H135969   0.191   3.179  12.674 -0.5551 -0.7116 -0.8802
 4826TIP3    H235970   0.321   3.102  12.680 -0.3076 -0.3254 -1.1946
 4827TIP3   OH235971   5.539   3.562  15.546  0.2284  0.6179  0.6683
 4827TIP3    H135972   5.444   3.570  15.538  0.1344 -0.0143  1.0644
 4827TIP3    H235973   5.564   3.503  15.475  0.4448  1.5081 -0.0006
 4828TIP3   OH235974   2.917   1.505  11.280  0.2244 -0.6155  0.4062
 4828TIP3    H135975   2.988   1.463  11.232 -1.1462 -1.6938 -0.7491
 4828TIP3    H235976   2.953   1.590  11.305  1.8644 -1.0612 -0.2844
 4829TIP3   OH235977   0.892   4.031   2.698 -0.4143  0.2423 -0.1640
 4829TIP3    H135978   0.905   4.112   2.649 -0.7958  1.9495  2.3721
 4829TIP3    H235979   0.979   4.007   2.729 -0.5861  1.0064  0.9724
 4830TIP3   OH235980   4.005   2.970   3.616 -0.1440  0.2985  0.1077
 4830TIP3    H135981   4.011   2.975   3.521  0.7144 -0.3707  0.1144
 4830TIP3    H235982   3.965   2.884   3.633 -1.1453  0.7943  0.3357
 4831TIP3   OH235983   1.492   0.940  14.386  0.1984  0.2849 -0.0027
 4831TIP3    H135984   1.555   0.919  14.455 -1.7536 -0.7213  1.5838
 4831TIP3    H235985   1.485   0.859  14.335  0.5232  0.5479 -0.4711
 4832TIP3   OH235986   4.892   4.179   4.181 -0.7187 -0.8639  0.0811
 4832TIP3    H135987   4.869   4.208   4.269 -2.1034 -1.1946 -0.1529
 4832TIP3    H235988   4.811   4.143   4.145 -0.2069 -0.6475 -1.3689
 4833TIP3   OH235989   2.120   0.541  15.671  1.0310 -0.7635 -0.8740
 4833TIP3    H135990   2.205   0.521  15.709 -0.4136 -2.1013  1.9805
 4833TIP3    H235991   2.060   0.541  15.745 -1.3812  0.8323 -2.6655
 4834TIP3   OH235992   2.997   4.715   2.579  0.0973 -0.4889  1.0398
 4834TIP3    H135993   3.048   4.666   2.644  1.4517 -1.1473 -0.4721
 4834TIP3    H235994   2.969   4.794   2.626  3.1335  0.2765  1.7886
 4835TIP3   OH235995   3.045   6.514   3.887 -0.0415  0.0219  0.0123
 4835TIP3    H135996   3.080   6.592   3.930 -2.0077  0.4724  0.9294
 4835TIP3    H235997   2.996   6.468   3.955 -2.0910  0.0164 -1.3581
 4836TIP3   OH235998   6.781   3.693   4.490 -0.7307 -0.2038  0.4254
 4836TIP3    H135999   6.739   3.611   4.466 -0.1205 -0.5205  0.4479
 4836TIP3    H236000   6.825   3.674   4.573  2.1199 -0.7899 -1.1280
 4837TIP3   OH236001   4.040   4.801   2.098 -0.3879  1.1588 -0.5113
 4837TIP3    H136002   3.959   4.851   2.087  0.1054  1.6002 -2.7101
 4837TIP3    H236003   4.024   4.719   2.051  0.8621  1.8269 -2.2011
 4838TIP3   OH236004   2.867   1.964   5.098 -0.4860 -0.0432  0.5510
 4838TIP3    H136005   2.789   1.914   5.122 -0.4627 -0.1656  0.3718
 4838TIP3    H236006   2.895   2.005   5.179 -0.2222 -0.7087  0.8008
 4839TIP3   OH236007   3.614   6.829  14.246  0.3741  0.3742  0.3369
 4839TIP3    H136008   3.561   6.907  14.258 -1.1087 -0.6373  0.6953
 4839TIP3    H236009   3.555   6.756  14.268  0.9935 -0.9872 -2.0536
 4840TIP3   OH236010   2.232   3.253   5.510  0.1490  0.1068 -0.1494
 4840TIP3    H136011   2.305   3.266   5.449 -0.2890 -0.2132 -0.7509
 4840TIP3    H236012   2.168   3.320   5.486 -0.3067 -0.4420 -0.4768
 4841TIP3   OH236013   5.305   3.279   1.577 -0.2719  0.6654 -0.3497
 4841TIP3    H136014   5.239   3.278   1.509  0.2203 -0.4737 -0.8363
 4841TIP3    H236015   5.369   3.212   1.551  1.0347  1.6615  0.1387
 4842TIP3   OH236016   6.775   1.668  13.346 -0.1503  0.5976  0.9374
 4842TIP3    H136017   6.766   1.577  13.316  1.5421  0.1573  1.6271
 4842TIP3    H236018   6.740   1.721  13.275 -0.3544 -0.5596  0.1493
 4843TIP3   OH236019   0.167   6.519   2.214 -0.0158  0.5261  0.0919
 4843TIP3    H136020   0.175   6.605   2.255  0.3614 -0.0146  1.1704
 4843TIP3    H236021   0.144   6.460   2.285  0.0869 -0.3353 -0.5705
 4844TIP3   OH236022   1.472   5.241   1.311  0.1434 -0.2030 -0.8786
 4844TIP3    H136023   1.516   5.186   1.245 -1.9499  1.2250 -3.6853
 4844TIP3    H236024   1.400   5.187   1.343 -1.9189  0.6468 -3.6407
 4845TIP3   OH236025   3.855   5.940  15.809  0.1160 -0.0177 -0.0578
 4845TIP3    H136026   3.949   5.920  15.799  0.5188  1.3191  0.7985
 4845TIP3    H236027   3.819   5.864  15.854  1.3681  0.5583  2.0777
 4846TIP3   OH236028   5.910   2.295   1.281 -0.1051  0.2462 -0.2951
 4846TIP3    H136029   5.983   2.356   1.287  3.8063 -4.0120 -0.0518
 4846TIP3    H236030   5.864   2.304   1.365  1.6874  1.2414  0.6280
 4847TIP3   OH236031   2.402   1.206   5.154 -0.9535  0.4291 -0.2954
 4847TIP3    H136032   2.485   1.203   5.201 -0.5925 -1.1461 -0.9497
 4847TIP3    H236033   2.405   1.288   5.105  0.5704  0.0423 -0.9015
 4848TIP3   OH236034   2.979   6.750   2.249  0.6153  0.6007  0.3826
 4848TIP3    H136035   2.925   6.679   2.215  1.5116  0.5734 -1.0054
 4848TIP3    H236036   2.916   6.820   2.268 -0.1964 -0.3152  1.1945
 4849TIP3   OH236037   5.786   6.462   2.510 -0.0184  0.2529  0.0205
 4849TIP3    H136038   5.758   6.430   2.595  3.8290  0.4390  1.5633
 4849TIP3    H236039   5.809   6.383   2.461 -0.3949  0.2412 -0.1435
 4850TIP3   OH236040   3.874   3.872  14.831 -0.2948  0.7559 -0.4797
 4850TIP3    H136041   3.782   3.882  14.858 -0.6462 -2.1349 -0.2483
 4850TIP3    H236042   3.874   3.791  14.779  2.3649 -0.1299  0.7759
 4851TIP3   OH236043   6.012   2.823   4.783  0.0829 -0.2746 -0.2656
 4851TIP3    H136044   6.086   2.763   4.767  2.3796  0.7980  4.5180
 4851TIP3    H236045   6.050   2.911   4.771  0.4128  0.3665  3.8895
 4852TIP3   OH236046   5.253   6.418  16.266  0.0290  0.3781  0.0568
 4852TIP3    H136047   5.199   6.478  16.215 -0.3506 -0.2339 -0.2752
 4852TIP3    H236048   5.337   6.416  16.222 -0.1094  0.3076 -0.2032
 4853TIP3   OH236049   1.601   3.798   2.303  0.6076  0.2050  0.1102
 4853TIP3    H136050   1.585   3.712   2.265 -0.0533 -0.6411  2.1475
 4853TIP3    H236051   1.514   3.838   2.308  0.9003  0.9922 -0.7567
 4854TIP3   OH236052   4.376   6.122  14.564  0.2680 -0.5816 -0.2077
 4854TIP3    H136053   4.327   6.041  14.580  0.1466 -0.8983 -2.0156
 4854TIP3    H236054   4.410   6.113  14.475 -0.7518  1.8574 -0.9286
 4855TIP3   OH236055   3.066   4.214  16.575 -0.0233 -0.3096 -0.0277
 4855TIP3    H136056   3.037   4.170  16.655 -1.8331  0.3219 -0.2988
 4855TIP3    H236057   3.019   4.169  16.505 -1.6648  1.7694 -0.3405
 4856TIP3   OH236058   6.325   4.577  15.393 -0.1134 -0.0177  0.0612
 4856TIP3    H136059   6.411   4.544  15.420  0.3652  0.8383 -0.3760
 4856TIP3    H236060   6.286   4.609  15.473  0.1253 -0.0820  0.2058
 4857TIP3   OH236061   3.047   0.726  10.418 -0.5479 -0.2541  0.1280
 4857TIP3    H136062   3.107   0.664  10.458  0.8010  0.1583 -1.1633
 4857TIP3    H236063   3.101   0.801  10.395 -1.4393 -0.0380 -1.4687
 4858TIP3   OH236064   3.373   4.338  16.586 -0.0834 -0.0161 -0.4961
 4858TIP3    H136065   3.329   4.257  16.561 -1.2915  0.9285 -1.5683
 4858TIP3    H236066   3.369   4.393  16.508  1.8889  0.6070 -0.2049
 4859TIP3   OH236067   3.869   6.562   4.217 -0.4150 -0.0352 -0.7198
 4859TIP3    H136068   3.881   6.623   4.290 -0.7314  1.3683 -1.7958
 4859TIP3    H236069   3.780   6.528   4.228 -0.4749  0.1974 -0.4866
 4860TIP3   OH236070   3.919   3.108   4.676  0.0565 -0.4890  0.3844
 4860TIP3    H136071   3.928   3.053   4.754  0.5668  0.7457  1.2444
 4860TIP3    H236072   4.008   3.135   4.655 -0.1210 -0.4926 -0.3945
 4861TIP3   OH236073   4.678   4.161  15.852 -0.3201 -0.1657 -0.4085
 4861TIP3    H136074   4.715   4.082  15.892  0.7865  0.7930  0.5546
 4861TIP3    H236075   4.635   4.206  15.925 -0.1424  0.5701 -0.7554
 4862TIP3   OH236076   0.355   3.918   3.750  0.3483  0.5173 -0.1019
 4862TIP3    H136077   0.345   3.981   3.678  0.8206 -0.0974 -0.7211
 4862TIP3    H236078   0.316   3.838   3.716  0.4541  0.2579  0.3872
 4863TIP3   OH236079   2.850   0.974   1.658  0.3384 -0.3991  0.2745
 4863TIP3    H136080   2.839   0.916   1.583  1.8140 -1.1239  0.5777
 4863TIP3    H236081   2.765   0.974   1.701 -1.4678  2.2466 -2.8437
 4864TIP3   OH236082   6.215   3.283  12.097  0.1584  1.0442  0.0539
 4864TIP3    H136083   6.158   3.209  12.116  0.0331  1.4765  1.4652
 4864TIP3    H236084   6.187   3.313  12.011  0.8702 -1.1268 -1.0062
 4865TIP3   OH236085   3.975   1.384   4.708 -0.4725  0.1400 -0.3131
 4865TIP3    H136086   3.953   1.391   4.615  1.8052 -2.4203 -1.1862
 4865TIP3    H236087   4.070   1.386   4.710 -0.4731 -0.1239  1.9345
 4866TIP3   OH236088   1.914   2.546  14.209 -0.1349 -0.2368  0.2550
 4866TIP3    H136089   2.005   2.567  14.189  0.0195 -0.2956  0.8673
 4866TIP3    H236090   1.901   2.459  14.172 -0.2335  0.1764 -0.6912
 4867TIP3   OH236091   5.754   1.119  15.148 -0.5661 -0.6360 -0.6970
 4867TIP3    H136092   5.793   1.106  15.234  0.0540 -0.0684 -0.8903
 4867TIP3    H236093   5.661   1.097  15.160 -1.1232  2.1233  0.8110
 4868TIP3   OH236094   5.855   1.290   4.739  0.5126  0.0368 -0.4073
 4868TIP3    H136095   5.855   1.309   4.646 -2.3119  0.8796 -0.3383
 4868TIP3    H236096   5.854   1.376   4.781  0.6176 -0.3303  0.3696
 4869TIP3   OH236097   6.254   5.838  14.936  0.5246 -1.0819  0.3630
 4869TIP3    H136098   6.304   5.854  15.016 -0.3019 -1.5788  0.9943
 4869TIP3    H236099   6.164   5.863  14.959  0.5201  0.1533 -0.8622
 4870TIP3   OH236100   3.011   1.889   5.720 -0.1161 -0.3099  0.5551
 4870TIP3    H136101   2.928   1.902   5.767 -0.3802  3.7385 -0.6139
 4870TIP3    H236102   3.054   1.817   5.766 -3.5740 -1.5822  2.1571
 4871TIP3   OH236103   4.718   5.166   6.066 -0.6054 -0.2133 -0.2802
 4871TIP3    H136104   4.715   5.254   6.102 -1.2002 -0.5998  0.6619
 4871TIP3    H236105   4.690   5.110   6.138  3.1799 -1.5515  0.3509
 4872TIP3   OH236106   0.219   0.688  12.549  0.3540  0.3958  0.2724
 4872TIP3    H136107   0.284   0.684  12.618  0.8751 -1.6223 -0.2809
 4872TIP3    H236108   0.257   0.748  12.484  0.6617  0.8954  0.8995
 4873TIP3   OH236109   4.863   2.258   5.977 -0.2811  0.1313  0.5322
 4873TIP3    H136110   4.889   2.179   5.930  0.1616 -0.0842  1.1244
 4873TIP3    H236111   4.769   2.248   5.989 -0.2521 -0.2420  0.4836
 4874TIP3   OH236112   0.271   3.578  12.212 -0.2749 -0.4814 -0.0175
 4874TIP3    H136113   0.237   3.543  12.295  1.1233 -0.7435  0.4693
 4874TIP3    H236114   0.359   3.607  12.232  0.2257 -0.8726 -1.4990
 4875TIP3   OH236115   2.426   6.775   5.131  0.0476 -0.3382  0.0270
 4875TIP3    H136116   2.505   6.731   5.165  0.1571  0.1279  0.3889
 4875TIP3    H236117   2.418   6.853   5.185 -0.2182  0.0252 -0.5329
 4876TIP3   OH236118   5.662   3.238  15.534  0.1338  0.0817  0.5581
 4876TIP3    H136119   5.716   3.241  15.613  0.2247  2.3924  0.4945
 4876TIP3    H236120   5.573   3.226  15.566  0.1911  0.8202  1.0237
 4877TIP3   OH236121   6.694   4.895  14.090 -0.0804  0.3295  0.2022
 4877TIP3    H136122   6.749   4.837  14.143  0.6097  1.4145  0.7210
 4877TIP3    H236123   6.737   4.980  14.097  0.9403  0.2703 -3.3116
 4878TIP3   OH236124   4.797   6.136  16.402  0.2180  0.1887  0.0400
 4878TIP3    H136125   4.789   6.138  16.497  0.9548 -0.2799  0.1224
 4878TIP3    H236126   4.891   6.149  16.386  0.1959 -0.3811 -0.5954
 4879TIP3   OH236127   4.725   0.286  13.237 -0.2360 -0.0093  0.2400
 4879TIP3    H136128   4.738   0.324  13.151 -0.2698  0.2052  0.3295
 4879TIP3    H236129   4.647   0.231  13.228 -0.8627  0.8327  0.4005
 4880TIP3   OH236130   2.362   2.693   2.592 -0.5632 -0.8076  0.1523
 4880TIP3    H136131   2.415   2.764   2.628  1.1116 -1.8332 -0.1545
 4880TIP3    H236132   2.295   2.677   2.659 -0.0951  0.0973  0.8694
 4881TIP3   OH236133   1.049   6.426  13.013  0.2648  0.8709 -0.0205
 4881TIP3    H136134   1.077   6.516  13.029  2.5636 -0.0865  1.9754
 4881TIP3    H236135   1.124   6.385  12.969 -0.9149  0.0023 -1.2971
 4882TIP3   OH236136   5.553   3.138   1.655  0.3288 -0.2051 -0.2766
 4882TIP3    H136137   5.487   3.160   1.720  2.5182 -0.5867  2.2411
 4882TIP3    H236138   5.505   3.092   1.586 -1.8333 -1.6393  2.0416
 4883TIP3   OH236139   5.942   0.627   4.858  0.2047  0.2174 -0.7328
 4883TIP3    H136140   5.949   0.657   4.768  2.2719  0.3644 -0.5533
 4883TIP3    H236141   5.901   0.540   4.852  0.2437  0.2712 -1.7931
 4884TIP3   OH236142   0.818   2.969  16.598  0.0228 -0.5241 -0.2701
 4884TIP3    H136143   0.758   2.945  16.528 -1.6437  1.6730  0.2932
 4884TIP3    H236144   0.773   3.038  16.646  3.0102  1.3035  0.1960
 4885TIP3   OH236145   5.838   0.570  11.725  0.6554 -0.6842 -0.4195
 4885TIP3    H136146   5.776   0.643  11.722 -0.5972 -1.7421 -0.9055
 4885TIP3    H236147   5.883   0.574  11.640  4.9377  3.0628  1.5897
 4886TIP3   OH236148   4.733   6.083   2.149 -0.1521 -0.0437 -0.4011
 4886TIP3    H136149   4.669   6.022   2.114  0.9902  0.3374 -3.4249
 4886TIP3    H236150   4.804   6.028   2.182  0.3992 -0.4373 -2.1485
 4887TIP3   OH236151   2.477   3.889  16.292 -0.2512  0.0059  0.0369
 4887TIP3    H136152   2.539   3.962  16.292 -0.1339 -0.0895 -0.5894
 4887TIP3    H236153   2.415   3.910  16.362  0.8015 -0.1767  1.0531
 4888TIP3   OH236154   5.423   4.341  12.893  0.5116 -0.3020  0.1626
 4888TIP3    H136155   5.512   4.353  12.926  0.3727 -0.6234  0.6533
 4888TIP3    H236156   5.419   4.397  12.815  1.2747 -0.6205 -0.1103
 4889TIP3   OH236157   2.219   0.871  12.398  0.1193 -0.1032 -0.0188
 4889TIP3    H136158   2.150   0.832  12.344  0.4704 -1.1318  0.2548
 4889TIP3    H236159   2.184   0.868  12.487  0.1987  0.1197  0.0219
 4890TIP3   OH236160   6.002   3.773  12.055 -0.1437 -0.3431  0.1217
 4890TIP3    H136161   6.036   3.861  12.066 -0.5431 -0.3344  1.3751
 4890TIP3    H236162   6.013   3.754  11.961 -2.6546  2.1314 -0.8169
 4891TIP3   OH236163   3.598   6.154   2.274  0.3097 -0.2229 -0.1190
 4891TIP3    H136164   3.653   6.098   2.219 -0.2227 -1.0781  0.1997
 4891TIP3    H236165   3.652   6.170   2.352 -0.0182 -1.3876  0.3701
 4892TIP3   OH236166   1.747   4.592   4.980 -0.3006  0.4777 -0.7158
 4892TIP3    H136167   1.700   4.584   5.063  1.3005 -1.1688  0.1063
 4892TIP3    H236168   1.811   4.662   4.996  1.4218 -1.2335  0.2329
 4893TIP3   OH236169   2.651   6.117  13.554  0.1484  0.2213 -0.1597
 4893TIP3    H136170   2.571   6.146  13.509  0.0727 -0.6137 -0.5840
 4893TIP3    H236171   2.662   6.026  13.526  0.4276 -0.1365  1.0773
 4894TIP3   OH236172   2.195   5.471   1.799  0.1174  0.1563 -0.9789
 4894TIP3    H136173   2.111   5.496   1.838 -0.1793 -1.3582 -0.5649
 4894TIP3    H236174   2.245   5.552   1.796 -1.3209  1.0773 -1.1507
 4895TIP3   OH236175   2.632   5.368  11.118 -0.5777  0.4176 -0.5073
 4895TIP3    H136176   2.607   5.306  11.050 -0.0292 -0.4465  0.0492
 4895TIP3    H236177   2.602   5.327  11.200 -1.7886  1.7333 -0.2794
 4896TIP3   OH236178   5.840   5.290   0.808  0.1602  0.3752  0.1358
 4896TIP3    H136179   5.916   5.265   0.860  0.8170  0.5351 -0.7237
 4896TIP3    H236180   5.800   5.206   0.783  1.8871  0.1204 -2.0517
 4897TIP3   OH236181   4.408   4.467   0.716 -0.3460  0.4885  0.4939
 4897TIP3    H136182   4.434   4.515   0.637  1.0932 -3.5630 -1.7643
 4897TIP3    H236183   4.475   4.399   0.727 -3.0953 -2.2104  2.2670
 4898TIP3   OH236184   0.112   1.586  14.106  0.6879  0.2257 -0.5718
 4898TIP3    H136185   0.081   1.534  14.180 -0.0632 -0.8695 -1.6139
 4898TIP3    H236186   0.201   1.612  14.130 -0.7466  3.2077  2.3923
 4899TIP3   OH236187   5.094   3.524   0.163  0.2096 -0.0839  0.1811
 4899TIP3    H136188   5.066   3.475   0.240  0.1349  0.2959  0.3968
 4899TIP3    H236189   5.186   3.499   0.151  0.4911  0.5459  0.9375
 4900TIP3   OH236190   0.329   5.306   5.521  0.3103 -0.6445 -0.2872
 4900TIP3    H136191   0.348   5.367   5.449 -0.9676 -0.1246 -0.1998
 4900TIP3    H236192   0.294   5.228   5.478  0.6956 -0.8158 -0.3003
 4901TIP3   OH236193   3.873   1.353   0.300 -0.4854 -0.0683  0.2377
 4901TIP3    H136194   3.843   1.353   0.209  2.0915 -0.2982 -0.7167
 4901TIP3    H236195   3.839   1.271   0.336 -1.5759  0.0357 -0.5200
 4902TIP3   OH236196   2.098   6.223  15.962  0.5125  1.0706 -0.4390
 4902TIP3    H136197   2.079   6.262  16.047  0.0957  1.4542 -0.7036
 4902TIP3    H236198   2.018   6.237  15.911 -1.0673 -3.1096  0.4908
 4903TIP3   OH236199   5.544   4.104   2.423 -0.8729 -0.2788 -0.3705
 4903TIP3    H136200   5.584   4.018   2.438 -0.9612  0.1449  3.1887
 4903TIP3    H236201   5.450   4.089   2.437 -0.8658  0.3761  0.4624
 4904TIP3   OH236202   3.240   2.085  11.902 -0.1330 -0.3461 -1.2548
 4904TIP3    H136203   3.176   2.135  11.851 -1.5890 -1.0365 -0.1630
 4904TIP3    H236204   3.319   2.087  11.848 -0.9216  0.8901 -2.4532
 4905TIP3   OH236205   0.791   0.902   6.647  0.6676 -0.2934 -0.8258
 4905TIP3    H136206   0.762   0.891   6.556 -1.6440  2.0663 -0.5014
 4905TIP3    H236207   0.744   0.834   6.695 -0.8983  0.6005 -0.9910
 4906TIP3   OH236208   4.168   0.615   3.608  0.2160 -0.3174 -0.0644
 4906TIP3    H136209   4.182   0.662   3.690 -0.7184  0.3792 -0.2938
 4906TIP3    H236210   4.108   0.545   3.631 -2.1515  1.4225 -0.6195
 4907TIP3   OH236211   5.080   5.804  16.443 -0.6000  0.0338 -0.0839
 4907TIP3    H136212   5.115   5.718  16.419  0.8537  0.8209 -0.8927
 4907TIP3    H236213   5.086   5.807  16.538  0.9289 -0.1277 -0.1582
 4908TIP3   OH236214   1.181   5.347   0.546 -0.4673 -0.0352  0.0092
 4908TIP3    H136215   1.234   5.394   0.481  0.9011 -1.7155 -0.1622
 4908TIP3    H236216   1.091   5.375   0.528  0.1593  1.6432 -0.7830
 4909TIP3   OH236217   6.568   5.350   3.870 -0.1462 -0.4420 -0.5883
 4909TIP3    H136218   6.497   5.414   3.875 -0.2366 -0.6278  0.9874
 4909TIP3    H236219   6.550   5.299   3.792 -0.4584  1.0073 -1.4975
 4910TIP3   OH236220   1.986   1.220  16.838  0.4868 -0.3450 -0.0887
 4910TIP3    H136221   1.923   1.195  16.905 -0.4011  2.1660  0.1200
 4910TIP3    H236222   2.070   1.190  16.872 -0.3162 -2.1443  0.4825
 4911TIP3   OH236223   2.266   3.150   4.954 -0.6923  0.4338  0.0170
 4911TIP3    H136224   2.270   3.071   4.899  1.3827  0.2467  0.3547
 4911TIP3    H236225   2.192   3.200   4.919 -0.4656 -0.4630 -1.8791
 4912TIP3   OH236226   3.812   2.888  14.590 -0.3569 -0.6180  0.0685
 4912TIP3    H136227   3.781   2.859  14.504  1.2487  0.4714 -0.9207
 4912TIP3    H236228   3.904   2.910  14.576 -0.5573  1.4309  1.5941
 4913TIP3   OH236229   5.025   1.409   2.984  0.4277  0.6023 -0.6097
 4913TIP3    H136230   4.977   1.344   2.932  0.5137  0.8393 -0.9856
 4913TIP3    H236231   4.970   1.422   3.062  1.7201 -2.0081  0.8730
 4914TIP3   OH236232   1.875   0.030   5.304  0.3634  0.2778  0.3957
 4914TIP3    H136233   1.786  -0.004   5.295  0.7517 -0.8203  0.4815
 4914TIP3    H236234   1.897   0.065   5.217  0.5490 -1.2754 -0.2197
 4915TIP3   OH236235   0.745   3.683   5.533 -0.0694  0.2937  0.4690
 4915TIP3    H136236   0.747   3.723   5.446 -1.3086  1.0361  0.7621
 4915TIP3    H236237   0.832   3.701   5.570  0.2765  0.4369 -0.4016
 4916TIP3   OH236238   3.656   4.653  16.683 -0.0808 -0.2219  0.1940
 4916TIP3    H136239   3.636   4.600  16.606 -0.6459  0.7551 -0.3591
 4916TIP3    H236240   3.572   4.691  16.709  0.6544  2.6003 -1.1281
 4917TIP3   OH236241   0.176   2.448  12.330  0.4571  0.2083 -0.2347
 4917TIP3    H136242   0.238   2.485  12.393 -0.4624 -1.3486  1.6780
 4917TIP3    H236243   0.097   2.501  12.340  0.8705  1.0952 -1.4296
 4918TIP3   OH236244   4.806   6.160  14.534 -0.0593 -0.3031  0.0687
 4918TIP3    H136245   4.820   6.113  14.452 -4.2305  1.3587 -1.9243
 4918TIP3    H236246   4.714   6.143  14.556  0.3363  0.9784  3.3170
 4919TIP3   OH236247   4.114   5.959  12.079  0.3176  0.1806  0.3627
 4919TIP3    H136248   4.208   5.944  12.089  0.0877 -1.6835  0.0715
 4919TIP3    H236249   4.104   5.992  11.990  0.4416 -2.8395 -0.8768
 4920TIP3   OH236250   3.833   0.318   1.524 -0.3001  0.4546  0.1860
 4920TIP3    H136251   3.790   0.369   1.593  0.5250  0.4789  0.6972
 4920TIP3    H236252   3.793   0.350   1.443 -1.0089  0.6998  0.6234
 4921TIP3   OH236253   2.737   6.845  13.570 -0.4036 -0.3287 -0.1720
 4921TIP3    H136254   2.832   6.857  13.563  0.1588  0.5613  4.9802
 4921TIP3    H236255   2.700   6.924  13.531  1.1739  0.6904  0.2880
 4922TIP3   OH236256   5.162   2.201   1.680 -0.3648 -0.4241 -0.5840
 4922TIP3    H136257   5.150   2.151   1.761  0.0930  1.2665  0.5649
 4922TIP3    H236258   5.079   2.246   1.668 -0.0575  0.1975 -0.4209
 4923TIP3   OH236259   3.271   2.394   5.288 -0.1848  0.4945 -0.0071
 4923TIP3    H136260   3.304   2.458   5.350  0.4892 -0.4009  0.5845
 4923TIP3    H236261   3.272   2.311   5.336 -1.8978  0.1658 -0.4501
 4924TIP3   OH236262   6.641   4.894   3.133  0.2628  0.1993 -0.2688
 4924TIP3    H136263   6.691   4.812   3.140  2.1025  1.2873 -0.0320
 4924TIP3    H236264   6.706   4.963   3.145 -1.4345  1.7037  0.7143
 4925TIP3   OH236265   1.777   2.341   3.964  0.2345  0.2421 -0.0177
 4925TIP3    H136266   1.774   2.430   3.927 -1.2978  0.2303  0.0229
 4925TIP3    H236267   1.703   2.337   4.024  0.9772 -0.7038  0.8802
 4926TIP3   OH236268   1.792   6.570  13.112 -0.4722  0.0617  0.5059
 4926TIP3    H136269   1.739   6.623  13.052  0.3955 -0.4077 -0.7160
 4926TIP3    H236270   1.842   6.511  13.055 -0.4917 -1.2308  1.7525
 4927TIP3   OH236271   0.622   6.098  14.790 -0.4650 -0.1441 -0.5427
 4927TIP3    H136272   0.645   6.023  14.735  0.5888  0.3087 -0.7305
 4927TIP3    H236273   0.680   6.168  14.761 -1.4345  0.7567 -0.3639
 4928TIP3   OH236274   0.239   1.603   1.766 -0.1978  0.4527  0.1902
 4928TIP3    H136275   0.196   1.655   1.834  0.2245  0.3010  0.5800
 4928TIP3    H236276   0.320   1.572   1.807  0.1398  0.4885 -0.4365
 4929TIP3   OH236277   0.098   6.516   5.491  0.4931 -0.0340 -0.1200
 4929TIP3    H136278   0.020   6.570   5.505 -0.2793 -1.1538  0.0294
 4929TIP3    H236279   0.122   6.485   5.579 -0.1915 -1.4010 -0.3752
 4930TIP3   OH236280   2.510   5.518   0.121 -0.6919 -0.5908  0.6873
 4930TIP3    H136281   2.428   5.527   0.071  0.2504  1.8058 -0.6005
 4930TIP3    H236282   2.527   5.606   0.155  1.0911 -1.1527  1.3627
 4931TIP3   OH236283   2.269   6.633  15.382 -1.3335  0.0696  0.3517
 4931TIP3    H136284   2.184   6.648  15.341 -0.7418 -1.0640 -1.4063
 4931TIP3    H236285   2.328   6.696  15.340 -0.4126 -2.0323 -1.7617
 4932TIP3   OH236286   4.387   3.554   0.906 -0.4555  0.6742  0.9746
 4932TIP3    H136287   4.316   3.615   0.929 -1.2713  0.5734 -1.1015
 4932TIP3    H236288   4.344   3.484   0.857  1.2021  1.1917 -1.3787
 4933TIP3   OH236289   2.805   0.964   0.594  0.1485 -0.4624  0.0291
 4933TIP3    H136290   2.800   1.036   0.658  2.6057  0.5071 -0.7764
 4933TIP3    H236291   2.896   0.936   0.596 -0.1228 -1.6310 -1.7726
 4934TIP3   OH236292   0.978   0.226  15.221 -0.1166  0.2753  0.0672
 4934TIP3    H136293   0.977   0.267  15.134  0.9870 -1.4657 -0.8238
 4934TIP3    H236294   0.987   0.132  15.203  2.8710  0.0416  2.0632
 4935TIP3   OH236295   5.406   6.272   0.627 -0.2204 -0.6436  0.2294
 4935TIP3    H136296   5.415   6.257   0.721 -0.0585 -0.0133  0.3186
 4935TIP3    H236297   5.321   6.316   0.618  1.0028  1.9047  0.4096
 4936TIP3   OH236298   1.471   0.987  13.339  0.8732 -0.1599  0.2241
 4936TIP3    H136299   1.446   0.925  13.270 -0.6798 -0.8551  1.3225
 4936TIP3    H236300   1.558   1.017  13.314  0.7965 -1.1703 -1.4761
 4937TIP3   OH236301   1.664   2.395  11.814  0.3641 -0.1298  0.2982
 4937TIP3    H136302   1.622   2.478  11.794  0.7890 -0.1952 -0.9316
 4937TIP3    H236303   1.755   2.417  11.835  0.5208 -0.2764 -0.1891
 4938TIP3   OH236304   6.713   6.321   5.766 -0.1822 -0.8999  0.5883
 4938TIP3    H136305   6.756   6.245   5.806  0.5062 -1.7083 -1.5445
 4938TIP3    H236306   6.652   6.284   5.702 -1.3074  0.3276  0.9023
 4939TIP3   OH236307   2.866   3.162  15.691  0.5074 -0.3515  0.3136
 4939TIP3    H136308   2.776   3.166  15.724  0.5494  1.9496  0.3244
 4939TIP3    H236309   2.862   3.100  15.618 -1.5719  1.1654 -0.9700
 4940TIP3   OH236310   3.978   3.576   4.464  0.0795  0.6854 -0.1885
 4940TIP3    H136311   4.022   3.565   4.380  0.2800 -0.3473  0.0399
 4940TIP3    H236312   4.015   3.508   4.520 -0.6504  0.8320  0.4916
 4941TIP3   OH236313   3.785   5.642   5.646  0.0577  0.1686  0.2981
 4941TIP3    H136314   3.691   5.645   5.628  0.1707 -0.7140 -0.5018
 4941TIP3    H236315   3.825   5.613   5.564  1.1093  1.1893  0.4171
 4942TIP3   OH236316   4.775   6.424  14.007 -0.4155  0.0143  0.0625
 4942TIP3    H136317   4.780   6.494  14.071  0.1019  0.2817 -0.2695
 4942TIP3    H236318   4.766   6.469  13.923 -0.5374 -0.3254 -0.1100
 4943TIP3   OH236319   0.188   4.045   6.661 -0.1366  0.8304  0.4515
 4943TIP3    H136320   0.203   4.116   6.598 -2.4356  0.3998 -0.6458
 4943TIP3    H236321   0.164   3.970   6.608 -1.5057  0.2809  1.7935
 4944TIP3   OH236322   3.604   5.462  14.961  0.2519  0.9130 -0.0086
 4944TIP3    H136323   3.594   5.421  15.047  0.5510  0.6722 -0.0883
 4944TIP3    H236324   3.557   5.406  14.901  1.2931  0.2592 -0.2388
 4945TIP3   OH236325   3.300   6.358   4.101 -0.3063  0.0740 -0.4606
 4945TIP3    H136326   3.370   6.339   4.039  1.0457 -1.1736  1.3345
 4945TIP3    H236327   3.344   6.394   4.178 -2.0767  3.1055 -0.6904
 4946TIP3   OH236328   4.504   4.573  16.005 -0.6961  0.1643 -0.8147
 4946TIP3    H136329   4.475   4.637  16.070  0.6715 -2.1446  2.3266
 4946TIP3    H236330   4.599   4.583  16.002 -0.3767 -1.9692  0.1927
 4947TIP3   OH236331   3.005   0.724   0.940  0.0344 -0.0933  0.0138
 4947TIP3    H136332   3.005   0.805   0.890  1.0167 -1.4048 -2.2760
 4947TIP3    H236333   2.959   0.661   0.884 -0.7735 -1.1328  1.7579
 4948TIP3   OH236334   4.979   6.258   2.971  0.1269 -0.0134  0.0805
 4948TIP3    H136335   4.991   6.281   2.879  1.2534  0.6286  0.3777
 4948TIP3    H236336   4.924   6.329   3.006 -1.1989 -0.8078 -0.3215
 4949TIP3   OH236337   6.044   2.864   5.360  0.2898  0.1981 -0.4145
 4949TIP3    H136338   6.030   2.781   5.405 -3.3539  0.7462 -0.2368
 4949TIP3    H236339   6.052   2.929   5.430  0.4875  0.3275 -0.5541
 4950TIP3   OH236340   0.736   0.460   4.270  0.0984  0.5468  0.0617
 4950TIP3    H136341   0.758   0.541   4.224 -1.7069  0.2214 -1.4882
 4950TIP3    H236342   0.742   0.483   4.363  2.0117  1.7405 -0.3017
 4951TIP3   OH236343   2.324   6.323  15.285 -0.0751  0.1496 -0.2424
 4951TIP3    H136344   2.340   6.393  15.348 -0.2777  0.3174 -0.3789
 4951TIP3    H236345   2.232   6.331  15.262 -0.1446 -0.2685 -0.1296
 4952TIP3   OH236346   5.822   2.019   1.792 -0.5976 -0.1003  0.2739
 4952TIP3    H136347   5.728   2.039   1.790 -0.8559 -1.2881 -0.7498
 4952TIP3    H236348   5.831   1.941   1.737  1.0188  0.0984  0.2142
 4953TIP3   OH236349   4.166   4.896  15.930 -0.2219  0.3464 -0.2362
 4953TIP3    H136350   4.167   4.802  15.912 -1.6081  0.1166  0.6822
 4953TIP3    H236351   4.240   4.931  15.881 -0.1263 -1.1136 -1.2047
 4954TIP3   OH236352   0.282   4.555  11.315  0.6687  0.0005 -0.3006
 4954TIP3    H136353   0.329   4.634  11.339  0.4907  0.1817 -0.5463
 4954TIP3    H236354   0.209   4.586  11.261  1.2559 -0.4324 -1.3735
 4955TIP3   OH236355   3.080   0.948  13.939 -0.1203  0.0760  0.1579
 4955TIP3    H136356   3.136   1.009  13.891 -1.2962  0.4673 -0.7618
 4955TIP3    H236357   3.051   0.997  14.016  0.2813  0.0917  0.2998
 4956TIP3   OH236358   3.709   6.330   0.485 -0.5331 -0.2215  0.3986
 4956TIP3    H136359   3.709   6.234   0.488 -1.4271 -0.2528 -0.1168
 4956TIP3    H236360   3.799   6.355   0.506 -0.5119 -1.1345  1.4461
 4957TIP3   OH236361   5.995   5.181  12.299  0.4041 -0.3295  0.6959
 4957TIP3    H136362   6.017   5.271  12.322 -1.3277  0.1005  0.8632
 4957TIP3    H236363   5.931   5.189  12.228  0.8456 -1.4554  0.1493
 4958TIP3   OH236364   1.093   0.441   1.217  0.4182  0.3200 -0.2695
 4958TIP3    H136365   1.185   0.439   1.244 -0.2607 -0.0226  2.3150
 4958TIP3    H236366   1.095   0.411   1.126  2.7530 -0.8361  0.0646
 4959TIP3   OH236367   2.507   0.378  12.610 -0.1847  0.2397  0.3513
 4959TIP3    H136368   2.426   0.418  12.579  0.8045  0.8784 -1.5702
 4959TIP3    H236369   2.554   0.449  12.653 -0.1367  0.1461  0.4553
 4960TIP3   OH236370   3.216   3.555   5.565  0.1022 -0.0235  0.0399
 4960TIP3    H136371   3.144   3.569   5.627 -2.2107  0.7540 -2.5892
 4960TIP3    H236372   3.284   3.616   5.592 -0.6475  0.0133  1.9874
 4961TIP3   OH236373   0.157   3.036   4.827  0.1001  0.1516  0.0642
 4961TIP3    H136374   0.083   3.081   4.868 -0.4262  0.5242 -1.2433
 4961TIP3    H236375   0.130   2.944   4.823 -0.9706  0.5167 -1.7868
 4962TIP3   OH236376   3.424   5.112   3.890  0.0661 -0.3214 -0.2807
 4962TIP3    H136377   3.369   5.077   3.960  0.3674 -1.6719 -0.6927
 4962TIP3    H236378   3.424   5.206   3.905 -2.0032 -0.3059 -0.0095
 4963TIP3   OH236379   4.061   4.862   4.201 -0.1202  0.2090 -0.2547
 4963TIP3    H136380   3.994   4.855   4.133 -0.7553  0.1594  0.3617
 4963TIP3    H236381   4.129   4.799   4.175 -1.5910 -1.8049  0.5436
 4964TIP3   OH236382   1.438   2.970  16.335 -0.3767  0.3461 -0.0475
 4964TIP3    H136383   1.466   2.992  16.246 -1.6274  0.2048 -0.4946
 4964TIP3    H236384   1.505   2.909  16.367  0.3599  0.7970 -0.6897
 4965TIP3   OH236385   6.302   6.808  12.662  0.0045 -0.2420 -0.0822
 4965TIP3    H136386   6.217   6.771  12.687  0.2473 -0.0238  1.1270
 4965TIP3    H236387   6.342   6.833  12.745  0.0519  2.2948 -0.7948
 4966TIP3   OH236388   5.091   1.433   4.568  0.4299  0.1017 -0.0391
 4966TIP3    H136389   5.157   1.367   4.547  1.2392  0.1607  2.0597
 4966TIP3    H236390   5.013   1.383   4.591  0.6040 -0.0742  0.1689
 4967TIP3   OH236391   4.495   1.950   1.845  0.7688 -0.4893 -0.1673
 4967TIP3    H136392   4.522   1.876   1.899 -0.8660 -1.1651 -0.2024
 4967TIP3    H236393   4.426   1.915   1.789 -0.6921  1.2365  0.4456
 4968TIP3   OH236394   0.058   0.477   5.538 -0.0281 -0.4900 -0.4400
 4968TIP3    H136395  -0.026   0.489   5.495  0.4318  0.7494 -1.0487
 4968TIP3    H236396   0.110   0.553   5.511  0.5469 -0.0494  1.6841
 4969TIP3   OH236397   2.926   3.787   5.107  0.2876  0.0072  0.5230
 4969TIP3    H136398   2.985   3.854   5.141  0.0594 -0.4462  1.8638
 4969TIP3    H236399   2.982   3.713   5.087  0.4797  0.4158 -0.5480
 4970TIP3   OH236400   0.410   5.973  13.023  0.3671  0.0552  0.4667
 4970TIP3    H136401   0.506   5.975  13.026  0.4737 -1.2136 -0.6905
 4970TIP3    H236402   0.383   5.970  13.115  1.5103 -0.8771  0.8035
 4971TIP3   OH236403   6.145   0.188   4.789 -0.2071 -0.6025  0.5023
 4971TIP3    H136404   6.095   0.136   4.725 -3.5009  1.9558  0.6799
 4971TIP3    H236405   6.091   0.187   4.868  1.3679  0.2359  1.6376
 4972TIP3   OH236406   2.481   0.514   0.991  0.1211  0.1773  0.5938
 4972TIP3    H136407   2.566   0.553   1.013  1.4795 -1.2359 -1.7368
 4972TIP3    H236408   2.450   0.475   1.073  2.0706  0.1204  1.3472
 4973TIP3   OH236409   4.866   5.609  14.287 -0.1408 -0.2300 -0.1521
 4973TIP3    H136410   4.872   5.690  14.336 -2.3386  0.5339 -1.0381
 4973TIP3    H236411   4.926   5.621  14.213  0.0279  0.3039  0.0690
 4974TIP3   OH236412   5.758   0.322   0.772 -0.4614  0.4729 -0.4475
 4974TIP3    H136413   5.850   0.337   0.747 -0.4594  0.6047 -0.3615
 4974TIP3    H236414   5.714   0.301   0.690 -0.3612  0.4503 -0.4957
 4975TIP3   OH236415   4.827   4.208  12.427  0.2075  0.0222  0.1379
 4975TIP3    H136416   4.887   4.161  12.370 -0.3796  0.0758 -0.5451
 4975TIP3    H236417   4.883   4.254  12.489  0.8190 -0.8784  0.2744
 4976TIP3   OH236418   4.790   0.877   0.066 -0.3209 -0.2466  0.0750
 4976TIP3    H136419   4.772   0.944  -0.000 -0.3729 -1.2824 -0.9831
 4976TIP3    H236420   4.717   0.885   0.128 -1.5346 -0.7849 -1.2421
 4977TIP3   OH236421   6.671   4.460  14.519  0.1635  0.1083 -0.1682
 4977TIP3    H136422   6.576   4.470  14.527  0.1328 -0.9021  1.1563
 4977TIP3    H236423   6.686   4.438  14.427 -0.7524  1.3181 -0.6396
 4978TIP3   OH236424   5.383   2.173   1.163 -0.0432  0.3170 -0.2363
 4978TIP3    H136425   5.323   2.187   1.090 -0.2576 -0.5254 -0.2334
 4978TIP3    H236426   5.396   2.078   1.165  1.1021  0.4647 -0.0931
 4979TIP3   OH236427   6.842   4.146  15.291  0.2071 -0.1663 -0.0978
 4979TIP3    H136428   6.798   4.229  15.275  0.9463  0.4771  1.0198
 4979TIP3    H236429   6.898   4.132  15.214 -1.6227 -0.8218 -1.3630
 4980TIP3   OH236430   6.162   1.571   1.807 -0.4523  0.6253  0.0522
 4980TIP3    H136431   6.251   1.549   1.779 -0.1349  0.6652  0.9928
 4980TIP3    H236432   6.173   1.645   1.867 -1.1802  1.0350 -0.3094
 4981TIP3   OH236433   5.512   2.116  14.925 -0.1779 -0.0525  0.5327
 4981TIP3    H136434   5.600   2.138  14.894 -0.4367 -2.1974 -2.1537
 4981TIP3    H236435   5.456   2.181  14.883 -0.0194  0.6293  1.3441
 4982TIP3   OH236436   2.727   6.666  15.599  0.5192  0.1843  0.2685
 4982TIP3    H136437   2.781   6.744  15.613 -0.3553  0.5059  2.2251
 4982TIP3    H236438   2.727   6.622  15.684  1.0562 -2.0139 -0.8252
 4983TIP3   OH236439   6.781   0.492   2.297 -0.0028  0.6391  0.3666
 4983TIP3    H136440   6.710   0.466   2.238  0.4263  0.0297  0.1078
 4983TIP3    H236441   6.737   0.509   2.381 -0.5251  0.8235  0.0637
 4984TIP3   OH236442   3.151   1.657  15.267  0.0776  0.0650 -0.0182
 4984TIP3    H136443   3.190   1.604  15.336 -2.1921  0.0108  1.3064
 4984TIP3    H236444   3.159   1.747  15.298 -1.6539 -0.0180  0.7338
 4985TIP3   OH236445   3.258   5.247   3.452 -0.4931  0.0533  0.1018
 4985TIP3    H136446   3.332   5.306   3.467 -0.8028  0.3704  0.3979
 4985TIP3    H236447   3.278   5.170   3.505 -0.7411  0.4555  0.7919
 4986TIP3   OH236448   1.419   0.028   3.085 -0.0640 -0.0238 -0.2047
 4986TIP3    H136449   1.373   0.040   3.002 -0.1649 -0.1953 -0.1726
 4986TIP3    H236450   1.353  -0.008   3.144  0.2589 -0.8072 -0.3123
 4987TIP3   OH236451   2.906   4.426   4.766 -0.3096 -0.1205  0.1070
 4987TIP3    H136452   2.882   4.515   4.791 -2.9949 -0.7495  0.0455
 4987TIP3    H236453   2.869   4.371   4.835  0.1479 -1.2907 -0.5433
 4988TIP3   OH236454   4.749   5.223   2.287  0.0624  0.1548  0.2141
 4988TIP3    H136455   4.805   5.169   2.232 -0.7290 -1.9079  1.3177
 4988TIP3    H236456   4.660   5.206   2.255 -0.1984  1.0610  0.4027
 4989TIP3   OH236457   2.729   0.373  15.413 -0.2087 -0.2909 -0.1365
 4989TIP3    H136458   2.654   0.363  15.471 -0.4445  0.6644 -0.2497
 4989TIP3    H236459   2.690   0.378  15.325  0.1543 -1.9204 -0.4284
 4990TIP3   OH236460   4.176   2.000  15.690 -0.5658  0.1015  0.2066
 4990TIP3    H136461   4.100   2.053  15.667 -1.0986 -0.0899  1.4189
 4990TIP3    H236462   4.143   1.910  15.693  0.5028 -0.4913 -2.6368
 4991TIP3   OH236463   3.724   5.674  15.914  0.0346  0.7818 -0.1837
 4991TIP3    H136464   3.675   5.607  15.866  0.2387  0.0937  0.5459
 4991TIP3    H236465   3.667   5.697  15.987  0.3754  0.7105  0.1028
 4992TIP3   OH236466   1.798   3.652  15.515 -0.1372  0.3406  0.1832
 4992TIP3    H136467   1.834   3.711  15.450 -0.5224 -0.0120 -0.3638
 4992TIP3    H236468   1.873   3.624  15.567  0.1039  0.9854  0.1840
 4993TIP3   OH236469   1.884   0.800  16.346 -0.7063 -0.4825 -0.2889
 4993TIP3    H136470   1.928   0.884  16.335 -0.8438 -0.2034  1.1474
 4993TIP3    H236471   1.892   0.757  16.260  1.8876 -0.2394 -0.2333
 4994TIP3   OH236472   0.817   1.933  15.761  0.4414 -0.4251  0.3119
 4994TIP3    H136473   0.819   1.966  15.671  0.3895  3.0326  1.4258
 4994TIP3    H236474   0.747   1.984  15.803 -0.3609 -2.8075  2.0550
 4995TIP3   OH236475   1.276   0.458  12.166  0.0419  0.2183  0.8097
 4995TIP3    H136476   1.266   0.549  12.136 -3.2946 -0.0173  0.9039
 4995TIP3    H236477   1.244   0.405  12.094  0.9145 -0.8805  1.1980
 4996TIP3   OH236478   5.548   4.715  12.822 -0.1953  0.2253  0.0083
 4996TIP3    H136479   5.526   4.638  12.771 -3.1911 -0.4118  2.0420
 4996TIP3    H236480   5.616   4.685  12.882  0.0284 -0.2790 -0.4875
 4997TIP3   OH236481   2.897   4.656  16.642  0.5250  0.0589  0.4352
 4997TIP3    H136482   2.935   4.579  16.683 -0.3614 -1.5659 -1.6202
 4997TIP3    H236483   2.804   4.651  16.662 -0.2194 -1.5958 -2.6887
 4998TIP3   OH236484   2.617   5.180  15.123  0.0986 -0.3186  0.2100
 4998TIP3    H136485   2.668   5.260  15.108 -0.5815  0.0011 -0.4559
 4998TIP3    H236486   2.548   5.183  15.057 -2.0487  0.2928  2.3364
 4999TIP3   OH236487   6.534   6.670   1.485  0.3241  0.2241  0.1279
 4999TIP3    H136488   6.474   6.610   1.441  1.2559 -0.7931  0.2085
 4999TIP3    H236489   6.481   6.709   1.556 -1.0423  1.4975 -1.4976
 5000TIP3   OH236490   1.376   0.433   3.533  0.0256 -0.2124 -0.1007
 5000TIP3    H136491   1.328   0.376   3.593 -2.2838  1.9006  0.2707
 5000TIP3    H236492   1.327   0.429   3.451 -0.9523  2.0360  0.2939
 5001TIP3   OH236493   1.754   5.362   0.271  0.0092 -0.0955 -0.2466
 5001TIP3    H136494   1.775   5.290   0.330  1.2167  0.4359 -0.0045
 5001TIP3    H236495   1.742   5.438   0.328  1.1666  0.4153 -0.6583
 5002TIP3   OH236496   6.329   3.095   0.368  0.5118  0.1685 -0.3253
 5002TIP3    H136497   6.410   3.144   0.354  1.2616 -0.9382 -0.0335
 5002TIP3    H236498   6.267   3.133   0.306  1.0792  1.4283 -0.1414
 5003TIP3   OH236499   4.683   0.327   3.786  0.5024  0.0730 -0.1906
 5003TIP3    H136500   4.694   0.369   3.700  0.1944 -2.8454 -1.8117
 5003TIP3    H236501   4.588   0.324   3.799  0.3967 -1.6674 -1.0346
 5004TIP3   OH236502   5.116   0.444  13.308  0.0402  0.1465  0.1132
 5004TIP3    H136503   5.051   0.412  13.370  1.1962 -0.5202  1.0097
 5004TIP3    H236504   5.172   0.369  13.290 -0.8681 -0.0238 -2.6352
 5005TIP3   OH236505   6.335   4.780  14.917 -0.3536  0.1321 -0.1809
 5005TIP3    H136506   6.242   4.788  14.896 -0.7404 -0.4270  1.1796
 5005TIP3    H236507   6.336   4.769  15.012  1.1564  0.8262 -0.0978
 5006TIP3   OH236508   6.099   1.703   2.607  0.0790  0.5346 -0.0486
 5006TIP3    H136509   6.007   1.715   2.583 -0.1369  2.5086  1.4756
 5006TIP3    H236510   6.143   1.687   2.524 -1.5066  0.4759 -0.9276
 5007TIP3   OH236511   5.810   0.295  13.808 -0.2103  0.0581  0.9057
 5007TIP3    H136512   5.873   0.349  13.760 -0.6316 -0.1351  0.1253
 5007TIP3    H236513   5.792   0.222  13.749 -1.2113  0.1428  1.0978
 5008TIP3   OH236514   4.985   3.624   3.849 -0.1126  0.1965  0.3321
 5008TIP3    H136515   4.952   3.697   3.901  1.0513 -1.3763  3.5643
 5008TIP3    H236516   5.072   3.651   3.821 -0.4657  0.7803 -0.2331
 5009TIP3   OH236517   1.752   3.246  11.808  0.2491 -0.6006 -0.1807
 5009TIP3    H136518   1.764   3.229  11.901 -0.6700  1.6132  0.3908
 5009TIP3    H236519   1.823   3.197  11.766  0.7997 -1.4900  1.6720
 5010TIP3   OH236520   1.674   3.292  11.422  0.1819 -0.1726  0.8114
 5010TIP3    H136521   1.646   3.276  11.332 -0.7645  2.7415  0.4792
 5010TIP3    H236522   1.702   3.206  11.454 -1.5370 -1.7418 -1.5121
 5011TIP3   OH236523   1.302   3.293   5.132  0.2298  0.0226 -0.6286
 5011TIP3    H136524   1.236   3.357   5.159  0.2325 -0.1196 -0.2780
 5011TIP3    H236525   1.371   3.344   5.091 -0.2393  0.1500 -1.2895
 5012TIP3   OH236526   5.554   2.675   3.903  0.7045 -0.0351  0.8028
 5012TIP3    H136527   5.485   2.739   3.921  0.6554  0.3618 -0.6910
 5012TIP3    H236528   5.531   2.600   3.957  0.5204  1.0239  2.2511
 5013TIP3   OH236529   3.891   2.475  11.483  0.5573  0.3072  0.1630
 5013TIP3    H136530   3.839   2.494  11.405 -0.2875  2.0910  1.0918
 5013TIP3    H236531   3.961   2.417  11.453 -1.3532 -1.3501 -1.3394
 5014TIP3   OH236532   2.783   6.594   2.813 -0.2015 -0.1116 -0.1833
 5014TIP3    H136533   2.731   6.513   2.818  0.4177 -0.4896  0.1758
 5014TIP3    H236534   2.719   6.664   2.827 -0.8556 -0.4936 -1.1088
 5015TIP3   OH236535   4.941   1.530  17.111 -0.4979  0.4939 -0.1211
 5015TIP3    H136536   4.986   1.585  17.047 -1.0669 -0.1581 -1.1068
 5015TIP3    H236537   4.944   1.442  17.074 -1.0120  0.1346  0.6580
 5016TIP3   OH236538   0.953   0.214   6.879 -0.6883 -0.1749 -0.0119
 5016TIP3    H136539   0.982   0.281   6.816  1.4157 -0.6172  0.4068
 5016TIP3    H236540   0.944   0.135   6.826  0.3717 -0.3763  0.0844
 5017TIP3   OH236541   3.498   1.345   3.974 -0.0295  0.2168 -0.7563
 5017TIP3    H136542   3.564   1.287   4.012  0.3696  1.0052 -0.2279
 5017TIP3    H236543   3.502   1.424   4.027 -0.4562  0.7983 -1.5684
 5018TIP3   OH236544   5.201   2.258  16.977 -0.5052  0.2484  0.3355
 5018TIP3    H136545   5.167   2.169  16.988  0.1845  0.0712  1.2550
 5018TIP3    H236546   5.294   2.250  17.000 -0.5670  1.3212  1.0153
 5019TIP3   OH236547   6.787   5.649   4.467 -0.1159  0.1355 -0.8654
 5019TIP3    H136548   6.840   5.637   4.388  1.4721 -1.8592  0.4031
 5019TIP3    H236549   6.786   5.744   4.481  2.2119  0.3202 -1.5671
 5020TIP3   OH236550   1.838   3.053   3.725 -0.3794 -0.3249 -0.2870
 5020TIP3    H136551   1.834   3.036   3.631  0.7544 -0.2595 -0.3529
 5020TIP3    H236552   1.929   3.075   3.742 -0.3535 -1.3303  1.0018
 5021TIP3   OH236553   0.354   2.101   1.601  0.1265 -0.1308 -0.2249
 5021TIP3    H136554   0.358   2.179   1.545  0.0259  0.3435  0.4120
 5021TIP3    H236555   0.264   2.100   1.633 -0.2980 -1.3416 -1.3722
 5022TIP3   OH236556   6.236   2.946   5.790 -0.0775  0.4128  0.5754
 5022TIP3    H136557   6.233   3.034   5.829  1.4953  0.9338 -0.3808
 5022TIP3    H236558   6.205   2.888   5.859 -2.7706  1.8606  0.6935
 5023TIP3   OH236559   0.871   0.693  10.633  0.3306 -0.0327  0.4064
 5023TIP3    H136560   0.947   0.636  10.628 -0.2656 -0.7608 -0.8430
 5023TIP3    H236561   0.796   0.636  10.615 -0.3260  1.0247 -0.3951
 5024TIP3   OH236562   1.815   1.265  14.252 -0.0197 -0.3964  0.3859
 5024TIP3    H136563   1.872   1.231  14.183 -1.4131 -1.2456 -0.3856
 5024TIP3    H236564   1.767   1.337  14.211 -1.9835 -1.8944 -0.0609
 5025TIP3   OH236565   1.925   1.343   0.684 -0.0401  0.2878  0.4817
 5025TIP3    H136566   2.004   1.329   0.737 -0.1286  1.4324  0.9546
 5025TIP3    H236567   1.885   1.257   0.677  0.2115  0.0265  1.9275
 5026TIP3   OH236568   1.959   5.955   0.045 -0.4547  0.1841 -0.6743
 5026TIP3    H136569   1.879   5.985   0.003 -0.3096  2.5762  0.5722
 5026TIP3    H236570   1.947   5.975   0.138  0.2865 -2.4970  0.1000
 5027TIP3   OH236571   0.777   0.814  14.932 -0.3191  0.2528  0.2006
 5027TIP3    H136572   0.763   0.791  15.024  4.0482 -1.4940  0.6632
 5027TIP3    H236573   0.834   0.891  14.935 -1.4256  1.1647 -1.1393
 5028TIP3   OH236574   5.812   3.150  13.834  0.0037 -0.3345  0.3297
 5028TIP3    H136575   5.753   3.124  13.905 -0.1531  1.2561  0.8065
 5028TIP3    H236576   5.762   3.132  13.754  0.1190 -1.9731  0.5845
 5029TIP3   OH236577   0.365   1.792   1.096  0.0198  0.2341 -0.3842
 5029TIP3    H136578   0.328   1.846   1.166 -0.6094  1.5424 -1.6562
 5029TIP3    H236579   0.448   1.835   1.074  1.7499 -1.9148  1.5452
 5030TIP3   OH236580   1.467   6.061  13.696 -0.2898  0.3958  0.3802
 5030TIP3    H136581   1.409   6.131  13.665 -0.8670 -0.8129 -1.4310
 5030TIP3    H236582   1.416   5.981  13.684  1.6649 -0.7076 -1.2043
 5031TIP3   OH236583   2.402   6.052  11.711  0.1750 -0.4469 -0.1656
 5031TIP3    H136584   2.406   6.127  11.652 -3.6808 -0.9777 -1.4343
 5031TIP3    H236585   2.374   6.088  11.795 -0.9151 -0.3197 -0.5638
 5032TIP3   OH236586   3.730   0.181  11.297  0.5495  0.3827 -0.2993
 5032TIP3    H136587   3.780   0.221  11.225  0.7903  0.2218 -0.2234
 5032TIP3    H236588   3.796   0.134  11.348  0.3107  0.1278 -0.2260
 5033TIP3   OH236589   5.927   5.496  16.322  0.0310  0.1760  0.1149
 5033TIP3    H136590   5.947   5.512  16.415  0.5055 -1.5103  0.3419
 5033TIP3    H236591   6.008   5.458  16.287 -0.1542  0.7587 -1.0135
 5034TIP3   OH236592   3.006   3.043  11.442  0.0659 -0.0281 -0.3161
 5034TIP3    H136593   3.024   2.950  11.459  0.7879  0.1721  0.0432
 5034TIP3    H236594   3.080   3.073  11.390  0.3237  0.5847  0.3904
 5035TIP3   OH236595   6.762   1.303   2.245 -0.0803 -0.3667  0.2476
 5035TIP3    H136596   6.845   1.258   2.265 -0.5065 -0.9358  0.7730
 5035TIP3    H236597   6.789   1.391   2.218  0.8898 -1.3273 -2.2351
 5036TIP3   OH236598   0.497   5.898   5.626 -0.4130  0.1559  0.4948
 5036TIP3    H136599   0.488   5.802   5.630 -1.4720  0.1297 -1.2709
 5036TIP3    H236600   0.591   5.913   5.638 -0.2783 -1.0657  1.1814
 5037TIP3   OH236601   0.580   5.652   3.682  0.8063  0.2930  0.1219
 5037TIP3    H136602   0.522   5.701   3.625  0.1465  0.1615  0.6653
 5037TIP3    H236603   0.664   5.652   3.637  0.2844  0.1260 -0.8835
 5038TIP3   OH236604   1.201   1.879  11.052  0.2354  0.1842  0.2794
 5038TIP3    H136605   1.190   1.970  11.024  0.9952  0.3315  0.4435
 5038TIP3    H236606   1.172   1.879  11.143  1.0575  0.4585  0.5503
 5039TIP3   OH236607   1.830   5.315  14.229 -0.1687 -0.3915  0.2136
 5039TIP3    H136608   1.798   5.235  14.186 -1.9579 -0.1113  0.9542
 5039TIP3    H236609   1.771   5.384  14.198  1.5871  0.7707 -0.7196
 5040TIP3   OH236610   2.255   1.305  11.581 -0.4392  0.1042  0.6666
 5040TIP3    H136611   2.311   1.250  11.635 -0.6642  0.1726  0.9737
 5040TIP3    H236612   2.168   1.295  11.619 -0.8128 -0.7295 -0.3623
 5041TIP3   OH236613   3.693   1.654  15.068 -0.4412  0.3587  0.0768
 5041TIP3    H136614   3.639   1.717  15.117 -0.1164  0.3564  0.4369
 5041TIP3    H236615   3.726   1.704  14.993 -0.0576  0.6632  0.4456
 5042TIP3   OH236616   4.015   1.777  17.073 -0.0281  0.1523 -0.5504
 5042TIP3    H136617   3.933   1.727  17.071 -0.1396  0.2343  1.0310
 5042TIP3    H236618   4.011   1.827  17.155  1.9601 -0.4742 -0.0145
 5043TIP3   OH236619   0.453   5.787   1.537  0.1327  0.5018  0.1148
 5043TIP3    H136620   0.452   5.874   1.577 -2.5409  0.5203  0.1369
 5043TIP3    H236621   0.453   5.726   1.612 -1.9852  0.5361  0.1916
 5044TIP3   OH236622   6.281   6.088   5.431 -0.2974 -0.2487  0.4653
 5044TIP3    H136623   6.258   6.076   5.339 -2.8824 -0.3043  1.0533
 5044TIP3    H236624   6.327   6.007   5.455  1.6219  0.3132 -1.0558
 5045TIP3   OH236625   3.666   2.057  16.241  0.3422  0.2202 -0.0807
 5045TIP3    H136626   3.623   2.055  16.327 -0.3531 -0.8716 -0.4401
 5045TIP3    H236627   3.742   2.000  16.252  1.0469  1.1771  0.1932
 5046TIP3   OH236628   0.324   2.133   4.642  0.0452  0.0072  0.2517
 5046TIP3    H136629   0.282   2.182   4.570  0.8152  2.4904  1.3601
 5046TIP3    H236630   0.371   2.062   4.598  2.4331  2.7682 -2.1366
 5047TIP3   OH236631   6.552   0.446   2.175 -0.7620  0.0300  0.0536
 5047TIP3    H136632   6.557   0.350   2.173  1.4638  0.0733 -2.5608
 5047TIP3    H236633   6.502   0.469   2.096  0.6552  1.0170 -0.6028
 5048TIP3   OH236634   4.907   4.717  13.735 -0.8083 -0.2569  0.3390
 5048TIP3    H136635   4.911   4.626  13.765  1.1652 -0.4660 -0.4113
 5048TIP3    H236636   4.986   4.758  13.771  0.1679  0.2173 -2.1034
 5049TIP3   OH236637   5.283   1.704   1.728  0.1465 -0.1932  0.1304
 5049TIP3    H136638   5.337   1.731   1.803  0.7652 -0.3911 -0.2379
 5049TIP3    H236639   5.275   1.609   1.737  3.2174 -0.8095 -1.9303
 5050TIP3   OH236640   4.880   6.256  16.630  0.1190  0.1056 -0.5617
 5050TIP3    H136641   4.829   6.334  16.654  1.0270  0.6445 -0.3261
 5050TIP3    H236642   4.860   6.193  16.699  0.1756  0.4970 -0.1843
 5051TIP3   OH236643   1.581   2.527   4.316  0.4608  0.2379 -0.4235
 5051TIP3    H136644   1.583   2.622   4.320 -0.2635  0.2334  0.0540
 5051TIP3    H236645   1.664   2.503   4.273  0.3297  1.1056 -1.1727
 5052TIP3   OH236646   3.539   5.714  14.820  0.3389  0.3059  0.3481
 5052TIP3    H136647   3.523   5.630  14.862 -1.4815  0.9141  0.9909
 5052TIP3    H236648   3.472   5.772  14.857  2.7317  2.5889  1.4278
 5053TIP3   OH236649   5.830   0.193  16.381 -0.1799  0.5472  0.2520
 5053TIP3    H136650   5.886   0.217  16.455  2.2718 -0.3772 -1.1567
 5053TIP3    H236651   5.770   0.127  16.417  0.5897  0.5111  1.5365
 5054TIP3   OH236652   6.317   1.756   0.909 -1.1495  0.5334 -0.9074
 5054TIP3    H136653   6.408   1.741   0.935 -1.8888 -2.1333  0.5018
 5054TIP3    H236654   6.277   1.799   0.984 -1.5530 -0.4289 -0.5494
 5055TIP3   OH236655   3.170   5.096   0.899  0.2742  0.1434  0.0127
 5055TIP3    H136656   3.230   5.104   0.825  1.8458  3.1144  1.4321
 5055TIP3    H236657   3.122   5.179   0.900  0.2760  0.1771  2.2604
 5056TIP3   OH236658   0.467   1.558   1.228 -0.1961  0.0645 -0.2026
 5056TIP3    H136659   0.412   1.623   1.184  0.3630 -0.2058 -1.3560
 5056TIP3    H236660   0.497   1.601   1.308 -0.2514  1.0339 -0.6898
 5057TIP3   OH236661   2.333   2.006   0.320 -0.3117 -0.0855 -0.2580
 5057TIP3    H136662   2.373   1.978   0.402  0.8158  0.7838 -0.4955
 5057TIP3    H236663   2.336   1.928   0.264 -0.5177 -0.5019  0.2958
 5058TIP3   OH236664   4.445   4.160   3.852 -0.0535 -0.5264  0.3536
 5058TIP3    H136665   4.356   4.124   3.862 -0.1262 -1.6977 -3.2698
 5058TIP3    H236666   4.433   4.238   3.798  1.0807 -0.4758  0.1647
 5059TIP3   OH236667   5.938   1.671  13.212 -0.4653  0.5649  0.2140
 5059TIP3    H136668   5.985   1.666  13.129  0.0755  0.2253  0.5350
 5059TIP3    H236669   5.913   1.763  13.220  0.1828  0.7594  0.0605
 5060TIP3   OH236670   1.167   0.073   1.088 -0.2640  0.4312  0.2332
 5060TIP3    H136671   1.158   0.029   1.003  1.5358  0.7921 -0.1980
 5060TIP3    H236672   1.261   0.070   1.106 -0.5421  0.9369  1.9227
 5061TIP3   OH236673   6.377   6.831   3.665  0.1290 -0.7408 -0.9776
 5061TIP3    H136674   6.453   6.784   3.699 -0.0620 -2.1239 -2.3411
 5061TIP3    H236675   6.330   6.766   3.613 -0.5775  0.7540 -2.3108
 5062TIP3   OH236676   5.976   4.593  13.961 -0.7695  0.3822 -0.3773
 5062TIP3    H136677   6.071   4.603  13.965 -0.6185 -0.5205 -1.2437
 5062TIP3    H236678   5.950   4.647  13.887 -0.7578 -0.4227 -0.9754
 5063TIP3   OH236679   0.630   3.083   2.520 -0.1935  0.0831  0.8471
 5063TIP3    H136680   0.644   3.030   2.441  0.0440  0.3923  0.6768
 5063TIP3    H236681   0.717   3.114   2.544 -0.0124 -1.4277  2.2550
 5064TIP3   OH236682   6.751   6.664  17.090 -0.0488 -0.2054 -0.6362
 5064TIP3    H136683   6.789   6.617  17.016  0.6717 -2.8324  1.2469
 5064TIP3    H236684   6.661   6.682  17.063  0.5315  0.0262 -2.5682
 5065TIP3   OH236685   4.990   4.953  16.617  0.0186 -0.3103  0.1470
 5065TIP3    H136686   4.955   4.988  16.699 -2.0652  0.4990 -1.0300
 5065TIP3    H236687   5.065   5.009  16.597 -0.5269  0.5921  0.6051
 5066TIP3   OH236688   6.314   6.063  13.046 -0.0171 -0.1660  0.5075
 5066TIP3    H136689   6.231   6.085  13.087 -0.6675 -1.8686  0.1736
 5066TIP3    H236690   6.338   5.978  13.084  1.0507 -0.1755 -0.1543
 5067TIP3   OH236691   5.725   1.404  12.733 -0.0239  0.4690  0.1587
 5067TIP3    H136692   5.698   1.392  12.824 -0.9093  1.6414  0.0694
 5067TIP3    H236693   5.708   1.319  12.693  0.2135 -0.0114  1.0429
 5068TIP3   OH236694   3.941   6.065  15.130  0.3159  0.3379  0.2353
 5068TIP3    H136695   3.922   6.134  15.194  0.7423  1.3051 -0.6673
 5068TIP3    H236696   4.029   6.085  15.098  0.1146 -0.1366 -0.6509
 5069TIP3   OH236697   1.373   5.430  12.088 -0.2071 -0.4299  0.8086
 5069TIP3    H136698   1.339   5.518  12.105 -0.3092 -0.2335 -0.3314
 5069TIP3    H236699   1.468   5.440  12.088 -0.2215 -0.1153 -0.2095
 5070TIP3   OH236700   0.939   2.966   2.325  0.3209  1.1530 -0.4067
 5070TIP3    H136701   0.923   2.901   2.393 -0.1333  0.8754 -0.7651
 5070TIP3    H236702   0.928   2.917   2.243  0.0283  1.6669 -0.6810
 5071TIP3   OH236703   2.098   3.216  15.980 -0.1972  0.5160  0.6091
 5071TIP3    H136704   2.060   3.303  15.992  1.0231  0.8598  2.4143
 5071TIP3    H236705   2.024   3.161  15.956 -1.2383  1.7963  0.7443
 5072TIP3   OH236706   4.165   6.107   6.165 -0.2644  0.0672  0.2744
 5072TIP3    H136707   4.106   6.166   6.119  0.3641  0.5144  0.0246
 5072TIP3    H236708   4.143   6.118   6.258 -2.1539 -1.5132  0.0724
 5073TIP3   OH236709   2.374   0.501  13.348  0.0290 -0.1417  0.2011
 5073TIP3    H136710   2.309   0.495  13.418  1.3647  0.3299  1.5195
 5073TIP3    H236711   2.342   0.573  13.293 -1.4664 -1.0539 -0.2043
 5074TIP3   OH236712   5.549   1.318  11.601  1.0723 -0.4804 -0.3141
 5074TIP3    H136713   5.475   1.290  11.547  1.2980 -0.3811 -0.6756
 5074TIP3    H236714   5.571   1.240  11.654  1.4531 -0.8824 -1.0450
 5075TIP3   OH236715   4.799   5.620  12.573 -0.5328  0.5242  0.4017
 5075TIP3    H136716   4.884   5.640  12.613 -0.7527  1.5386  0.3815
 5075TIP3    H236717   4.753   5.567  12.639  1.4550 -3.3477 -0.9823
 5076TIP3   OH236718   5.062   2.521  13.238 -0.1788  0.3888  0.1613
 5076TIP3    H136719   5.146   2.491  13.272 -0.1051 -0.2370 -0.5304
 5076TIP3    H236720   5.028   2.581  13.304 -0.0263 -0.7520  1.3146
 5077TIP3   OH236721   1.456   4.381  11.281  0.3384 -0.6133 -0.0951
 5077TIP3    H136722   1.448   4.322  11.206  1.5898 -0.3834 -0.4447
 5077TIP3    H236723   1.522   4.445  11.253  1.3079 -0.9035  1.4365
 5078TIP3   OH236724   1.534   3.661  13.521 -0.4704  0.3648 -0.1260
 5078TIP3    H136725   1.536   3.711  13.439  1.7184 -0.0094 -0.3636
 5078TIP3    H236726   1.589   3.584  13.503 -0.8031 -0.2559  1.3803
 5079TIP3   OH236727   4.094   6.543   5.501 -0.1135 -0.7195  0.2113
 5079TIP3    H136728   4.038   6.529   5.578 -0.0992 -1.5825  0.0640
 5079TIP3    H236729   4.141   6.461   5.490  0.0169 -0.5382 -0.6171
 5080TIP3   OH236730   1.122   5.600  16.040 -0.0002  0.0832  0.1009
 5080TIP3    H136731   1.136   5.573  16.131  1.8583 -0.6866 -0.3646
 5080TIP3    H236732   1.131   5.520  15.989  2.2613  0.9556 -1.0161
 5081TIP3   OH236733   3.087   4.130   1.986  0.1189  0.7842  0.2673
 5081TIP3    H136734   3.057   4.204   2.039  1.1111  2.6372 -1.5972
 5081TIP3    H236735   3.182   4.128   1.997  0.0305 -0.9511  1.1150
 5082TIP3   OH236736   3.069   6.530   5.879 -0.2097 -0.0248 -0.2658
 5082TIP3    H136737   3.082   6.544   5.973 -0.6213 -1.7722  0.0771
 5082TIP3    H236738   3.143   6.576   5.838 -1.0650  2.4328  0.7461
 5083TIP3   OH236739   2.502   2.559   1.732  0.0460 -0.1553 -0.2256
 5083TIP3    H136740   2.421   2.532   1.688 -0.8078  1.5053  0.2650
 5083TIP3    H236741   2.525   2.485   1.788 -2.2759  0.0940  1.1517
 5084TIP3   OH236742   1.148   2.890  14.819 -0.3194  0.5411 -0.3808
 5084TIP3    H136743   1.173   2.922  14.906  0.1892 -0.3642 -0.1869
 5084TIP3    H236744   1.228   2.852  14.783 -0.8740 -0.3978 -0.6523
 5085TIP3   OH236745   5.837   1.247  13.556 -0.2819 -0.3182  0.6077
 5085TIP3    H136746   5.924   1.235  13.594  0.3921 -0.7293 -0.9785
 5085TIP3    H236747   5.852   1.301  13.479 -1.2668 -1.1887 -0.2295
 5086TIP3   OH236748   6.607   1.642   1.429 -0.2832 -0.0234  0.0647
 5086TIP3    H136749   6.684   1.591   1.456  1.1109  0.9016 -1.8735
 5086TIP3    H236750   6.644   1.720   1.389 -2.2731  0.5928 -0.6625
 5087TIP3   OH236751   2.244   2.876   0.672 -0.3765  0.8357  0.0698
 5087TIP3    H136752   2.331   2.912   0.692  0.6870 -1.2446 -0.4413
 5087TIP3    H236753   2.228   2.902   0.581  0.0066  0.7130 -0.0362
 5088TIP3   OH236754   5.207   0.095   3.646 -0.7114 -0.7994 -0.5776
 5088TIP3    H136755   5.165   0.011   3.626 -0.2675 -0.8818 -1.1876
 5088TIP3    H236756   5.192   0.149   3.569 -0.7476 -0.4137 -0.3013
 5089TIP3   OH236757   5.314   6.582   4.846  0.0428 -0.2393 -0.6514
 5089TIP3    H136758   5.362   6.519   4.900 -1.5365 -2.1208 -1.3281
 5089TIP3    H236759   5.222   6.557   4.856 -0.6509  1.9463 -1.0278
 5090TIP3   OH236760   1.934   4.373  13.018 -0.1596 -0.0869 -0.4290
 5090TIP3    H136761   1.878   4.295  13.011 -1.5469  0.7475  0.7006
 5090TIP3    H236762   1.874   4.443  13.042  1.2376  1.1046 -0.2820
 5091TIP3   OH236763   5.430   1.246  10.357  0.1298 -0.2194  0.3040
 5091TIP3    H136764   5.512   1.202  10.332 -0.9284 -1.9683 -0.3050
 5091TIP3    H236765   5.362   1.181  10.339 -1.5553  1.6445 -0.4848
 5092TIP3   OH236766   4.324   6.788  15.902  0.4527 -0.1910  0.1591
 5092TIP3    H136767   4.295   6.706  15.943 -0.6538 -0.0216 -0.2355
 5092TIP3    H236768   4.344   6.846  15.975 -0.8021 -0.1295  0.4865
 5093TIP3   OH236769   2.152   2.589   3.846  1.2025 -0.4096  0.1115
 5093TIP3    H136770   2.203   2.649   3.792  0.3016  1.1561  0.9392
 5093TIP3    H236771   2.212   2.561   3.914  2.1789 -1.9583 -1.2955
 5094TIP3   OH236772   0.597   0.400  11.687 -0.0943  0.4636 -0.4917
 5094TIP3    H136773   0.652   0.334  11.643  1.0690 -0.5434  2.2154
 5094TIP3    H236774   0.536   0.348  11.739 -0.9023  1.5773 -0.3178
 5095TIP3   OH236775   5.790   4.621  12.939  0.2002  0.0883 -0.4424
 5095TIP3    H136776   5.795   4.658  13.027  1.1873  0.2750 -0.5695
 5095TIP3    H236777   5.766   4.529  12.953 -0.4025  0.3034 -0.0278
 5096TIP3   OH236778   4.050   5.401   2.600  0.0857 -0.3659  0.2113
 5096TIP3    H136779   4.105   5.473   2.570 -0.2047 -0.9667 -1.9218
 5096TIP3    H236780   3.978   5.399   2.537 -0.2473 -2.1043  0.6079
 5097TIP3   OH236781   0.299   6.634   3.334 -0.4723  0.8919  0.0927
 5097TIP3    H136782   0.315   6.725   3.358 -1.4051  0.1972  4.1056
 5097TIP3    H236783   0.363   6.585   3.386 -2.9252 -0.8622  1.6862
 5098TIP3   OH236784   0.763   0.566  15.275  0.3073 -0.6974 -0.1834
 5098TIP3    H136785   0.762   0.647  15.327 -0.3346 -0.6230 -0.3088
 5098TIP3    H236786   0.813   0.588  15.197  0.8686 -0.6708  0.1756
 5099TIP3   OH236787   4.197   4.875   3.494 -0.1734  0.1120  0.5553
 5099TIP3    H136788   4.245   4.792   3.496  0.7430  0.6320  0.8505
 5099TIP3    H236789   4.177   4.893   3.586  1.3308  1.1499  0.7210
 5100TIP3   OH236790   1.057   2.143  12.312  0.4008  0.1140 -0.1688
 5100TIP3    H136791   1.064   2.221  12.257  1.0852  0.8287  0.9153
 5100TIP3    H236792   1.121   2.156  12.381 -1.6659  0.1154  1.8605
 5101TIP3   OH236793   0.078   2.146   2.333 -0.4922  0.0922  0.7095
 5101TIP3    H136794   0.171   2.165   2.336 -0.7850  1.7060  0.7694
 5101TIP3    H236795   0.072   2.051   2.327  1.1586 -0.0010  0.1685
 5102TIP3   OH236796   4.217   4.287   4.358 -0.8230  0.3200  0.3368
 5102TIP3    H136797   4.241   4.362   4.303 -1.0118  0.8113  0.9162
 5102TIP3    H236798   4.301   4.255   4.391 -0.8113  0.9488  0.9473
 5103TIP3   OH236799   2.191   4.872   3.635 -0.1424 -0.5546 -0.2165
 5103TIP3    H136800   2.105   4.873   3.677  1.2124 -1.9026  2.8818
 5103TIP3    H236801   2.187   4.798   3.575 -0.7817 -1.4160  0.8450
 5104TIP3   OH236802   0.424   0.557  16.268  0.1948 -0.4328 -0.2430
 5104TIP3    H136803   0.468   0.613  16.332  1.4506 -1.0205 -0.5542
 5104TIP3    H236804   0.485   0.553  16.194 -2.0002  1.7525 -2.3531
 5105TIP3   OH236805   3.433   2.926  13.706 -0.5547 -0.4055 -0.1082
 5105TIP3    H136806   3.522   2.950  13.679 -0.2275 -0.0359  1.2122
 5105TIP3    H236807   3.440   2.910  13.800 -2.1099  0.7932  0.2649
 5106TIP3   OH236808   6.600   3.393  15.472 -0.0503  0.5101 -0.4916
 5106TIP3    H136809   6.657   3.323  15.501 -0.2809  0.7938  0.6980
 5106TIP3    H236810   6.654   3.447  15.414 -0.4333 -1.7374 -3.1769
 5107TIP3   OH236811   1.639   0.538  11.277  0.1502  0.8470  0.1354
 5107TIP3    H136812   1.581   0.591  11.222  1.8004  0.1788 -2.4305
 5107TIP3    H236813   1.588   0.459  11.296 -0.6671  1.3496  0.0567
 5108TIP3   OH236814   0.777   3.486  14.336  0.6999 -0.4107 -0.1859
 5108TIP3    H136815   0.717   3.418  14.365 -1.4066  1.0751 -0.7886
 5108TIP3    H236816   0.863   3.458  14.367 -0.6604 -1.3012  3.1537
 5109TIP3   OH236817   3.368   6.039   0.369 -0.0772  0.1572  0.1703
 5109TIP3    H136818   3.317   5.958   0.377  0.0999  0.1406  1.3086
 5109TIP3    H236819   3.458   6.009   0.356 -0.2065  0.1859 -0.8686
 5110TIP3   OH236820   6.687   5.883   4.149 -0.0006  0.2690 -0.1088
 5110TIP3    H136821   6.774   5.917   4.127 -0.7565  1.4051 -1.4885
 5110TIP3    H236822   6.643   5.872   4.064 -0.4897 -2.3942  0.3822
 5111TIP3   OH236823   5.919   4.469  15.132 -0.4468 -0.0299 -0.1769
 5111TIP3    H136824   6.003   4.487  15.088 -0.0500  1.9730  1.2537
 5111TIP3    H236825   5.926   4.378  15.161  0.7751 -0.2337 -1.0088
 5112TIP3   OH236826   0.661   1.359  12.942 -0.0213  0.5598  0.4381
 5112TIP3    H136827   0.664   1.450  12.971 -0.9993  1.4647 -2.0390
 5112TIP3    H236828   0.573   1.348  12.905  0.1537 -1.3260  0.4572
 5113TIP3   OH236829   4.880   4.368   2.202 -0.3028 -0.3601 -0.3997
 5113TIP3    H136830   4.972   4.393   2.213 -0.2041 -1.2254  1.1647
 5113TIP3    H236831   4.881   4.272   2.203 -1.2023 -0.3836 -0.4340
 5114TIP3   OH236832   3.763   4.895  15.801 -0.4634 -0.1666  0.0935
 5114TIP3    H136833   3.804   4.969  15.757 -0.5564 -0.5059 -0.5841
 5114TIP3    H236834   3.670   4.902  15.779 -0.2498 -1.3700 -1.3228
 5115TIP3   OH236835   5.719   6.695   1.509 -0.1404  0.2193  0.0677
 5115TIP3    H136836   5.665   6.696   1.431  0.7040 -1.4745 -0.5776
 5115TIP3    H236837   5.692   6.617   1.557 -1.3650  1.7592  2.0503
 5116TIP3   OH236838   2.552   1.449   4.227 -0.0571  0.3467 -0.1540
 5116TIP3    H136839   2.630   1.481   4.181  1.2267  1.3569  2.5415
 5116TIP3    H236840   2.499   1.408   4.158  3.4017 -1.5628 -1.9647
 5117TIP3   OH236841   3.411   6.491   5.892 -0.0376  0.1252 -0.1638
 5117TIP3    H136842   3.419   6.397   5.904  1.4657  0.2424 -0.1288
 5117TIP3    H236843   3.389   6.524   5.980  1.3208 -0.0137  0.2485
 5118TIP3   OH236844   4.558   2.174  16.392  0.7698 -0.4495 -0.0736
 5118TIP3    H136845   4.496   2.144  16.459 -0.4346  0.5574 -0.6906
 5118TIP3    H236846   4.600   2.250  16.432  0.0672  0.1377 -0.4140
 5119TIP3   OH236847   2.165   0.350   3.335 -0.3017  0.3820  0.0121
 5119TIP3    H136848   2.185   0.328   3.244  2.1872 -0.6494  0.7152
 5119TIP3    H236849   2.091   0.410   3.330 -1.4090 -1.0236 -2.5729
 5120TIP3   OH236850   4.427   3.173  11.681  0.2033  0.1164  1.3521
 5120TIP3    H136851   4.408   3.086  11.715 -0.9102  0.2717  1.1512
 5120TIP3    H236852   4.409   3.233  11.753 -2.3757  0.4655  0.5019
 5121TIP3   OH236853   4.470   2.209   3.222  0.4297 -0.1702 -0.3114
 5121TIP3    H136854   4.535   2.270   3.186  1.1343 -0.6353  0.1384
 5121TIP3    H236855   4.460   2.235   3.313  1.2606 -1.1240  0.0790
 5122TIP3   OH236856   6.165   0.714   5.050  0.1695  0.0824  0.1048
 5122TIP3    H136857   6.260   0.710   5.067  0.6205  0.2157 -2.0322
 5122TIP3    H236858   6.159   0.726   4.955 -2.0157 -0.1094  0.1799
 5123TIP3   OH236859   5.110   4.220   1.098 -0.0171 -0.1157  0.6492
 5123TIP3    H136860   5.105   4.152   1.164  0.2655 -0.4460  0.3346
 5123TIP3    H236861   5.104   4.302   1.147 -2.6661 -0.3427  0.8528
 5124TIP3   OH236862   6.723   2.995   4.108 -0.2422  0.1397  0.4962
 5124TIP3    H136863   6.725   2.942   4.188  1.0414  0.3532  0.6390
 5124TIP3    H236864   6.816   3.010   4.088 -0.5743  1.5741 -0.0437
 5125TIP3   OH236865   6.601   1.764  12.424  0.2204 -0.3037  0.1344
 5125TIP3    H136866   6.603   1.722  12.337 -0.7083 -0.7172  0.2962
 5125TIP3    H236867   6.668   1.832  12.419  0.8133 -0.9196 -0.6015
 5126TIP3   OH236868   0.089   3.373  12.124 -0.4605 -0.4725  0.2289
 5126TIP3    H136869   0.148   3.447  12.140 -1.4345  0.3337  0.2202
 5126TIP3    H236870   0.038   3.366  12.205  0.4540 -1.9676  0.7314
 5127TIP3   OH236871   5.021   0.084   6.115  0.3505  0.4738  0.3555
 5127TIP3    H136872   4.946   0.101   6.171  0.5988  1.6434  0.3614
 5127TIP3    H236873   5.035   0.166   6.068  0.7772 -0.1658 -0.6681
 5128TIP3   OH236874   5.908   4.595   5.393  0.0884  1.1303 -0.2909
 5128TIP3    H136875   5.832   4.646   5.367 -0.6738 -0.1998 -0.7708
 5128TIP3    H236876   5.930   4.627   5.480 -1.9568  0.5452  0.4921
 5129TIP3   OH236877   4.085   1.946  11.769  0.2001  0.5541 -0.5348
 5129TIP3    H136878   4.177   1.928  11.790  0.3381  1.0684 -0.6655
 5129TIP3    H236879   4.037   1.923  11.848  0.6355  1.8156  0.1200
 5130TIP3   OH236880   6.172   3.705  15.097 -0.3260 -0.0605  0.7146
 5130TIP3    H136881   6.228   3.677  15.025 -0.5035  0.1170  0.5020
 5130TIP3    H236882   6.097   3.747  15.054  0.1892  1.2259  1.0150
 5131TIP3   OH236883   5.720   0.939  14.276  0.0714 -0.0387  0.4046
 5131TIP3    H136884   5.748   0.855  14.238 -0.0495  0.2570 -0.3607
 5131TIP3    H236885   5.789   0.962  14.337  0.9297  0.1032 -0.5875
 5132TIP3   OH236886   1.467   4.076  14.069 -0.6975 -0.1635 -0.5295
 5132TIP3    H136887   1.447   4.011  14.001 -2.5221  0.4353 -0.6197
 5132TIP3    H236888   1.385   4.086  14.117  0.4180 -0.2157  1.4894
 5133TIP3   OH236889   5.494   3.383  10.681 -0.3605 -0.2486 -0.1670
 5133TIP3    H136890   5.485   3.457  10.741 -1.4932  1.5840 -2.4149
 5133TIP3    H236891   5.404   3.352  10.668  0.1803 -2.7417  1.4837
 5134TIP3   OH236892   4.183   4.311   0.447 -0.8368  0.0357 -0.4493
 5134TIP3    H136893   4.118   4.241   0.450 -0.5993 -0.4182 -3.4948
 5134TIP3    H236894   4.258   4.273   0.401  0.4881  1.4247  0.4674
 5135TIP3   OH236895   2.272   2.609   4.991 -0.4050  0.5424  0.1245
 5135TIP3    H136896   2.298   2.520   5.015 -1.8698  0.3387  1.0500
 5135TIP3    H236897   2.269   2.608   4.895 -0.3475 -0.3809  0.1200
 5136TIP3   OH236898   6.136   6.591   5.696  0.3276 -0.9090  0.2395
 5136TIP3    H136899   6.102   6.558   5.779 -1.1496 -1.8621 -0.6975
 5136TIP3    H236900   6.209   6.533   5.674  0.4769 -0.8879  0.6858
 5137TIP3   OH236901   0.108   0.792   3.884  0.3574  0.6447 -0.1059
 5137TIP3    H136902   0.119   0.841   3.802  1.2294  0.6718  0.0170
 5137TIP3    H236903   0.191   0.805   3.930  0.5596 -0.8320 -0.0128
 5138TIP3   OH236904   1.819   0.719   0.004  0.5830  0.1751  0.1397
 5138TIP3    H136905   1.763   0.779   0.054  0.6211 -0.3139  0.7838
 5138TIP3    H236906   1.839   0.648   0.066 -0.7429 -1.3266 -1.0491
 5139TIP3   OH236907   0.354   1.451   2.320  0.2234 -0.9516 -0.1864
 5139TIP3    H136908   0.365   1.517   2.389  0.0343  1.3968 -2.2831
 5139TIP3    H236909   0.443   1.422   2.300  0.4426 -0.2484 -0.2482
 5140TIP3   OH236910   6.126   2.144   0.872  0.4453  0.5751  0.1479
 5140TIP3    H136911   6.049   2.179   0.916 -0.6393 -1.4747 -0.0090
 5140TIP3    H236912   6.147   2.209   0.805 -0.8799  1.3882  0.4903
 5141TIP3   OH236913   4.274   5.146  12.080 -0.0994  0.3459  0.6902
 5141TIP3    H136914   4.263   5.090  12.157 -0.3785  0.7926  0.9820
 5141TIP3    H236915   4.322   5.092  12.018 -1.5285 -0.7196  0.4430
 5142TIP3   OH236916   5.960   6.692   3.712  0.3009  0.3202 -0.2287
 5142TIP3    H136917   6.048   6.656   3.701  0.5594  0.7047  0.5075
 5142TIP3    H236918   5.902   6.624   3.677  0.9657  0.9482 -2.7297
 5143TIP3   OH236919   5.226   1.536  14.847  0.6983 -0.0238 -0.2890
 5143TIP3    H136920   5.190   1.582  14.772  0.0958  0.6784  0.4142
 5143TIP3    H236921   5.173   1.565  14.921 -0.8982 -3.1297 -0.0186
 5144TIP3   OH236922   1.967   0.039  16.441 -0.3538 -0.2186 -0.3077
 5144TIP3    H136923   1.958   0.132  16.419 -1.9476  0.1041  1.4564
 5144TIP3    H236924   2.062   0.023  16.437 -0.0221  1.5218 -0.4782
 5145TIP3   OH236925   2.053   0.499   6.456  0.2047  0.1875  0.5552
 5145TIP3    H136926   1.997   0.440   6.406  0.2491  1.2251 -0.7579
 5145TIP3    H236927   2.102   0.441   6.515 -1.3627 -0.8421  0.8974
 5146TIP3   OH236928   6.516   0.529  14.775 -0.3897  0.1292  0.0040
 5146TIP3    H136929   6.507   0.584  14.697  1.0810 -0.0760 -0.3416
 5146TIP3    H236930   6.493   0.586  14.848 -0.0935  0.8489 -0.4501
 5147TIP3   OH236931   5.809   3.984  16.349 -0.5784  0.4449  0.2704
 5147TIP3    H136932   5.841   3.901  16.312 -1.5849  0.2730 -0.2522
 5147TIP3    H236933   5.789   3.963  16.440 -2.3685 -0.3593 -0.2539
 5148TIP3   OH236934   3.792   4.174  15.025 -0.4394  0.0604  0.0714
 5148TIP3    H136935   3.756   4.232  15.093 -0.6346 -1.5280  1.3984
 5148TIP3    H236936   3.881   4.156  15.054 -0.3466 -0.2238 -0.3911
 5149TIP3   OH236937   0.796   5.369  13.041  0.5902 -0.3693  0.0585
 5149TIP3    H136938   0.755   5.301  13.094 -1.4004  1.2667  0.7564
 5149TIP3    H236939   0.840   5.426  13.105 -1.3199  1.2784  0.0177
 5150TIP3   OH236940   1.684   2.343   2.776  0.5102 -0.9918 -0.5342
 5150TIP3    H136941   1.649   2.269   2.826  0.8096 -1.7508 -1.4286
 5150TIP3    H236942   1.614   2.408   2.775  0.5212 -0.9236  0.9224
 5151TIP3   OH236943   1.212   4.025  15.628 -0.3694  0.3234  0.1486
 5151TIP3    H136944   1.288   3.996  15.678 -1.2094 -2.5159 -0.0312
 5151TIP3    H236945   1.136   3.997  15.679 -1.2578 -0.5294 -1.5276
 5152TIP3   OH236946   6.520   2.305   5.295 -0.1799  0.2582 -0.2116
 5152TIP3    H136947   6.535   2.211   5.282 -0.4598  0.2266 -0.3132
 5152TIP3    H236948   6.441   2.309   5.348 -0.2318  0.4397 -0.3029
 5153TIP3   OH236949   3.640   5.787   6.615 -0.1599  0.2004 -0.5530
 5153TIP3    H136950   3.645   5.878   6.645  0.4584  0.7061 -2.0920
 5153TIP3    H236951   3.567   5.787   6.552 -0.5690 -0.5193 -0.0854
 5154TIP3   OH236952   4.885   2.800   0.745  0.3133 -0.2652 -0.4992
 5154TIP3    H136953   4.822   2.868   0.767  0.9402  0.1936 -0.0830
 5154TIP3    H236954   4.936   2.836   0.673  1.2265  0.0945  0.2956
 5155TIP3   OH236955   2.213   3.095  15.012  0.3619 -0.2364 -0.0618
 5155TIP3    H136956   2.189   3.036  15.084 -1.3982 -0.2127 -0.5785
 5155TIP3    H236957   2.289   3.144  15.045  0.4868 -1.2321  1.2117
 5156TIP3   OH236958   0.461   6.597  13.515 -0.4747 -0.1101 -0.5530
 5156TIP3    H136959   0.504   6.516  13.540 -0.5459 -0.2155 -0.7638
 5156TIP3    H236960   0.410   6.623  13.592  1.6879  1.2244  0.5420
 5157TIP3   OH236961   4.044   5.632  11.316  0.0279  0.4306  0.5125
 5157TIP3    H136962   3.988   5.663  11.387 -0.4109  1.3965 -0.2252
 5157TIP3    H236963   4.100   5.566  11.356 -2.3288 -1.3613  1.0725
 5158TIP3   OH236964   5.555   1.653  14.901  0.2256 -0.2793 -0.4499
 5158TIP3    H136965   5.483   1.705  14.867 -0.5864  0.6342  2.3810
 5158TIP3    H236966   5.608   1.715  14.951  0.0979 -1.7984  1.7353
 5159TIP3   OH236967   0.520   4.305  14.151 -0.0155 -0.4932 -0.6389
 5159TIP3    H136968   0.587   4.320  14.217  0.5217 -0.1512 -1.2516
 5159TIP3    H236969   0.501   4.392  14.115 -1.4320 -0.4482  0.1241
 5160TIP3   OH236970   2.805   6.843  16.113 -0.5510  0.2223  0.4217
 5160TIP3    H136971   2.836   6.824  16.202 -0.3667 -0.9247  0.1371
 5160TIP3    H236972   2.800   6.757  16.071 -0.8632  0.7268 -0.6091
 5161TIP3   OH236973   6.216   1.715   2.345  0.3326 -0.4275 -0.1886
 5161TIP3    H136974   6.175   1.629   2.331 -1.1926  0.2839 -0.3511
 5161TIP3    H236975   6.153   1.777   2.308  1.7477  0.7215 -0.7340
 5162TIP3   OH236976   6.331   2.741  14.828  0.1437 -0.9303 -0.3845
 5162TIP3    H136977   6.396   2.802  14.793 -2.1525  0.5977 -2.2897
 5162TIP3    H236978   6.259   2.796  14.856 -1.0693 -2.6441  0.0386
 5163TIP3   OH236979   0.720   1.407  15.103 -0.0063  0.1632  0.1033
 5163TIP3    H136980   0.730   1.353  15.024 -0.1441  3.4610 -2.3910
 5163TIP3    H236981   0.809   1.426  15.131  0.0458 -0.5433  0.4495
 5164TIP3   OH236982   1.799   2.788   4.499  0.2439  0.3044  0.0338
 5164TIP3    H136983   1.737   2.805   4.428 -0.0106 -0.8111 -0.0398
 5164TIP3    H236984   1.744   2.761   4.573  0.5585  0.6139  0.3828
 5165TIP3   OH236985   1.543   0.053  12.627  0.5071  0.3260 -0.1044
 5165TIP3    H136986   1.620   0.077  12.680  0.3983 -0.8558  0.6348
 5165TIP3    H236987   1.470   0.099  12.669  1.0865  3.9870 -2.5865
 5166TIP3   OH236988   1.842   3.063  13.606  0.0431  0.0404  0.4280
 5166TIP3    H136989   1.751   3.060  13.635  0.2094  1.8482  1.2455
 5166TIP3    H236990   1.842   3.123  13.531  0.4268 -0.7548 -0.2403
 5167TIP3   OH236991   1.086   0.045  15.443 -0.1389  0.1204  0.0552
 5167TIP3    H136992   1.127   0.002  15.368 -0.9227  0.2831 -0.4850
 5167TIP3    H236993   1.037   0.118  15.405 -2.6798 -1.3016  0.3497
 5168TIP3   OH236994   1.157   3.714  16.258 -0.0565  0.7674  0.0773
 5168TIP3    H136995   1.145   3.675  16.345  1.3780  0.3792  0.1246
 5168TIP3    H236996   1.194   3.801  16.276  0.1003  0.7462 -0.1331
 5169TIP3   OH236997   1.398   0.668   0.525 -1.2240  0.1956 -0.1824
 5169TIP3    H136998   1.400   0.758   0.494  1.8889  0.7831  1.3301
 5169TIP3    H236999   1.412   0.614   0.447 -0.5045  1.1895 -0.7482
 5170TIP3   OH237000   3.466   4.525   0.929  0.2381  0.1251  0.2221
 5170TIP3    H137001   3.448   4.604   0.880 -1.7866  0.3903  1.2968
 5170TIP3    H237002   3.384   4.475   0.927 -0.2345  0.4729  3.7682
 5171TIP3   OH237003   4.258   1.413   5.282 -0.2419  0.3135 -0.0652
 5171TIP3    H137004   4.233   1.503   5.261  0.2152  0.3398 -0.5185
 5171TIP3    H237005   4.269   1.371   5.196 -3.0630 -0.9251  0.0467
 5172TIP3   OH237006   0.820   0.466   5.930  0.0134  0.4092 -0.0021
 5172TIP3    H137007   0.733   0.506   5.936  0.1546  0.7585 -0.2452
 5172TIP3    H237008   0.878   0.529   5.971  0.4121  1.0212 -1.4548
 5173TIP3   OH237009   5.609   5.182  10.883 -0.5157 -0.1877 -0.1622
 5173TIP3    H137010   5.546   5.253  10.893  1.5554  1.7527  0.0590
 5173TIP3    H237011   5.590   5.144  10.798 -2.5914 -0.3733  0.3304
 5174TIP3   OH237012   3.772   1.972   2.137  1.1799 -1.1889  0.2080
 5174TIP3    H137013   3.719   1.895   2.160 -0.2954 -0.3813 -0.3294
 5174TIP3    H237014   3.730   2.006   2.058  2.2088 -0.2044  0.0689
 5175TIP3   OH237015   2.485   3.634   2.154  0.1745  0.2150 -0.5006
 5175TIP3    H137016   2.492   3.729   2.138  0.9886 -0.1591 -2.6913
 5175TIP3    H237017   2.575   3.606   2.171  0.3029 -0.4876 -2.1591
 5176TIP3   OH237018   3.192   2.550  14.277  0.0719  0.0511  0.2244
 5176TIP3    H137019   3.286   2.564  14.273  0.1445 -0.6027 -1.0991
 5176TIP3    H237020   3.155   2.636  14.296  0.9673  0.0987  1.9558
 5177TIP3   OH237021   4.908   6.231  14.116  0.1610  0.7088  0.4460
 5177TIP3    H137022   4.943   6.157  14.066  0.4919  0.1345  1.4811
 5177TIP3    H237023   4.887   6.297  14.051  1.9174  0.5543 -0.3321
 5178TIP3   OH237024   6.065   2.741   3.646  0.2906  0.1013 -0.4151
 5178TIP3    H137025   6.053   2.832   3.671  1.7419  0.5514 -1.2584
 5178TIP3    H237026   6.059   2.692   3.728  2.0745  1.2271  0.4305
 5179TIP3   OH237027   1.999   6.692  15.348  0.6662  0.6984  0.0294
 5179TIP3    H137028   1.940   6.656  15.282 -0.7723  2.1425  0.4781
 5179TIP3    H237029   1.944   6.745  15.405  1.7362 -0.9797  2.8492
 5180TIP3   OH237030   4.411   4.226  12.512  0.3259  0.4882  0.0434
 5180TIP3    H137031   4.317   4.207  12.515  0.4623 -0.1261  1.1486
 5180TIP3    H237032   4.438   4.223  12.604  1.2411  1.6614 -0.1735
 5181TIP3   OH237033   3.903   5.739  11.535  0.1505  0.0891  0.3020
 5181TIP3    H137034   3.826   5.683  11.542 -0.0033  0.3097  0.4055
 5181TIP3    H237035   3.948   5.729  11.619  0.2843 -0.1073  0.2090
 5182TIP3   OH237036   0.223   2.226   5.575 -0.3511 -0.1609  0.1744
 5182TIP3    H137037   0.261   2.287   5.512 -0.7492  0.0711  0.1546
 5182TIP3    H237038   0.297   2.196   5.627  0.0852 -0.8675 -0.8316
 5183TIP3   OH237039   4.996   0.302   1.787 -0.3640  0.0217  0.0707
 5183TIP3    H137040   5.012   0.233   1.852  1.5982  0.5543  0.2257
 5183TIP3    H237041   5.078   0.351   1.784 -0.8932  0.8830 -1.7931
 5184TIP3   OH237042   4.715   5.057   0.651  0.0502 -0.9118 -0.0767
 5184TIP3    H137043   4.728   4.998   0.576 -0.4433 -0.5328 -0.4674
 5184TIP3    H237044   4.680   5.137   0.612 -0.9653 -0.9864  0.6420
 5185TIP3   OH237045   2.138   5.513  15.128 -0.3379 -0.2510  0.3299
 5185TIP3    H137046   2.134   5.439  15.189 -0.2751 -1.8700 -1.5075
 5185TIP3    H237047   2.227   5.509  15.091 -0.4328  0.5595 -0.0032
 5186TIP3   OH237048   5.634   0.020  13.195  0.1034  0.2342 -0.4861
 5186TIP3    H137049   5.687   0.092  13.229 -1.6776  0.5730  1.9274
 5186TIP3    H237050   5.565   0.063  13.144 -0.5754  0.2642  0.4100
 5187TIP3   OH237051   0.266   2.032  13.453 -0.1858 -0.0697  0.1041
 5187TIP3    H137052   0.248   2.070  13.539  0.4251 -1.9507  1.1445
 5187TIP3    H237053   0.351   2.069  13.428 -0.5687  0.8178  0.0967
 5188TIP3   OH237054   0.457   4.272   4.790 -0.4618  0.2720 -0.5568
 5188TIP3    H137055   0.550   4.292   4.779 -0.3662  0.1030 -0.1103
 5188TIP3    H237056   0.440   4.199   4.731 -0.4074  0.5575 -0.9293
 5189TIP3   OH237057   0.889   1.625  10.039 -0.4088 -0.1967 -0.2268
 5189TIP3    H137058   0.895   1.530  10.048 -2.0509 -0.1583  2.2254
 5189TIP3    H237059   0.806   1.648  10.081 -1.0650  2.1628 -2.5519
 5190TIP3   OH237060   3.654   1.719  13.028 -0.2561 -0.6669  0.1654
 5190TIP3    H137061   3.732   1.663  13.028  1.8373  2.0390  0.7524
 5190TIP3    H237062   3.659   1.767  13.111 -1.9761  0.3637 -0.2756
 5191TIP3   OH237063   0.953   2.008  13.215 -0.1841 -0.6808  0.1441
 5191TIP3    H137064   1.005   2.018  13.135 -0.0170  2.9334  0.5405
 5191TIP3    H237065   1.017   1.991  13.284 -0.0523 -1.1412 -0.0882
 5192TIP3   OH237066   6.385   6.574   0.291 -0.6688  0.3419  0.4054
 5192TIP3    H137067   6.303   6.548   0.334  0.0101 -2.0794  0.3650
 5192TIP3    H237068   6.453   6.556   0.357 -0.0524  1.2994  0.0530
 5193TIP3   OH237069   3.188   5.074   0.318  0.7064 -0.2774 -0.2390
 5193TIP3    H137070   3.203   5.150   0.373  0.6183 -0.9944  0.7894
 5193TIP3    H237071   3.176   5.001   0.379 -0.8354 -0.8347 -1.1471
 5194TIP3   OH237072   3.139   2.718   2.253 -0.2431  0.3403 -0.0321
 5194TIP3    H137073   3.049   2.741   2.278 -0.3139 -0.4735  0.5037
 5194TIP3    H237074   3.134   2.706   2.158 -0.0007  3.2954 -0.5063
 5195TIP3   OH237075   3.319   4.531  10.547 -0.4203  0.0059  0.2809
 5195TIP3    H137076   3.327   4.464  10.615 -0.6713  0.9172  1.2268
 5195TIP3    H237077   3.228   4.525  10.518 -0.6694  0.4767  0.9462
 5196TIP3   OH237078   4.409   2.600  13.291 -0.1828 -0.3869  0.2602
 5196TIP3    H137079   4.430   2.591  13.198 -0.0805  2.5565 -0.0666
 5196TIP3    H237080   4.363   2.519  13.312  1.5927 -2.0700 -1.7948
 5197TIP3   OH237081   0.224   5.451   1.761  0.2586 -0.3177  0.5427
 5197TIP3    H137082   0.231   5.483   1.852 -0.8692 -1.9825  1.2501
 5197TIP3    H237083   0.130   5.438   1.747  0.5331 -1.4743 -0.3538
 5198TIP3   OH237084   5.455   5.864  12.969  0.4950 -0.3144 -0.3521
 5198TIP3    H137085   5.494   5.781  12.942  1.3089  0.0805 -0.4273
 5198TIP3    H237086   5.466   5.866  13.064 -0.2607 -0.6495 -0.2477
 5199TIP3   OH237087   4.546   3.255  16.039 -0.1978  0.4181  0.3685
 5199TIP3    H137088   4.461   3.216  16.063 -0.3111 -0.2612 -1.0354
 5199TIP3    H237089   4.582   3.285  16.122 -1.1123 -0.7044  1.2156
 5200TIP3   OH237090   5.540   0.438   3.987  0.5387  0.6655  0.2207
 5200TIP3    H137091   5.490   0.373   4.034  1.4508  0.6316  1.1723
 5200TIP3    H237092   5.500   0.522   4.012  0.2208  0.5670  0.0501
 5201TIP3   OH237093   3.121   0.583  13.225 -0.0668  0.0190 -0.6714
 5201TIP3    H137094   3.072   0.650  13.272 -2.4650 -1.0130 -1.5832
 5201TIP3    H237095   3.160   0.630  13.151 -1.7079  0.4783 -1.2941
 5202TIP3   OH237096   1.060   6.267  13.847 -0.0262  0.5993 -0.2672
 5202TIP3    H137097   1.110   6.243  13.925 -0.4915 -0.2027 -0.2188
 5202TIP3    H237098   1.076   6.196  13.785 -2.6663 -0.7251  0.4342
 5203TIP3   OH237099   4.866   0.931   5.777  0.2426  0.1889 -0.3202
 5203TIP3    H137100   4.838   0.990   5.707 -1.0395  0.2768  0.2476
 5203TIP3    H237101   4.824   0.965   5.855  3.2462  1.3181  0.9602
 5204TIP3   OH237102   2.149   6.428   3.736 -0.0628 -0.5639  0.2066
 5204TIP3    H137103   2.102   6.509   3.757 -0.8749 -0.7666 -0.7786
 5204TIP3    H237104   2.166   6.433   3.642 -0.3105 -1.6309  0.0909
 5205TIP3   OH237105   3.199   0.668  13.885 -0.3377 -0.2739 -0.2929
 5205TIP3    H137106   3.288   0.684  13.916 -0.7367 -0.3674  0.9198
 5205TIP3    H237107   3.211   0.625  13.800  0.7808 -0.7126  0.0716
 5206TIP3   OH237108   2.723   1.328  11.732  0.5031  0.6999 -0.1159
 5206TIP3    H137109   2.752   1.417  11.750  0.3792  0.5159  1.1006
 5206TIP3    H237110   2.634   1.323  11.769  0.1913  0.3008 -0.8818
 5207TIP3   OH237111   6.112   6.246   0.509  0.0875  0.0052  0.1054
 5207TIP3    H137112   6.074   6.187   0.444 -0.0911  0.8656 -0.5859
 5207TIP3    H237113   6.045   6.255   0.576 -0.5376  0.7174 -0.6085
 5208TIP3   OH237114   5.763   2.231   1.567 -0.0379 -0.4409  0.5746
 5208TIP3    H137115   5.780   2.159   1.506 -3.3196  0.1566 -1.3366
 5208TIP3    H237116   5.736   2.188   1.648  2.7353 -1.2516  1.1788
 5209TIP3   OH237117   6.537   1.446  16.678 -0.1769  0.0022  0.4381
 5209TIP3    H137118   6.523   1.356  16.707  0.5896 -0.2034  0.1908
 5209TIP3    H237119   6.511   1.499  16.753 -1.2241 -0.3879  0.3678
 5210TIP3   OH237120   6.347   1.067   2.540 -0.3303 -0.5192  0.0728
 5210TIP3    H137121   6.413   1.046   2.606 -0.1232 -2.1704 -0.6141
 5210TIP3    H237122   6.321   0.982   2.504 -0.6832  0.3167 -1.7476
 5211TIP3   OH237123   0.663   6.492   0.789 -0.6194 -0.4361 -0.0444
 5211TIP3    H137124   0.758   6.486   0.803 -0.5551  0.6608  0.0598
 5211TIP3    H237125   0.648   6.582   0.761 -1.9273  0.1430  2.3186
 5212TIP3   OH237126   4.283   1.346  13.979  0.4479  0.3734  0.2113
 5212TIP3    H137127   4.369   1.361  14.019  0.1834  0.9371  0.5867
 5212TIP3    H237128   4.288   1.392  13.895  0.5153  0.4104  0.2354
 5213TIP3   OH237129   6.247   5.007   3.928 -0.5489 -0.5487  0.0665
 5213TIP3    H137130   6.207   5.093   3.938  1.6123  0.6392 -0.8039
 5213TIP3    H237131   6.269   4.980   4.017 -2.5433 -0.9264  0.4904
 5214TIP3   OH237132   4.246   3.006   5.058  0.5270 -0.4503  0.2562
 5214TIP3    H137133   4.211   3.008   5.148  1.5812  2.7751  0.7260
 5214TIP3    H237134   4.341   3.008   5.069  0.6594  1.7563 -0.8552
 5215TIP3   OH237135   1.936   2.706  13.695  0.8893 -0.0235  0.0466
 5215TIP3    H137136   2.016   2.664  13.663 -0.3291 -0.2371 -3.0687
 5215TIP3    H237137   1.920   2.777  13.632 -0.7527  0.7535  1.2691
 5216TIP3   OH237138   5.935   1.912  11.198  0.8179  0.4456 -0.3598
 5216TIP3    H137139   5.849   1.935  11.165  0.1119 -0.5266  0.7364
 5216TIP3    H237140   5.992   1.917  11.121 -0.6926 -1.3569 -1.6854
 5217TIP3   OH237141   3.861   4.746   1.494 -0.5709  0.1153 -0.4020
 5217TIP3    H137142   3.926   4.762   1.562  0.8953 -2.3477 -1.1460
 5217TIP3    H237143   3.900   4.781   1.414 -1.0400  0.3586 -0.5347
 5218TIP3   OH237144   4.152   5.313  15.433 -0.1686 -0.4093  0.2925
 5218TIP3    H137145   4.146   5.242  15.497 -2.4279  1.6671  2.6218
 5218TIP3    H237146   4.084   5.294  15.369  1.1776 -1.7717 -0.8036
 5219TIP3   OH237147   4.594   5.041  11.097  0.6118  0.7276  0.5939
 5219TIP3    H137148   4.571   5.134  11.097  0.3179  0.6625  1.3569
 5219TIP3    H237149   4.689   5.040  11.091  0.5469  1.0345 -1.1070
 5220TIP3   OH237150   1.607   4.002   3.928 -0.8313  0.3141  0.0679
 5220TIP3    H137151   1.667   4.074   3.946 -1.5011  0.6930  0.8286
 5220TIP3    H237152   1.535   4.014   3.990 -0.2512 -1.8480  1.2470
 5221TIP3   OH237153   0.897   6.392  13.676 -0.1773  0.3294  0.0396
 5221TIP3    H137154   0.951   6.360  13.749  0.2682 -0.8907 -0.7890
 5221TIP3    H237155   0.820   6.429  13.719  0.0658 -0.3707  1.1444
 5222TIP3   OH237156   3.977   4.159  12.102 -0.5769  0.1909  0.1319
 5222TIP3    H137157   3.972   4.129  12.192 -0.6285  1.9758  0.7560
 5222TIP3    H237158   3.887   4.181  12.079 -0.4063  0.8014  0.0326
 5223TIP3   OH237159   1.924   3.569  14.076 -0.0186  0.0975  0.2995
 5223TIP3    H137160   1.896   3.638  14.016  0.5150  0.6044  0.6196
 5223TIP3    H237161   1.911   3.607  14.163  0.3140 -0.1916  0.4758
 5224TIP3   OH237162   4.281   0.287  11.207 -0.4426  0.0188  0.0319
 5224TIP3    H137163   4.353   0.311  11.148 -0.6149  1.1611  0.2729
 5224TIP3    H237164   4.292   0.345  11.283 -1.1837 -0.3203  0.4042
 5225TIP3   OH237165   4.716   5.915   4.677  0.0522  0.4070  0.4791
 5225TIP3    H137166   4.683   5.894   4.589 -0.6572 -4.6222  1.6648
 5225TIP3    H237167   4.641   5.955   4.721 -0.4904  0.3431 -0.3462
 5226TIP3   OH237168   1.678   1.271   4.028 -0.4425 -0.0884  0.9316
 5226TIP3    H137169   1.709   1.361   4.030 -0.0294 -0.1605 -0.7937
 5226TIP3    H237170   1.731   1.226   4.094 -0.1157  0.7517  1.2634
 5227TIP3   OH237171   6.438   2.666   4.106  0.4342 -0.3895 -0.2647
 5227TIP3    H137172   6.505   2.619   4.056 -0.3313 -1.5949 -0.1984
 5227TIP3    H237173   6.395   2.598   4.157 -1.1508  0.2808 -0.6626
 5228TIP3   OH237174   4.841   5.513  10.933  0.0422 -0.6046  0.0609
 5228TIP3    H137175   4.875   5.423  10.930  0.1833 -0.5408 -1.5397
 5228TIP3    H237176   4.791   5.522  10.852 -0.1837  0.6838  0.3210
 5229TIP3   OH237177   6.282   2.349   5.463  0.1184 -0.1194 -0.4495
 5229TIP3    H137178   6.262   2.256   5.478 -0.4744  0.0457 -0.1856
 5229TIP3    H237179   6.200   2.386   5.431  0.5000  0.2064 -1.0629
 5230TIP3   OH237180   1.676   1.209   1.297 -0.6697 -0.1248 -0.2159
 5230TIP3    H137181   1.701   1.208   1.390 -1.7411 -1.6109  0.0956
 5230TIP3    H237182   1.580   1.205   1.298 -0.6895 -0.2030 -1.3983
 5231TIP3   OH237183   1.738   3.265  10.864 -0.0233 -0.7994 -0.1868
 5231TIP3    H137184   1.826   3.240  10.893  0.3877  0.2898 -0.4209
 5231TIP3    H237185   1.753   3.342  10.808 -0.9252 -1.9172 -2.0576
 5232TIP3   OH237186   3.892   4.476  15.041  0.1612 -0.4553  1.1855
 5232TIP3    H137187   3.882   4.442  15.130 -0.5134  1.0234  1.7038
 5232TIP3    H237188   3.819   4.538  15.031  1.0990  0.5095  0.1475
 5233TIP3   OH237189   4.902   5.266   1.747 -0.2302  0.5460  0.1338
 5233TIP3    H137190   4.847   5.226   1.680 -0.6734  1.2792  0.0454
 5233TIP3    H237191   4.990   5.268   1.709 -0.1347 -0.5966  0.2596
 5234TIP3   OH237192   1.487   2.325  12.837 -0.2554 -0.3465  0.8041
 5234TIP3    H137193   1.433   2.246  12.832  1.2148 -1.4334  1.0818
 5234TIP3    H237194   1.486   2.360  12.748  1.4821 -2.4574 -0.1553
 5235TIP3   OH237195   1.539   6.104  15.939 -0.4571 -0.0853 -0.0036
 5235TIP3    H137196   1.575   6.021  15.972 -0.6106  0.1496  0.7792
 5235TIP3    H237197   1.448   6.084  15.919 -0.4963 -0.1047  0.1920
 5236TIP3   OH237198   2.710   4.314  13.407 -0.3428  0.1259  0.8007
 5236TIP3    H137199   2.664   4.394  13.384 -1.5209  0.2284  3.2780
 5236TIP3    H237200   2.679   4.250  13.342 -0.8778  1.1701 -0.0052
 5237TIP3   OH237201   0.813   3.593   4.016 -0.6103 -0.4288 -0.1376
 5237TIP3    H137202   0.812   3.608   4.111 -0.1234 -0.5411 -0.1102
 5237TIP3    H237203   0.772   3.507   4.005 -1.8913  0.1556 -0.1527
 5238TIP3   OH237204   0.448   5.155  14.616 -0.1950  1.3887 -0.3496
 5238TIP3    H137205   0.532   5.130  14.578 -1.3453 -1.1293 -1.4730
 5238TIP3    H237206   0.470   5.187  14.704  1.9123  0.8431 -0.6128
 5239TIP3   OH237207   5.523   4.544   0.158  0.2297 -0.0385  0.2229
 5239TIP3    H137208   5.513   4.555   0.064 -1.3973 -2.2865  0.0643
 5239TIP3    H237209   5.434   4.540   0.192  0.7510 -1.4432  1.5369
 5240TIP3   OH237210   0.138   2.143   3.815  0.0942  0.0932 -0.0631
 5240TIP3    H137211   0.208   2.202   3.842  1.2859 -1.7080  0.9734
 5240TIP3    H237212   0.057   2.192   3.831  1.0431  1.7193 -0.0335
 5241TIP3   OH237213   1.502   4.351   1.567  0.2776  0.1250 -0.5415
 5241TIP3    H137214   1.581   4.306   1.598  0.7896  0.4501 -1.3501
 5241TIP3    H237215   1.525   4.384   1.481 -1.0364 -0.5294 -1.1746
 5242TIP3   OH237216   2.685   1.886   4.819  0.1691 -0.0175 -0.0028
 5242TIP3    H137217   2.757   1.950   4.817  0.4244 -0.3141 -1.6638
 5242TIP3    H237218   2.640   1.904   4.901  1.4704  0.9230  0.5467
 5243TIP3   OH237219   5.413   3.696   0.349  0.6201  0.2974 -0.7000
 5243TIP3    H137220   5.428   3.748   0.271  1.8228  1.1346  0.0591
 5243TIP3    H237221   5.390   3.760   0.417  1.8892 -0.1532  0.1968
 5244TIP3   OH237222   5.309   5.960   2.613  0.1772  0.6946  1.1819
 5244TIP3    H137223   5.216   5.963   2.589  0.0793 -1.5089  1.1503
 5244TIP3    H237224   5.348   5.898   2.552  1.7230  1.6479  1.1426
 5245TIP3   OH237225   6.653   1.223  12.745 -0.1545  0.0914 -0.1475
 5245TIP3    H137226   6.724   1.207  12.808  0.9454 -0.4584 -1.4589
 5245TIP3    H237227   6.632   1.316  12.756  0.6766  0.2342  0.3549
 5246TIP3   OH237228   1.598   1.983   4.515  0.1521 -0.2099 -0.1771
 5246TIP3    H137229   1.529   1.925   4.547 -0.1090 -0.3165 -0.9001
 5246TIP3    H237230   1.679   1.934   4.529 -0.0194 -0.5306 -0.2916
 5247TIP3   OH237231   1.565   3.260   3.519 -0.2580 -0.3747 -0.0559
 5247TIP3    H137232   1.585   3.166   3.521 -0.1422 -0.3424  0.2718
 5247TIP3    H237233   1.469   3.264   3.520 -0.2835 -0.4504  2.0315
 5248TIP3   OH237234   3.179   5.340  14.532 -1.0331  0.1011  0.0595
 5248TIP3    H137235   3.109   5.406  14.536 -0.9192  0.2669 -0.5717
 5248TIP3    H237236   3.230   5.354  14.612 -0.3568  1.5209 -0.5874
 5249TIP3   OH237237   5.540   5.902   5.710 -0.4244 -0.4081  0.3534
 5249TIP3    H137238   5.566   5.863   5.794 -1.3455 -3.5548 -0.7200
 5249TIP3    H237239   5.611   5.965   5.691  0.8966 -1.1429  2.4580
 5250TIP3   OH237240   4.102   1.076   4.551 -0.5384  0.4492 -0.1650
 5250TIP3    H137241   4.128   1.076   4.643  3.2505 -4.4818 -0.7902
 5250TIP3    H237242   4.008   1.058   4.553 -0.5779  0.5620  2.7266
 5251TIP3   OH237243   1.976   6.491  12.895 -0.5045 -0.2744  0.4034
 5251TIP3    H137244   1.951   6.488  12.802 -0.8381  0.6652  0.4497
 5251TIP3    H237245   2.039   6.421  12.905  0.2679  0.2179 -0.7621
 5252TIP3   OH237246   0.275   4.665  10.969  0.0189  0.8084 -0.1371
 5252TIP3    H137247   0.227   4.583  10.959  1.9731 -0.5109  0.7456
 5252TIP3    H237248   0.328   4.671  10.890 -0.8488  1.7901 -0.6772
 5253TIP3   OH237249   2.140   5.420  16.453 -0.3283  0.2050 -0.1078
 5253TIP3    H137250   2.102   5.333  16.470 -0.2210 -0.1864 -1.6866
 5253TIP3    H237251   2.068   5.481  16.467 -1.2088 -0.4066 -1.6684
 5254TIP3   OH237252   5.159   0.706  12.021  0.3996  0.1432 -0.1554
 5254TIP3    H137253   5.137   0.782  11.967  0.9998 -0.8641 -1.9082
 5254TIP3    H237254   5.138   0.733  12.111 -1.5835  1.5441 -0.9766
 5255TIP3   OH237255   5.204   6.764  14.822 -0.0337 -0.2094 -0.2968
 5255TIP3    H137256   5.274   6.710  14.785 -0.7160 -0.1638 -1.7207
 5255TIP3    H237257   5.127   6.707  14.820 -0.2585  0.0637  0.3475
 5256TIP3   OH237258   2.788   3.496   3.204 -0.4906  0.1096  0.3781
 5256TIP3    H137259   2.883   3.492   3.200 -0.3244  1.8817  1.6101
 5256TIP3    H237260   2.760   3.478   3.114  0.9940 -0.4650  0.0056
 5257TIP3   OH237261   1.103   4.091  14.889 -0.0288  0.3551 -0.1322
 5257TIP3    H137262   1.100   4.067  14.797  1.0349 -2.7494  0.5221
 5257TIP3    H237263   1.018   4.065  14.924  0.1675 -0.0324  0.0659
 5258TIP3   OH237264   2.344   4.999   1.763 -0.1348  0.3236  0.1352
 5258TIP3    H137265   2.297   5.001   1.846  2.7114  1.5322  1.8601
 5258TIP3    H237266   2.310   4.921   1.718 -2.8906  0.5180  1.6480
 5259TIP3   OH237267   0.239   2.845   3.694  0.2972  0.6842 -0.0125
 5259TIP3    H137268   0.298   2.811   3.626 -0.0611 -1.5740  0.7486
 5259TIP3    H237269   0.280   2.928   3.721  3.0796 -0.7036  0.3717
 5260TIP3   OH237270   2.237   5.615   4.590  0.3104  0.2910  0.3584
 5260TIP3    H137271   2.236   5.710   4.586  1.0166  0.3059  0.4679
 5260TIP3    H237272   2.205   5.594   4.678 -1.3439  0.3643 -0.1778
 5261TIP3   OH237273   2.070   3.195   2.465  0.1654 -0.4581  0.4386
 5261TIP3    H137274   2.034   3.111   2.495 -0.3104 -0.6707 -0.6825
 5261TIP3    H237275   2.005   3.229   2.403 -0.7523  1.8530  2.4944
 5262TIP3   OH237276   3.314   1.048  15.541  0.2642 -0.1047 -0.1819
 5262TIP3    H137277   3.338   1.006  15.623 -0.3260 -0.0284  0.0397
 5262TIP3    H237278   3.393   1.092  15.512  0.0803  1.2219  1.1787
 5263TIP3   OH237279   6.229   5.371   4.706  0.0858  0.1450  0.1984
 5263TIP3    H137280   6.220   5.466   4.719 -0.3038  0.3642 -1.4479
 5263TIP3    H237281   6.196   5.333   4.787 -0.9425  1.4007  0.4083
 5264TIP3   OH237282   6.119   4.864  12.438  0.8352 -0.4248  0.2704
 5264TIP3    H137283   6.117   4.794  12.372  0.3620  0.3193 -0.5284
 5264TIP3    H237284   6.146   4.942  12.389  0.8761  0.0548  1.0468
 5265TIP3   OH237285   4.687   5.724  14.000 -0.2439 -0.2877 -0.6311
 5265TIP3    H137286   4.675   5.629  14.001  1.2306 -0.4993  0.4046
 5265TIP3    H237287   4.629   5.756  14.069 -0.0220 -0.5459 -0.3232
 5266TIP3   OH237288   0.550   1.908   5.918  0.2047 -0.2623 -0.4335
 5266TIP3    H137289   0.539   1.932   6.010  0.8368  2.4149 -0.9864
 5266TIP3    H237290   0.477   1.849   5.900 -1.2633  0.9355  1.2209
 5267TIP3   OH237291   3.164   5.604  16.940 -0.2816  0.3468  0.0391
 5267TIP3    H137292   3.071   5.614  16.959 -0.2860  0.6531 -0.1342
 5267TIP3    H237293   3.167   5.586  16.846 -0.2583 -1.1114  0.2976
 5268TIP3   OH237294   1.991   3.459  13.136  0.8257 -0.2574  0.1301
 5268TIP3    H137295   2.056   3.467  13.066  0.4238 -0.4111 -0.2625
 5268TIP3    H237296   1.908   3.480  13.094  0.2440 -2.6766 -0.0317
 5269TIP3   OH237297   4.157   2.789  14.806 -0.2275 -0.2656  0.2884
 5269TIP3    H137298   4.180   2.696  14.814  0.9832 -0.0202 -0.2249
 5269TIP3    H237299   4.241   2.834  14.795 -0.8112  0.8827  0.3990
 5270TIP3   OH237300   3.042   0.148  16.058  0.1379  0.2088 -0.1864
 5270TIP3    H137301   3.016   0.208  15.987  0.3967  0.1878 -0.3007
 5270TIP3    H237302   2.960   0.109  16.087 -0.2147  1.6274  0.8151
 5271TIP3   OH237303   0.570   4.615  15.279 -0.0847  0.2106 -0.0008
 5271TIP3    H137304   0.660   4.602  15.310  0.3919 -1.4171 -1.9198
 5271TIP3    H237305   0.547   4.533  15.237 -3.1153 -0.0222  1.8141
 5272TIP3   OH237306   3.415   2.197  13.114 -0.4986 -0.3844  0.5246
 5272TIP3    H137307   3.402   2.241  13.198  0.0794 -1.4521  1.1914
 5272TIP3    H237308   3.510   2.191  13.104 -0.5651 -1.2314  0.3224
 5273TIP3   OH237309   1.573   5.071   3.662  0.2097 -0.1995  0.1924
 5273TIP3    H137310   1.555   5.015   3.587 -0.2259 -0.4203  0.4636
 5273TIP3    H237311   1.540   5.157   3.635  1.4460  0.0876 -0.4708
 5274TIP3   OH237312   2.103   3.809   6.546  0.5750 -0.2523 -0.4402
 5274TIP3    H137313   2.129   3.811   6.454 -4.1636  0.7363 -2.0513
 5274TIP3    H237314   2.078   3.899   6.566  0.1235 -0.7328  1.3823
 5275TIP3   OH237315   0.775   6.677   2.680  0.1041  0.2631 -0.4662
 5275TIP3    H137316   0.845   6.614   2.696  1.5126  1.9803  0.5410
 5275TIP3    H237317   0.708   6.628   2.633  1.8939 -1.5176 -1.2827
 5276TIP3   OH237318   0.593   6.548   2.464  0.0296  0.7987 -0.0361
 5276TIP3    H137319   0.548   6.471   2.499  0.4551  0.8848  0.7298
 5276TIP3    H237320   0.622   6.521   2.377  0.0953  0.1173  0.1897
 5277TIP3   OH237321   1.337   4.394  15.457 -0.1292 -0.4414  0.0951
 5277TIP3    H137322   1.315   4.351  15.374 -1.8014  2.9757 -1.4802
 5277TIP3    H237323   1.275   4.359  15.520 -0.3500 -1.4545 -0.6609
 5278TIP3   OH237324   0.100   5.293   1.028 -0.8613  0.0983 -0.2695
 5278TIP3    H137325   0.050   5.253   1.099 -1.2349  0.6876 -0.1862
 5278TIP3    H237326   0.080   5.240   0.951 -0.6763 -0.3774  0.0071
 5279TIP3   OH237327   1.820   4.825   2.011 -0.2715  0.2251  0.0656
 5279TIP3    H137328   1.889   4.861   1.955  1.2018  0.4031  1.8848
 5279TIP3    H237329   1.738   4.858   1.974  0.6530  0.5569 -1.7710
 5280TIP3   OH237330   0.300   3.746  13.476 -0.2164 -0.1208 -0.3669
 5280TIP3    H137331   0.357   3.771  13.549  0.5137  1.1986 -1.3311
 5280TIP3    H237332   0.216   3.725  13.516  0.8145 -1.7392  1.0569
 5281TIP3   OH237333   1.203   5.609  13.878 -0.7875  0.5164 -0.0136
 5281TIP3    H137334   1.125   5.651  13.841 -1.2914 -1.2901 -1.1940
 5281TIP3    H237335   1.170   5.562  13.955 -0.0878  2.7427  1.7638
 5282TIP3   OH237336   2.115   0.817  12.658  0.5127  0.1447 -0.0435
 5282TIP3    H137337   2.178   0.746  12.646 -1.4963 -1.5679 -1.3252
 5282TIP3    H237338   2.029   0.773  12.657 -0.7318  2.1930  2.7605
 5283TIP3   OH237339   4.000   0.537  10.275 -0.0348  0.1372  0.2700
 5283TIP3    H137340   3.958   0.455  10.300 -0.9985 -0.5150 -2.9658
 5283TIP3    H237341   3.975   0.599  10.344 -2.2055 -1.4512  1.0304
 5284TIP3   OH237342   4.261   2.486   1.538  0.7205 -0.6021  0.5069
 5284TIP3    H137343   4.287   2.397   1.511  1.8692 -1.1084  2.9627
 5284TIP3    H237344   4.339   2.520   1.582 -0.8651  0.2230  2.8053
 5285TIP3   OH237345   5.739   6.092  13.752  0.0957  0.3113  0.6315
 5285TIP3    H137346   5.763   6.183  13.732  0.5775  0.0462 -0.0509
 5285TIP3    H237347   5.784   6.041  13.684  3.2011 -0.8065  3.2508
 5286TIP3   OH237348   5.875   1.797   2.520 -0.0392  0.0646  0.0587
 5286TIP3    H137349   5.807   1.771   2.583 -0.7115 -0.6024 -0.9095
 5286TIP3    H237350   5.837   1.778   2.435  0.9487  0.7369 -0.5520
 5287TIP3   OH237351   0.748   3.652  13.733 -0.1225  0.0636  0.6821
 5287TIP3    H137352   0.752   3.742  13.763 -0.8298 -0.1053  1.2877
 5287TIP3    H237353   0.827   3.642  13.678  0.3296  0.8322  1.1750
 5288TIP3   OH237354   5.166   2.019   1.882 -0.4441  0.5181 -0.3231
 5288TIP3    H137355   5.259   2.038   1.887 -0.3965  0.1751  0.1886
 5288TIP3    H237356   5.161   1.924   1.885 -0.7059  0.4165 -2.2904
 5289TIP3   OH237357   2.345   3.252  11.830 -0.0399  0.1690  0.5282
 5289TIP3    H137358   2.344   3.201  11.750 -1.5159  1.1240 -0.1167
 5289TIP3    H237359   2.422   3.222  11.878  0.2300 -1.2107 -0.7240
 5290TIP3   OH237360   4.706   1.218  14.108  0.5074 -0.3783  0.7159
 5290TIP3    H137361   4.647   1.292  14.123  0.5965 -0.1232 -0.1334
 5290TIP3    H237362   4.660   1.142  14.145 -0.0870 -0.0799  0.5948
 5291TIP3   OH237363   5.418   4.774  11.842  0.0291 -0.7631 -0.1070
 5291TIP3    H137364   5.373   4.722  11.775  1.5762 -2.3609  0.0197
 5291TIP3    H237365   5.394   4.732  11.925 -0.9294  0.4902  0.2962
 5292TIP3   OH237366   6.584   0.558   2.632  0.4974 -0.9498 -0.1368
 5292TIP3    H137367   6.560   0.641   2.672  1.2116 -0.8811  0.1653
 5292TIP3    H237368   6.505   0.504   2.640 -0.3621  0.0606 -1.3751
 5293TIP3   OH237369   5.324   0.329   0.900 -0.3543  0.0642  0.8500
 5293TIP3    H137370   5.288   0.417   0.897  0.4787  0.5077  2.6284
 5293TIP3    H237371   5.343   0.308   0.809 -1.1722  1.4537  0.3291
 5294TIP3   OH237372   1.480   6.149   5.452 -0.1228 -0.2968 -0.3709
 5294TIP3    H137373   1.482   6.075   5.512 -2.2359  1.1933  1.7297
 5294TIP3    H237374   1.436   6.115   5.374 -0.8001 -1.3492  0.4378
 5295TIP3   OH237375   1.038   2.397  12.220 -0.6513  0.3989 -0.5362
 5295TIP3    H137376   1.001   2.447  12.292  0.2447 -1.3498  1.2541
 5295TIP3    H237377   0.974   2.404  12.150 -2.8078  0.1121  1.3112
 5296TIP3   OH237378   5.754   0.240  13.264 -0.0818  0.3590  0.4549
 5296TIP3    H137379   5.841   0.263  13.230 -0.6269  1.3143 -0.3310
 5296TIP3    H237380   5.709   0.324  13.273 -1.9823 -0.2880 -2.0568
 5297TIP3   OH237381   1.540   5.169  12.584  0.1950  0.0844 -0.1939
 5297TIP3    H137382   1.584   5.089  12.557 -0.1255 -0.0915 -0.1915
 5297TIP3    H237383   1.521   5.215  12.502  0.9655  0.4736 -0.1649
 5298TIP3   OH237384   0.873   2.536   2.700 -0.1649  0.0384  0.5619
 5298TIP3    H137385   0.788   2.579   2.715 -0.5416 -0.6904  0.5297
 5298TIP3    H237386   0.905   2.515   2.787 -0.0188  0.2907  0.5725
 5299TIP3   OH237387   5.548   3.581   2.311  0.8354 -0.5316  0.3682
 5299TIP3    H137388   5.573   3.524   2.239 -0.7007 -0.9120  0.0904
 5299TIP3    H237389   5.598   3.548   2.386 -1.2425 -3.4775  0.6430
 5300TIP3   OH237390   4.805   4.968   4.951  0.0456  0.7343 -0.3110
 5300TIP3    H137391   4.879   5.024   4.973  0.3667  0.0898  0.2462
 5300TIP3    H237392   4.765   4.945   5.035  0.2355 -0.3012 -0.4876
 5301TIP3   OH237393   3.105   3.976  14.277  0.1918 -0.6505  1.0170
 5301TIP3    H137394   3.153   3.898  14.306 -0.7353 -1.4220  0.5401
 5301TIP3    H237395   3.105   3.969  14.181  0.9614  0.4864  0.9060
 5302TIP3   OH237396   0.631   5.285  12.797  0.5118  0.0195 -0.3347
 5302TIP3    H137397   0.666   5.198  12.778  0.2226 -0.5392  1.5093
 5302TIP3    H237398   0.692   5.322  12.861 -1.2803 -0.3214  1.6801
 5303TIP3   OH237399   1.560   4.709  11.462 -0.2319  0.1603  0.4779
 5303TIP3    H137400   1.606   4.686  11.543  1.5028  0.2746 -0.4113
 5303TIP3    H237401   1.594   4.647  11.398 -2.0214 -0.3004 -0.0586
 5304TIP3   OH237402   1.365   6.347   0.557 -0.4057  0.7460 -0.0235
 5304TIP3    H137403   1.456   6.360   0.585  0.2195 -1.4759 -0.7890
 5304TIP3    H237404   1.312   6.383   0.628  1.0918  0.1694  1.4492
 5305TIP3   OH237405   6.162   4.984  11.423  0.0874 -0.1403  0.2976
 5305TIP3    H137406   6.136   5.075  11.413 -0.2867 -0.3343 -0.4886
 5305TIP3    H237407   6.209   4.963  11.342  0.8594 -0.4180  0.8029
 5306TIP3   OH237408   5.323   6.187  12.810  0.0685 -0.1243  0.2416
 5306TIP3    H137409   5.246   6.242  12.821  0.0018 -0.3287  0.8277
 5306TIP3    H237410   5.365   6.186  12.897  0.6810 -0.0837 -0.0472
 5307TIP3   OH237411   2.674   0.074   5.310 -0.1534 -0.3799 -0.3695
 5307TIP3    H137412   2.702   0.084   5.401 -2.0132  0.5137  0.1720
 5307TIP3    H237413   2.637  -0.015   5.307  2.1759 -1.3914 -0.9734
 5308TIP3   OH237414   5.936   0.727  14.898 -0.8830  0.1460 -0.2993
 5308TIP3    H137415   5.847   0.693  14.892 -0.5916 -0.8802  0.8818
 5308TIP3    H237416   5.989   0.653  14.928  0.4530  0.6268 -1.3508
 5309TIP3   OH237417   0.050   5.567  16.281  0.4822  0.0527 -0.0586
 5309TIP3    H137418  -0.041   5.547  16.259  0.7542  1.2977 -2.6288
 5309TIP3    H237419   0.095   5.483  16.277 -0.3323 -0.3948  0.0266
 5310TIP3   OH237420   0.097   1.736   4.873 -0.1254  0.0385 -0.1318
 5310TIP3    H137421   0.037   1.671   4.837  0.6351 -0.2646 -0.8853
 5310TIP3    H237422   0.094   1.722   4.968  0.0499 -1.1175 -0.2844
 5311TIP3   OH237423   2.569   3.211   1.304  0.1934 -0.5495  0.0008
 5311TIP3    H137424   2.543   3.273   1.235 -0.1042 -1.3829 -0.6536
 5311TIP3    H237425   2.488   3.197   1.354 -0.1432 -1.5641 -0.7864
 5312TIP3   OH237426   5.592   6.067  14.476 -0.0244  0.5915  0.1731
 5312TIP3    H137427   5.568   6.125  14.403  0.6834  1.8477  0.9008
 5312TIP3    H237428   5.685   6.085  14.491  0.2937 -0.9629  0.2547
 5313TIP3   OH237429   2.229   2.343  17.044 -0.3116 -0.0090  0.4619
 5313TIP3    H137430   2.230   2.345  17.139 -1.5850 -0.2954  0.4903
 5313TIP3    H237431   2.320   2.324  17.019  0.1804  0.7842  1.5862
 5314TIP3   OH237432   6.069   1.623   3.278 -0.3546 -0.7158  0.1480
 5314TIP3    H137433   6.031   1.535   3.269 -0.3279 -0.8702  1.3334
 5314TIP3    H237434   6.131   1.630   3.205 -1.0119 -1.3333 -0.4826
 5315TIP3   OH237435   2.548   2.649   4.067  0.0307  0.5151 -0.0806
 5315TIP3    H137436   2.615   2.605   4.015 -0.4772  0.1306 -0.4286
 5315TIP3    H237437   2.594   2.721   4.110  0.9195 -0.4460  0.6316
 5316TIP3   OH237438   6.728   6.135  12.764 -0.3342  0.4462 -0.8675
 5316TIP3    H137439   6.637   6.161  12.754 -0.0938  1.2022 -1.0891
 5316TIP3    H237440   6.723   6.043  12.791 -1.1424  0.3489 -1.3268
 5317TIP3   OH237441   3.561   5.779  16.157  0.2932 -0.0037  0.0026
 5317TIP3    H137442   3.599   5.854  16.112 -0.3593  0.5564  0.3726
 5317TIP3    H237443   3.576   5.795  16.249  1.0817 -0.8500  0.0310
 5318TIP3   OH237444   2.089   5.834  15.517  0.1925  0.4345  0.8187
 5318TIP3    H137445   2.129   5.772  15.455  0.9433  0.3455  1.3824
 5318TIP3    H237446   2.114   5.920  15.484  0.4139  0.3932  0.8783
 5319TIP3   OH237447   6.465   2.994   2.326 -0.0962  0.7702  0.0452
 5319TIP3    H137448   6.381   2.951   2.344  0.7588 -0.6988  0.6330
 5319TIP3    H237449   6.529   2.923   2.324  1.0356  1.7794 -1.1950
 5320TIP3   OH237450   6.410   4.893   2.417 -0.2219  1.2170 -0.4728
 5320TIP3    H137451   6.388   4.976   2.374  0.3631  2.0607  0.7709
 5320TIP3    H237452   6.325   4.851   2.432 -0.5354  1.6392 -1.0418
 5321TIP3   OH237453   5.053   3.480   5.280 -0.2422 -0.3373  0.4320
 5321TIP3    H137454   5.051   3.471   5.184  1.9521 -1.1189  0.4098
 5321TIP3    H237455   5.094   3.565   5.295 -1.0422  0.0090  0.6934
 5322TIP3   OH237456   1.010   4.566   5.719  0.6559 -0.1525  0.2406
 5322TIP3    H137457   1.101   4.591   5.732  0.3812  0.4204  1.1152
 5322TIP3    H237458   0.965   4.595   5.798 -0.6072  1.0626 -0.8806
 5323TIP3   OH237459   1.235   6.094  14.271  0.4489  0.1921 -0.0428
 5323TIP3    H137460   1.303   6.151  14.306 -0.4139  1.2993 -0.1154
 5323TIP3    H237461   1.198   6.050  14.348 -0.0541  1.0660  0.2282
 5324TIP3   OH237462   0.001   4.076   2.238  0.6846 -0.4613 -0.1140
 5324TIP3    H137463   0.067   4.011   2.212 -0.9416 -2.0276 -0.5550
 5324TIP3    H237464  -0.047   4.033   2.309  1.2519  1.3825  1.4692
 5325TIP3   OH237465   5.353   3.387  13.969  0.4691 -0.4387 -0.5113
 5325TIP3    H137466   5.298   3.312  13.950 -1.5543 -0.1770  3.3874
 5325TIP3    H237467   5.425   3.351  14.022  0.9043  0.0193 -0.7835
 5326TIP3   OH237468   0.488   1.606   4.401  0.3665 -0.0665 -0.2301
 5326TIP3    H137469   0.528   1.674   4.455  1.3894 -0.8879  0.0765
 5326TIP3    H237470   0.495   1.639   4.312 -0.0753  0.6779  0.0031
 5327TIP3   OH237471   0.378   3.834  16.885 -0.1468 -0.0601  0.8292
 5327TIP3    H137472   0.460   3.878  16.903 -0.8535  1.8341 -0.3073
 5327TIP3    H237473   0.316   3.870  16.948 -0.4574 -0.3827  0.7164
 5328TIP3   OH237474   5.399   1.265   3.870  0.0524  0.4965  0.5588
 5328TIP3    H137475   5.455   1.189   3.887  0.8680  0.7798 -0.6970
 5328TIP3    H237476   5.452   1.321   3.814 -1.1941  1.1697  0.0147
 5329TIP3   OH237477   2.376   5.848   3.640  0.3909  0.2695  0.7070
 5329TIP3    H137478   2.307   5.913   3.645 -2.6540 -2.6854  0.7406
 5329TIP3    H237479   2.407   5.853   3.549  1.3616  2.6898  1.1112
 5330TIP3   OH237480   2.373   1.306   1.784  0.7418 -0.5275 -0.1195
 5330TIP3    H137481   2.413   1.392   1.792  1.7088 -0.5756 -3.0594
 5330TIP3    H237482   2.437   1.255   1.734 -1.5093 -1.6376 -2.0856
 5331TIP3   OH237483   2.247   4.852  15.260 -0.2649 -0.2652 -0.1475
 5331TIP3    H137484   2.319   4.894  15.213 -1.4542  0.5848 -1.2984
 5331TIP3    H237485   2.270   4.759  15.262  0.5013 -0.1148 -1.1615
 5332TIP3   OH237486   2.547   1.647  11.307  0.3039  0.0683 -0.0811
 5332TIP3    H137487   2.489   1.603  11.368  1.1447  1.4953  1.8459
 5332TIP3    H237488   2.541   1.595  11.227 -1.8344 -1.1318  0.7600
 5333TIP3   OH237489   2.817   1.760   3.541  0.4228  0.2087  0.1700
 5333TIP3    H137490   2.811   1.855   3.531  0.0901  0.2586  0.7728
 5333TIP3    H237491   2.836   1.727   3.453  0.1409  0.8051 -0.1156
 5334TIP3   OH237492   1.737   2.816  16.636 -0.3422 -0.5697 -0.7696
 5334TIP3    H137493   1.648   2.819  16.673 -0.3852  2.0293 -0.9640
 5334TIP3    H237494   1.794   2.805  16.712 -0.5533  2.9484  0.0591
 5335TIP3   OH237495   5.219   3.555  16.519 -0.5124  0.1781  0.2505
 5335TIP3    H137496   5.209   3.541  16.424  0.4422  1.0862 -0.0088
 5335TIP3    H237497   5.157   3.495  16.559 -2.5740  1.3408 -1.0176
 5336TIP3   OH237498   0.038   6.196  16.749 -0.7857 -0.6640  0.4749
 5336TIP3    H137499   0.107   6.195  16.815 -0.2858 -1.2822 -0.0439
 5336TIP3    H237500  -0.040   6.164  16.796 -0.4750 -0.9575  0.7979
 5337TIP3   OH237501   1.311   4.993   0.785  0.2896  0.5863  0.0840
 5337TIP3    H137502   1.223   5.029   0.777  0.2310  0.3313 -0.4324
 5337TIP3    H237503   1.358   5.056   0.839 -0.1919  0.7547  0.3090
 5338TIP3   OH237504   1.733   2.517   4.862  0.4848  0.3369  0.0681
 5338TIP3    H137505   1.766   2.604   4.884  0.7679  0.1998  0.1902
 5338TIP3    H237506   1.637   2.526   4.864  0.4747  0.1589  2.0392
 5339TIP3   OH237507   6.510   3.774  14.012  0.6936  1.0143 -0.6498
 5339TIP3    H137508   6.496   3.738  14.099  2.7729 -0.2398 -0.7504
 5339TIP3    H237509   6.494   3.868  14.021  0.5432  0.8517  0.9961
 5340TIP3   OH237510   0.613   2.044  11.903  0.3998  0.2426  0.0173
 5340TIP3    H137511   0.524   2.008  11.896 -0.4574  2.2176  0.0681
 5340TIP3    H237512   0.668   1.968  11.919 -1.6682 -0.7588  3.3315
 5341TIP3   OH237513   5.046   0.602   1.080  0.6772 -0.0794 -0.5342
 5341TIP3    H137514   5.092   0.533   1.128  0.3097 -0.3468 -0.5579
 5341TIP3    H237515   5.091   0.683   1.104  1.0490 -0.3165 -0.4268
 5342TIP3   OH237516   4.893   0.246  12.868  0.4547  0.3399  0.5643
 5342TIP3    H137517   4.928   0.243  12.779  1.2007  2.6707  0.7077
 5342TIP3    H237518   4.950   0.188  12.919  1.2104  0.4647 -0.1264
 5343TIP3   OH237519   4.422   4.531  11.820 -0.2888 -0.2798 -0.1564
 5343TIP3    H137520   4.455   4.498  11.904  0.0212 -3.0833 -1.2987
 5343TIP3    H237521   4.361   4.465  11.790  0.5147  0.0408 -2.7109
 5344TIP3   OH237522   1.279   5.609   4.484  0.2553  0.2307 -0.2374
 5344TIP3    H137523   1.202   5.666   4.489 -0.3140 -0.5853  0.5560
 5344TIP3    H237524   1.348   5.666   4.449 -0.3851  1.3178  0.1988
 5345TIP3   OH237525   1.234   1.266  13.032  0.2374 -0.0870 -0.6764
 5345TIP3    H137526   1.246   1.360  13.018 -0.3099  0.1726  0.4657
 5345TIP3    H237527   1.240   1.228  12.945  0.0036  1.0581 -1.2152
 5346TIP3   OH237528   0.833   1.201   4.430  0.8118  0.4228 -0.4011
 5346TIP3    H137529   0.835   1.241   4.517 -1.7603  0.2725 -0.1985
 5346TIP3    H237530   0.753   1.148   4.430  1.9214 -1.3710 -2.1066
 5347TIP3   OH237531   2.639   6.383  16.725 -0.0031 -0.2437  0.2605
 5347TIP3    H137532   2.687   6.361  16.645  0.4020  3.5714 -0.7450
 5347TIP3    H237533   2.548   6.363  16.705  0.4759 -2.9163  0.3697
 5348TIP3   OH237534   5.146   2.125  13.535 -0.2411 -0.1654  0.1319
 5348TIP3    H137535   5.160   2.050  13.592  2.2054 -0.1224 -0.3148
 5348TIP3    H237536   5.080   2.096  13.472 -0.6788 -1.2705  1.0664
 5349TIP3   OH237537   5.589   3.990  14.639 -0.2055  0.4934  0.3447
 5349TIP3    H137538   5.568   4.076  14.606 -0.3280  0.3832  0.1383
 5349TIP3    H237539   5.537   3.981  14.719 -2.1828 -0.4030 -0.9857
 5350TIP3   OH237540   2.100   6.613   1.781  0.1820 -0.1283  0.6984
 5350TIP3    H137541   2.142   6.538   1.822 -0.7525 -0.0786  1.8089
 5350TIP3    H237542   2.037   6.643   1.846  0.3030  1.4159  0.1444
 5351TIP3   OH237543   2.189   6.170  14.010  0.2097  0.0986  0.0321
 5351TIP3    H137544   2.159   6.151  13.921 -0.2784  0.9317  0.0067
 5351TIP3    H237545   2.203   6.084  14.049  0.3041 -0.2811 -0.8016
 5352TIP3   OH237546   1.921   3.747   5.459  0.0970  0.7115  0.0912
 5352TIP3    H137547   1.983   3.694   5.509  1.1700  1.1883 -0.6830
 5352TIP3    H237548   1.868   3.684   5.411  0.6254  0.3095  0.0216
 5353TIP3   OH237549   2.210   6.118  11.920 -0.1219 -0.3281  0.4828
 5353TIP3    H137550   2.145   6.051  11.899  1.4195 -0.9133 -3.2041
 5353TIP3    H237551   2.166   6.200  11.900 -0.6399 -0.4865  0.9154
 5354TIP3   OH237552   4.450   6.392  13.259  0.8492  0.7485  0.9450
 5354TIP3    H137553   4.493   6.443  13.190  0.5475 -0.9054 -0.5290
 5354TIP3    H237554   4.517   6.383  13.327  1.3488  1.9206  0.6393
 5355TIP3   OH237555   2.329   1.821  12.922  0.0565 -0.5746 -0.0463
 5355TIP3    H137556   2.348   1.793  13.012 -0.5230  1.1297  0.6511
 5355TIP3    H237557   2.331   1.917  12.926 -0.7970 -0.4540 -1.6704
 5356TIP3   OH237558   0.578   1.255  14.846 -0.3146 -0.5228  0.1298
 5356TIP3    H137559   0.534   1.176  14.878  0.3290 -0.0897  2.2430
 5356TIP3    H237560   0.671   1.230  14.841 -0.3331 -0.4185 -0.9802
 5357TIP3   OH237561   1.481   1.510  17.108  0.0580 -0.5515 -0.1581
 5357TIP3    H137562   1.525   1.589  17.139  1.0499 -0.5808 -1.4065
 5357TIP3    H237563   1.441   1.536  17.025 -0.2035 -1.1735 -0.2330
 5358TIP3   OH237564   1.934   4.127   1.437 -0.0183  0.3875 -0.0219
 5358TIP3    H137565   1.944   4.172   1.354  0.3333 -1.9001 -1.3125
 5358TIP3    H237566   2.019   4.137   1.480  0.0767  0.8719 -0.3185
 5359TIP3   OH237567   5.095   6.855   2.498 -0.6492 -0.1568  0.1754
 5359TIP3    H137568   5.185   6.887   2.496 -1.4476  2.3031  0.5239
 5359TIP3    H237569   5.090   6.803   2.579  0.2447  0.3186  0.5492
 5360TIP3   OH237570   0.200   4.572   0.459 -0.7127  0.4273  0.0898
 5360TIP3    H137571   0.193   4.589   0.553  0.0315 -0.4408  0.3184
 5360TIP3    H237572   0.115   4.537   0.434 -0.3843 -0.9917  0.8258
 5361TIP3   OH237573   3.014   6.237   1.191  0.1050 -0.5959 -0.2724
 5361TIP3    H137574   3.108   6.249   1.178 -0.0052  2.1977  0.7392
 5361TIP3    H237575   2.974   6.278   1.114 -0.2887  0.2151  0.3507
 5362TIP3   OH237576   1.867   6.591  15.100  0.2733  0.0417 -0.0677
 5362TIP3    H137577   1.777   6.579  15.069 -0.4623 -0.4188  2.1134
 5362TIP3    H237578   1.916   6.518  15.062 -0.8445 -1.1781  0.7687
 5363TIP3   OH237579   3.524   5.362  14.692 -0.2810  0.2245  0.0151
 5363TIP3    H137580   3.519   5.292  14.627  1.0446 -0.7476  0.9007
 5363TIP3    H237581   3.441   5.409  14.683 -0.8821 -0.9902 -1.1323
 5364TIP3   OH237582   0.070   4.175   5.868  0.2762 -0.0205  0.4210
 5364TIP3    H137583   0.064   4.228   5.948 -1.2768 -0.4977  0.6557
 5364TIP3    H237584   0.164   4.158   5.858  0.8712  2.8015  0.2735
 5365TIP3   OH237585   0.192   0.128  12.836 -0.1596  0.3098 -0.1672
 5365TIP3    H137586   0.258   0.188  12.800  0.8152  0.1951  1.3170
 5365TIP3    H237587   0.208   0.045  12.790 -0.1278  0.6296 -0.7425
 5366TIP3   OH237588   0.220   6.020   6.008  0.4327  0.0849  0.6955
 5366TIP3    H137589   0.258   6.056   6.088  2.8347 -2.5364  0.9338
 5366TIP3    H237590   0.273   5.942   5.990  0.1404  0.6045 -3.5491
 5367TIP3   OH237591   1.862   6.184  11.439  0.3432 -0.2888  0.1384
 5367TIP3    H137592   1.775   6.214  11.413 -0.6180 -1.3128  1.9745
 5367TIP3    H237593   1.893   6.251  11.499  0.7897  0.0091 -0.4146
 5368TIP3   OH237594   2.443   4.151   0.201 -0.4218  0.0761  0.5861
 5368TIP3    H137595   2.522   4.114   0.162  0.1903  1.0191  0.9057
 5368TIP3    H237596   2.457   4.246   0.200 -0.9102  0.1889  1.9637
 5369TIP3   OH237597   4.544   0.734  16.834 -0.2057  0.7614  0.6693
 5369TIP3    H137598   4.622   0.784  16.859  0.3731  0.9869 -1.3777
 5369TIP3    H237599   4.486   0.798  16.793 -0.0470  0.0473 -0.7355
 5370TIP3   OH237600   3.797   4.044   4.651 -0.3444  0.8618 -0.1094
 5370TIP3    H137601   3.868   4.032   4.588  0.2365 -0.6587  0.7872
 5370TIP3    H237602   3.824   3.994   4.728 -0.4546  3.6133  1.8855
 5371TIP3   OH237603   6.211   0.400  16.805 -0.2699 -0.4418  0.3994
 5371TIP3    H137604   6.240   0.423  16.893  1.3918 -0.7427 -0.0462
 5371TIP3    H237605   6.269   0.328  16.778 -1.7370 -1.3989 -0.3687
 5372TIP3   OH237606   5.031   3.155  13.466  0.3462  0.0830 -0.2114
 5372TIP3    H137607   5.104   3.199  13.511 -0.5402  1.7652 -0.3499
 5372TIP3    H237608   4.973   3.126  13.537  0.6689 -0.4155 -0.1444
 5373TIP3   OH237609   1.686   3.192   2.778 -0.4871 -0.4466 -0.9039
 5373TIP3    H137610   1.714   3.258   2.715  1.8767 -0.0104  0.4764
 5373TIP3    H237611   1.765   3.143   2.798 -1.1932 -0.7452  1.4914
 5374TIP3   OH237612   1.699   2.661  12.069  0.0903  0.2726 -0.8718
 5374TIP3    H137613   1.628   2.685  12.009 -0.3291 -1.0200 -0.9134
 5374TIP3    H237614   1.755   2.602  12.018 -0.2065 -0.7489 -0.0534
 5375TIP3   OH237615   5.343   3.661  11.852  0.0225  0.0782 -0.1865
 5375TIP3    H137616   5.404   3.590  11.868  1.1070  0.3951 -2.5428
 5375TIP3    H237617   5.354   3.719  11.927  1.1366 -0.8627  0.4168
 5376TIP3   OH237618   1.475   4.756   4.727 -0.2161  0.0779  0.2587
 5376TIP3    H137619   1.543   4.695   4.702  0.6817  0.4914  1.5658
 5376TIP3    H237620   1.488   4.769   4.821 -1.6230  0.7551  0.3851
 5377TIP3   OH237621   3.602   0.876  11.219 -0.6655  0.0404  0.2415
 5377TIP3    H137622   3.663   0.840  11.155 -0.7250 -1.2562  0.8736
 5377TIP3    H237623   3.656   0.929  11.277 -0.5087  0.6894 -0.4889
 5378TIP3   OH237624   1.733   6.674   2.901 -0.7894 -0.4510 -0.4658
 5378TIP3    H137625   1.743   6.736   2.829  1.2927  0.2862  0.3893
 5378TIP3    H237626   1.818   6.674   2.944 -2.1894 -0.2177  2.5200
 5379TIP3   OH237627   0.791   3.464  11.496  0.0397  0.3541 -0.7023
 5379TIP3    H137628   0.696   3.468  11.503 -0.0368 -0.0136 -1.3865
 5379TIP3    H237629   0.811   3.370  11.498  0.4817  0.4530  0.4512
 5380TIP3   OH237630   2.599   3.976  11.271  0.0224 -0.0798  0.5076
 5380TIP3    H137631   2.544   4.016  11.339 -1.5202 -0.8964 -0.2188
 5380TIP3    H237632   2.604   3.884  11.296  0.5914 -0.1278  0.2304
 5381TIP3   OH237633   2.129   4.064   1.660  0.1417 -0.2135 -0.2891
 5381TIP3    H137634   2.126   4.102   1.748  1.6892 -2.5957  0.8926
 5381TIP3    H237635   2.062   3.996   1.661  1.6119 -1.7189 -0.1421
 5382TIP3   OH237636   1.294   3.253   3.554 -0.2965 -0.4736 -0.0198
 5382TIP3    H137637   1.296   3.236   3.648 -0.9480 -0.2379  0.0405
 5382TIP3    H237638   1.202   3.268   3.534 -0.0844  0.1138 -0.5844
 5383TIP3   OH237639   6.494   1.778  11.455  0.0616 -0.2782  0.4426
 5383TIP3    H137640   6.510   1.684  11.451  0.6168 -0.3096  2.4495
 5383TIP3    H237641   6.407   1.786  11.494 -0.5515  0.0439 -0.9539
 5384TIP3   OH237642   4.547   6.820   4.683 -0.2330  0.2188 -0.3080
 5384TIP3    H137643   4.543   6.873   4.762  1.2152  0.0705 -0.1184
 5384TIP3    H237644   4.456   6.815   4.653 -0.6222  1.3600  0.6159
 5385TIP3   OH237645   3.164   5.969   2.041  0.0526  0.2395 -0.0982
 5385TIP3    H137646   3.111   5.988   2.118 -3.3018 -2.6484 -1.4339
 5385TIP3    H237647   3.113   6.004   1.968  1.5355  0.0208 -1.2757
 5386TIP3   OH237648   0.450   1.394   2.620  0.0071  0.0637 -0.5168
 5386TIP3    H137649   0.374   1.389   2.678 -1.0278  0.5051 -1.8012
 5386TIP3    H237650   0.450   1.483   2.586 -1.3979 -1.0143 -3.7260
 5387TIP3   OH237651   3.020   1.813   4.953 -0.5023 -0.6267 -0.3208
 5387TIP3    H137652   2.975   1.861   5.022  2.0393 -1.0573  1.8207
 5387TIP3    H237653   2.953   1.757   4.914 -2.2264  0.2856  1.1906
 5388TIP3   OH237654   4.648   6.408  11.352 -0.3034  1.0193  0.8372
 5388TIP3    H137655   4.652   6.333  11.293  0.9170  1.3024  0.5323
 5388TIP3    H237656   4.672   6.372  11.438  0.5003  1.0919  0.6485
 5389TIP3   OH237657   2.110   4.722  14.069 -0.0945  0.2288 -0.0346
 5389TIP3    H137658   2.175   4.688  14.130 -1.1060 -1.4263  0.1675
 5389TIP3    H237659   2.146   4.703  13.983  1.0844  2.0937 -0.0269
 5390TIP3   OH237660   5.058   5.701  15.568  0.2367  0.3093 -0.3338
 5390TIP3    H137661   4.991   5.688  15.636  0.6318 -1.2740 -0.1969
 5390TIP3    H237662   5.130   5.744  15.614  0.3796 -0.4741  0.2127
 5391TIP3   OH237663   5.153   0.958  14.097  0.6177 -0.1676 -0.1019
 5391TIP3    H137664   5.142   0.966  14.191  2.2842  0.1831  0.0979
 5391TIP3    H237665   5.109   1.035  14.061 -1.0530 -0.8960  0.2528
 5392TIP3   OH237666   4.786   3.900   3.216 -0.0415  0.3669  0.2002
 5392TIP3    H137667   4.691   3.903   3.220 -0.0046  3.1885  3.8950
 5392TIP3    H237668   4.810   3.970   3.154 -0.2553 -1.0973 -1.6314
 5393TIP3   OH237669   5.384   3.947  13.006  0.3382  0.0234  0.0736
 5393TIP3    H137670   5.451   3.906  12.951  0.3774  0.0180  0.1252
 5393TIP3    H237671   5.338   4.007  12.948  0.9878  0.7166  0.2627
 5394TIP3   OH237672   2.052   1.435  17.079 -0.0040 -1.1443  0.1712
 5394TIP3    H137673   1.966   1.466  17.107 -0.3267 -2.9002  1.3357
 5394TIP3    H237674   2.087   1.388  17.155  1.3762 -1.6602 -0.7293
 5395TIP3   OH237675   0.916   1.992   2.827  0.0330  0.3054  0.0705
 5395TIP3    H137676   0.876   2.021   2.745  0.2120  1.0655  0.2411
 5395TIP3    H237677   0.868   2.039   2.895 -1.6980 -2.0363  0.6205
 5396TIP3   OH237678   5.885   0.146   4.332 -0.4297 -0.2740  0.2500
 5396TIP3    H137679   5.970   0.190   4.334  0.4856 -1.8950 -0.7053
 5396TIP3    H237680   5.879   0.104   4.418  0.5693 -1.5492 -0.2603
 5397TIP3   OH237681   4.715   1.863   1.665 -0.3890 -0.3501  0.1515
 5397TIP3    H137682   4.756   1.816   1.737 -2.0225  0.4813  1.6891
 5397TIP3    H237683   4.683   1.944   1.703 -1.9939 -0.2246 -1.3173
 5398TIP3   OH237684   2.982   1.348   2.194  0.0969  0.1538  0.0863
 5398TIP3    H137685   2.940   1.400   2.264  2.1498 -0.4702  1.8804
 5398TIP3    H237686   2.926   1.271   2.185 -1.3409  1.2233 -0.4845
 5399TIP3   OH237687   6.754   1.471  15.373  0.2184 -0.0504 -0.4586
 5399TIP3    H137688   6.671   1.451  15.330 -1.3513  1.3362  1.7313
 5399TIP3    H237689   6.797   1.534  15.315 -0.5357 -0.3311 -1.3283
 5400TIP3   OH237690   6.818   3.998  12.291 -0.3055  0.2506 -0.6515
 5400TIP3    H137691   6.844   3.932  12.226 -0.5195 -0.0765 -0.4089
 5400TIP3    H237692   6.899   4.018  12.338  0.3872  2.2047 -2.5038
 5401TIP3   OH237693   1.303   6.146  11.077 -0.2658  0.0802  0.0891
 5401TIP3    H137694   1.305   6.188  10.991  0.8072  0.7459  0.4269
 5401TIP3    H237695   1.359   6.069  11.067 -1.1777 -0.5688 -0.1569
 5402TIP3   OH237696   0.413   3.265  11.725 -0.2295 -1.0190 -0.0979
 5402TIP3    H137697   0.480   3.306  11.780  0.0431 -1.4193 -0.1310
 5402TIP3    H237698   0.330   3.294  11.764 -0.0437 -1.6195  0.7810
 5403TIP3   OH237699   4.082   4.674  16.806  0.3495 -0.6114  0.5308
 5403TIP3    H137700   4.170   4.643  16.829  0.1041 -1.1959  0.6978
 5403TIP3    H237701   4.037   4.683  16.890 -0.0315 -1.1777  0.3909
 5404TIP3   OH237702   0.094   3.737   2.854  0.1713 -0.0913 -0.1288
 5404TIP3    H137703   0.069   3.752   2.763  1.1812 -0.3918 -0.4759
 5404TIP3    H237704   0.148   3.657   2.851  1.1986  0.5514  0.5427
 5405TIP3   OH237705   6.174   4.622   0.905 -0.6028 -0.0452  0.3782
 5405TIP3    H137706   6.219   4.665   0.832 -1.5402  2.4945  1.1783
 5405TIP3    H237707   6.118   4.557   0.864  2.0199 -1.7280 -0.8035
 5406TIP3   OH237708   2.361   2.130   4.966 -0.0117  0.9393 -0.0772
 5406TIP3    H137709   2.378   2.143   4.873  0.4230  1.5150  0.0739
 5406TIP3    H237710   2.273   2.092   4.970 -1.0092  3.0450 -0.6279
 5407TIP3   OH237711   0.199   5.330  13.874 -0.5819 -0.5182  0.6616
 5407TIP3    H137712   0.128   5.345  13.937 -1.0817  2.2044 -0.3928
 5407TIP3    H237713   0.279   5.352  13.922 -0.9571  1.5329  0.4404
 5408TIP3   OH237714   4.738   0.475   2.381 -0.2194  0.1115 -0.7939
 5408TIP3    H137715   4.749   0.569   2.394 -0.2375 -0.1374  1.3559
 5408TIP3    H237716   4.685   0.446   2.455  0.0740 -1.6604 -1.2143
 5409TIP3   OH237717   5.606   0.542  14.687  0.2677  0.0648  0.2741
 5409TIP3    H137718   5.556   0.461  14.681 -0.2744  0.4862 -1.9541
 5409TIP3    H237719   5.590   0.587  14.604  1.0613  2.1709  1.1622
 5410TIP3   OH237720   3.661   5.517  13.533  0.2434  0.2763  0.4935
 5410TIP3    H137721   3.624   5.485  13.615 -1.9235  0.9998 -0.1263
 5410TIP3    H237722   3.591   5.569  13.494  0.1041 -2.3069 -3.1751
 5411TIP3   OH237723   0.380   1.102   1.315 -0.1859  0.6600 -0.5846
 5411TIP3    H137724   0.405   1.172   1.255 -0.2222  0.9454 -0.2728
 5411TIP3    H237725   0.310   1.056   1.269  1.1260 -0.3745 -1.6186
 5412TIP3   OH237726   3.116   6.238  15.911  0.1057  0.0339  0.0568
 5412TIP3    H137727   3.135   6.272  15.823 -0.7739  1.6800  0.4536
 5412TIP3    H237728   3.022   6.222  15.911  0.0878  0.1138  0.7240
 5413TIP3   OH237729   3.176   1.937   1.255  0.7701  0.0237  0.2389
 5413TIP3    H137730   3.108   1.982   1.206 -0.1756 -0.5998  0.9485
 5413TIP3    H237731   3.254   1.992   1.245 -0.0609  1.2045  0.1482
 5414TIP3   OH237732   4.319   3.370   0.711  0.5637 -0.0600  0.3088
 5414TIP3    H137733   4.234   3.341   0.679 -0.0134  0.9713  0.8476
 5414TIP3    H237734   4.378   3.297   0.692  0.0884  0.1014 -2.2468
 5415TIP3   OH237735   5.367   4.605   0.720  0.8916  0.4591  0.2941
 5415TIP3    H137736   5.449   4.623   0.675  1.2077 -0.8060  0.3193
 5415TIP3    H237737   5.373   4.653   0.803  2.7608 -1.6366  1.4641
 5416TIP3   OH237738   2.434   3.034   3.264 -0.5653 -0.0796  0.3282
 5416TIP3    H137739   2.488   3.111   3.247 -0.5651 -0.2379 -0.4522
 5416TIP3    H237740   2.478   2.990   3.337 -0.7927  0.8609  1.0459
 5417TIP3   OH237741   1.826   4.102  12.919  0.3914 -0.2920  0.1025
 5417TIP3    H137742   1.823   4.121  12.825  0.0613 -0.5695  0.0570
 5417TIP3    H237743   1.760   4.034  12.932  0.3360 -0.1511  0.5597
 5418TIP3   OH237744   3.754   0.357  15.365  0.4828 -0.2841 -0.1713
 5418TIP3    H137745   3.737   0.387  15.454  0.7834  0.2313 -0.2894
 5418TIP3    H237746   3.668   0.336  15.330  0.3525 -0.3728  0.1964
 5419TIP3   OH237747   1.193   2.306  12.942  0.6707  0.2652  0.1694
 5419TIP3    H137748   1.269   2.274  12.990  2.1658  1.0653 -1.5344
 5419TIP3    H237749   1.128   2.237  12.951  1.6603 -0.5405  1.5067
 5420TIP3   OH237750   2.869   3.234  16.691  0.2583 -0.2732  0.3717
 5420TIP3    H137751   2.842   3.308  16.638  0.0682 -0.3020  0.4256
 5420TIP3    H237752   2.842   3.257  16.780 -0.1697 -0.5816  0.3259
 5421TIP3   OH237753   6.412   4.582  16.290  0.1074 -0.6536 -0.0255
 5421TIP3    H137754   6.385   4.596  16.200  0.5072 -0.4910 -0.1251
 5421TIP3    H237755   6.355   4.512  16.323 -1.7990  1.0205  0.4183
 5422TIP3   OH237756   1.232   3.451   4.308 -0.4884 -0.0368  0.1837
 5422TIP3    H137757   1.316   3.494   4.292 -0.7820  0.0460 -1.3028
 5422TIP3    H237758   1.234   3.427   4.401  1.9352 -1.6380 -0.1940
 5423TIP3   OH237759   6.647   5.865  12.184 -0.4260 -0.7234  0.1694
 5423TIP3    H137760   6.636   5.922  12.260 -2.1679 -0.7738 -0.0010
 5423TIP3    H237761   6.709   5.912  12.128  1.9827 -1.3008  2.1301
 5424TIP3   OH237762   0.603   1.618  11.032 -0.4192 -0.2429  0.0056
 5424TIP3    H137763   0.525   1.563  11.037 -0.2321 -0.6612 -1.2664
 5424TIP3    H237764   0.569   1.707  11.029 -0.7602 -0.3106  1.1311
 5425TIP3   OH237765   6.540   2.257  10.835 -0.5410  0.3421 -0.2675
 5425TIP3    H137766   6.605   2.201  10.878 -0.5465  1.9474  2.0047
 5425TIP3    H237767   6.572   2.265  10.745  0.6346 -1.4965 -0.0719
 5426TIP3   OH237768   2.320   2.554  11.891 -0.1195  0.3509 -0.1392
 5426TIP3    H137769   2.255   2.581  11.826 -0.5014  2.6746  1.1409
 5426TIP3    H237770   2.291   2.466  11.918 -1.5492  0.5061 -1.0465
 5427TIP3   OH237771   1.847   4.381  13.398  0.4894  0.2478  0.3956
 5427TIP3    H137772   1.787   4.361  13.326  1.6576 -0.6640 -0.3620
 5427TIP3    H237773   1.799   4.442  13.453  0.1163  2.2121 -1.9660
 5428TIP3   OH237774   4.328   5.320  16.517  0.4518 -0.1684 -0.1936
 5428TIP3    H137775   4.325   5.349  16.608 -0.5424 -0.5048 -0.1180
 5428TIP3    H237776   4.237   5.311  16.491  0.7295 -0.3984 -1.1273
 5429TIP3   OH237777   4.558   2.777  14.022 -0.1037  0.0411 -0.0197
 5429TIP3    H137778   4.607   2.748  14.099 -1.4879 -1.2944  0.3946
 5429TIP3    H237779   4.516   2.698  13.989 -1.8187  1.0849 -0.4626
 5430TIP3   OH237780   4.001   6.476   2.365  0.6096  0.5438  0.8480
 5430TIP3    H137781   4.072   6.495   2.303 -1.2141  0.6227 -1.3296
 5430TIP3    H237782   3.931   6.441   2.310 -0.4474 -1.1782  3.1587
 5431TIP3   OH237783   5.594   1.788   4.295  0.3464 -0.2252  0.3326
 5431TIP3    H137784   5.582   1.778   4.389  0.3204 -1.0257  0.2484
 5431TIP3    H237785   5.646   1.712   4.269 -2.0337 -1.5892 -0.7551
 5432TIP3   OH237786   6.203   3.087   1.396  0.2783  0.0455  0.0344
 5432TIP3    H137787   6.111   3.065   1.407  0.2356 -0.8690 -1.8483
 5432TIP3    H237788   6.227   3.128   1.479 -1.8859  0.6150  0.4457
 5433TIP3   OH237789   6.622   0.720   3.182  0.0826  0.0219  0.7611
 5433TIP3    H137790   6.691   0.662   3.149 -0.7472 -0.1196 -0.8307
 5433TIP3    H237791   6.555   0.661   3.214 -1.7319 -0.1369 -2.8164
 5434TIP3   OH237792   5.217   0.827   0.041  0.0959  0.1866  0.4119
 5434TIP3    H137793   5.157   0.768  -0.005 -1.1243  1.6875  0.0048
 5434TIP3    H237794   5.212   0.800   0.133 -1.4712  0.4993  0.4331
 5435TIP3   OH237795   2.103   6.249  12.438 -0.4251 -0.3588  0.4044
 5435TIP3    H137796   2.019   6.295  12.428 -0.2747 -0.4625 -1.7623
 5435TIP3    H237797   2.155   6.306  12.494 -1.6115  0.1392  1.0478
 5436TIP3   OH237798   5.736   5.362   5.680 -0.3156  0.1085 -0.6212
 5436TIP3    H137799   5.689   5.394   5.757 -1.7521 -0.6879 -1.1364
 5436TIP3    H237800   5.778   5.440   5.643 -0.0568  0.5866  0.6450
 5437TIP3   OH237801   6.722   2.897   2.428 -0.1060  0.1420 -0.1032
 5437TIP3    H137802   6.760   2.813   2.403 -2.4250 -0.0584 -3.6245
 5437TIP3    H237803   6.656   2.874   2.494 -1.1454 -0.9717 -1.4677
 5438TIP3   OH237804   5.079   4.802  12.181 -0.1353  0.0757 -0.1903
 5438TIP3    H137805   5.015   4.836  12.118 -0.9083  0.3228  0.7111
 5438TIP3    H237806   5.081   4.867  12.251  0.1104 -0.5949  0.4325
 5439TIP3   OH237807   4.485   0.702   2.417 -0.0527 -0.7114  0.0531
 5439TIP3    H137808   4.465   0.616   2.453  0.3261 -0.4272  0.9914
 5439TIP3    H237809   4.403   0.732   2.379 -0.5193 -0.9595  0.8463
 5440TIP3   OH237810   4.793   2.577   1.955 -0.4456 -0.2825 -0.2016
 5440TIP3    H137811   4.711   2.551   1.913 -0.7670  0.0021  0.2248
 5440TIP3    H237812   4.765   2.642   2.020  0.2000  0.3131 -0.5114
 5441TIP3   OH237813   2.265   5.445  12.842 -0.6691  0.0387 -0.4090
 5441TIP3    H137814   2.316   5.477  12.768  0.4160 -0.3458  0.1439
 5441TIP3    H237815   2.311   5.365  12.870 -2.3817 -1.1169 -0.7549
 5442TIP3   OH237816   4.333   0.808  14.799  0.2132  0.5884 -0.2149
 5442TIP3    H137817   4.326   0.712  14.798  0.8860  0.4859  1.6596
 5442TIP3    H237818   4.426   0.825  14.783  0.0148  0.9686 -1.0161
 5443TIP3   OH237819   2.850   4.251   5.186  0.2861  0.0568 -0.1849
 5443TIP3    H137820   2.821   4.323   5.130  0.6704 -0.1278 -0.6232
 5443TIP3    H237821   2.823   4.172   5.140  1.9776 -0.1456 -0.9060
 5444TIP3   OH237822   1.553   6.739   1.723  0.6132 -0.4628 -0.2476
 5444TIP3    H137823   1.465   6.708   1.741  0.7233 -2.0768 -2.1939
 5444TIP3    H237824   1.542   6.807   1.656  0.6618  1.6133  1.7088
 5445TIP3   OH237825   2.895   2.520   2.504  0.2940 -0.3757  0.2980
 5445TIP3    H137826   2.862   2.439   2.465  0.0231  0.4558 -1.3077
 5445TIP3    H237827   2.962   2.491   2.566  1.7776 -1.7650 -1.8103
 5446TIP3   OH237828   4.297   4.571  13.660 -0.5167 -0.8707 -0.4321
 5446TIP3    H137829   4.266   4.653  13.699  2.0063 -0.0363  0.0000
 5446TIP3    H237830   4.388   4.588  13.638  0.0031 -3.4906 -0.5977
 5447TIP3   OH237831   4.310   1.020  11.754 -0.0755 -0.3402 -0.0237
 5447TIP3    H137832   4.318   0.928  11.728  1.5351 -0.0275 -0.7379
 5447TIP3    H237833   4.385   1.063  11.714 -1.1454  1.4289 -0.2369
 5448TIP3   OH237834   6.393   6.300  10.944 -0.0579 -0.3130  0.0835
 5448TIP3    H137835   6.463   6.244  10.978 -0.2830 -0.1498  0.8214
 5448TIP3    H237836   6.336   6.240  10.896  0.3507 -0.5127 -0.1673
 5449TIP3   OH237837   5.685   4.318   3.030  0.4269 -0.0596 -0.4217
 5449TIP3    H137838   5.699   4.226   3.007  2.5394  0.3805 -1.1297
 5449TIP3    H237839   5.665   4.317   3.124  1.2336 -1.1810 -0.2488
 5450TIP3   OH237840   5.417   6.552  12.639 -0.5576  0.3405  0.0448
 5450TIP3    H137841   5.460   6.504  12.710  1.4736  1.0054 -0.6658
 5450TIP3    H237842   5.347   6.600  12.682 -0.8029 -0.9996  1.2221
 5451TIP3   OH237843   6.753   2.494  14.434 -0.5775  0.3674 -0.0255
 5451TIP3    H137844   6.777   2.585  14.416  2.0989  0.1250  1.8633
 5451TIP3    H237845   6.669   2.500  14.480 -0.4321  1.8541  0.0961
 5452TIP3   OH237846   2.830   1.173   5.543  0.7968 -0.0187 -0.4526
 5452TIP3    H137847   2.860   1.172   5.634  1.6216  0.0320 -0.7134
 5452TIP3    H237848   2.892   1.230   5.498 -0.8085  1.6364 -0.6552
 5453TIP3   OH237849   3.106   6.479  16.618  0.0678 -0.4408 -0.0467
 5453TIP3    H137850   3.131   6.408  16.558  1.2679 -1.0085  1.0688
 5453TIP3    H237851   3.117   6.442  16.705  1.4297  1.3098  0.5908
 5454TIP3   OH237852   0.973   2.948  16.834  0.3440 -0.5697  0.8244
 5454TIP3    H137853   0.885   2.946  16.871  0.2151  1.1740  0.7413
 5454TIP3    H237854   0.959   2.942  16.739  0.3935 -1.2809  0.8600
 5455TIP3   OH237855   0.519   3.540   3.727  0.5221  0.2871  0.1423
 5455TIP3    H137856   0.584   3.607   3.751 -0.0153  0.9394 -0.2139
 5455TIP3    H237857   0.455   3.586   3.673 -0.4891 -0.2483  0.8562
 5456TIP3   OH237858   4.592   0.465   0.865  0.1651 -0.1754 -0.1385
 5456TIP3    H137859   4.671   0.457   0.813  0.7255  1.5395  0.3753
 5456TIP3    H237860   4.600   0.398   0.933 -0.3060 -2.0430 -1.8448
 5457TIP3   OH237861   4.260   1.046  13.037 -0.5194 -0.0189 -0.4235
 5457TIP3    H137862   4.346   1.056  12.996 -0.1386 -0.4175  0.2646
 5457TIP3    H237863   4.280   1.028  13.129 -1.3129 -1.2029 -0.4688
 5458TIP3   OH237864   0.709   4.005   6.462 -0.4117 -0.4362  0.4021
 5458TIP3    H137865   0.675   3.954   6.388 -0.3511 -0.7038  0.5585
 5458TIP3    H237866   0.756   3.941   6.516  2.8247  0.3422 -1.2469
 5459TIP3   OH237867   2.523   3.391   5.954 -0.0225 -0.5585  0.3312
 5459TIP3    H137868   2.612   3.423   5.970  0.2520 -0.7093 -0.8597
 5459TIP3    H237869   2.522   3.303   5.991 -0.4529  0.3137  2.6127
 5460TIP3   OH237870   2.484   6.216  15.597 -0.2741 -0.2235  0.0971
 5460TIP3    H137871   2.511   6.307  15.581 -1.1550  0.0361  0.0286
 5460TIP3    H237872   2.446   6.217  15.685  1.6667 -0.9891  0.9924
 5461TIP3   OH237873   3.926   5.692   2.673 -0.6767  0.2966  0.2342
 5461TIP3    H137874   3.991   5.626   2.648  0.9104  2.4031 -1.6460
 5461TIP3    H237875   3.843   5.646   2.672  0.6526 -2.3963  2.2230
 5462TIP3   OH237876   6.015   0.769  13.936  0.4924 -0.2968 -0.1112
 5462TIP3    H137877   6.108   0.772  13.911  0.3953  2.1659 -0.4657
 5462TIP3    H237878   6.014   0.802  14.026  0.0253 -0.9587  0.1247
 5463TIP3   OH237879   5.856   5.084  11.527 -0.3391 -0.3163  0.5638
 5463TIP3    H137880   5.793   5.043  11.467  0.4275 -1.4270  0.4846
 5463TIP3    H237881   5.929   5.109  11.471  0.3054 -1.1999  0.9813
 5464TIP3   OH237882   6.044   4.307  11.535  0.1371  0.0645  0.2601
 5464TIP3    H137883   6.099   4.233  11.562  2.0682  1.9315  1.7719
 5464TIP3    H237884   5.961   4.292  11.581 -0.0351 -1.8316 -0.5638
 5465TIP3   OH237885   5.834   2.239   0.091 -0.0320 -0.2976 -0.5872
 5465TIP3    H137886   5.762   2.301   0.104 -0.5624 -0.5499 -2.1164
 5465TIP3    H237887   5.855   2.208   0.179 -1.4413  0.1763 -0.0525
 5466TIP3   OH237888   1.127   1.076  12.465 -0.1773 -1.1115  0.5081
 5466TIP3    H137889   1.076   1.155  12.483 -0.9296 -1.4918  0.0586
 5466TIP3    H237890   1.218   1.104  12.475 -0.3746  0.1743 -0.9947
 5467TIP3   OH237891   1.763   4.452   4.069  0.7171 -0.2729 -0.1456
 5467TIP3    H137892   1.851   4.475   4.102  0.1564 -0.4307  1.5796
 5467TIP3    H237893   1.754   4.502   3.988  2.2247  0.0972 -0.1189
 5468TIP3   OH237894   3.339   2.736   4.399 -0.2580  0.4363  0.2417
 5468TIP3    H137895   3.260   2.704   4.442 -0.6133  2.1464  0.9324
 5468TIP3    H237896   3.339   2.830   4.416  2.8645  0.2750  1.8478
 5469TIP3   OH237897   1.697   6.510   0.149  0.2151 -0.7367  0.5843
 5469TIP3    H137898   1.714   6.603   0.138 -0.0443 -0.6050  1.2676
 5469TIP3    H237899   1.781   6.468   0.131 -0.0408 -0.5134 -1.3284
 5470TIP3   OH237900   5.198   2.435   2.875  0.4220 -0.0689  0.0578
 5470TIP3    H137901   5.254   2.499   2.832 -0.9799  0.1598 -1.5573
 5470TIP3    H237902   5.133   2.411   2.808 -2.0267  0.4459  2.0994
 5471TIP3   OH237903   2.119   5.495   0.499  0.5838 -0.1426 -0.5137
 5471TIP3    H137904   2.169   5.533   0.571  0.8950 -0.7599 -0.4017
 5471TIP3    H237905   2.077   5.570   0.457 -0.6501  0.1140  1.0941
 5472TIP3   OH237906   0.616   1.973  14.440 -0.1896  0.4242 -0.1788
 5472TIP3    H137907   0.635   1.898  14.497 -2.7423  0.6932  1.1842
 5472TIP3    H237908   0.658   2.047  14.483  0.3280  0.1680 -0.2342
 5473TIP3   OH237909   1.942   2.734  16.811  0.1630  0.0089  0.0748
 5473TIP3    H137910   1.987   2.667  16.864  0.3042 -0.4638 -0.6211
 5473TIP3    H237911   1.940   2.811  16.867  2.0628  0.1266  0.0635
 5474TIP3   OH237912   4.972   0.351   3.493  0.6068  0.3341 -0.0256
 5474TIP3    H137913   4.955   0.270   3.444  0.9049 -0.3790  1.0013
 5474TIP3    H237914   4.888   0.374   3.532  0.6505  0.1984  0.1485
 5475TIP3   OH237915   3.198   5.438   1.818 -0.1084  0.0835 -0.1063
 5475TIP3    H137916   3.216   5.532   1.819 -1.9387  0.5549 -2.1306
 5475TIP3    H237917   3.284   5.397   1.803  0.4354  1.6183 -1.5341
 5476TIP3   OH237918   1.500   2.096   1.084  0.2638  0.0512  0.2161
 5476TIP3    H137919   1.519   2.120   1.174  0.0040 -0.1436  0.3231
 5476TIP3    H237920   1.409   2.064   1.086 -0.1002  1.0089 -0.2901
 5477TIP3   OH237921   0.058   3.824   2.047  0.6558  0.2657  0.2420
 5477TIP3    H137922   0.037   3.737   2.013 -1.1001  0.7617 -0.0117
 5477TIP3    H237923   0.110   3.865   1.978 -0.5535  0.2684 -0.7006
 5478TIP3   OH237924   1.073   6.732   4.111  0.1757 -0.1665  0.0313
 5478TIP3    H137925   1.021   6.760   4.187  0.4376  1.4619 -0.3425
 5478TIP3    H237926   1.121   6.656   4.142 -0.4004 -0.0839  1.2236
 5479TIP3   OH237927   4.494   4.661  12.762 -0.2980  0.0108  0.8138
 5479TIP3    H137928   4.463   4.742  12.803  1.7747  0.8053  0.9460
 5479TIP3    H237929   4.513   4.686  12.672  0.2971 -0.3396  0.8372
 5480TIP3   OH237930   2.288   5.140  15.974 -0.0434 -0.0886  0.7491
 5480TIP3    H137931   2.368   5.138  16.027  1.4463  0.0468 -1.3498
 5480TIP3    H237932   2.267   5.048  15.959 -1.0706 -0.1500  2.3372
 5481TIP3   OH237933   2.996   3.646   6.218 -0.1122  0.0537 -0.4944
 5481TIP3    H137934   3.030   3.701   6.147 -1.1540 -0.1513 -1.1694
 5481TIP3    H237935   3.065   3.580   6.231  0.8717  1.1202 -0.0993
 5482TIP3   OH237936   3.769   3.901  16.097  0.1088  0.0430 -0.3261
 5482TIP3    H137937   3.788   3.850  16.018 -0.5597  1.9184 -1.7857
 5482TIP3    H237938   3.785   3.991  16.071 -1.3483  0.8284  1.3286
 5483TIP3   OH237939   4.671   0.032  12.522 -0.1254  0.2507 -0.0304
 5483TIP3    H137940   4.644  -0.051  12.563 -0.0024  0.2131 -0.0267
 5483TIP3    H237941   4.592   0.061  12.476 -0.6262  0.8724  1.1678
 5484TIP3   OH237942   1.299   3.926  12.527  0.0239  0.2896 -0.6666
 5484TIP3    H137943   1.244   4.002  12.547 -0.3933 -0.3327  0.7562
 5484TIP3    H237944   1.238   3.852  12.532  0.7583 -0.2963 -0.2855
 5485TIP3   OH237945   0.374   5.776   1.831  0.0455 -0.0837 -0.3056
 5485TIP3    H137946   0.305   5.797   1.894 -0.9361 -0.8860 -1.0749
 5485TIP3    H237947   0.380   5.853   1.775 -0.1615  0.0171 -0.1900
 5486TIP3   OH237948   3.633   0.550   5.577 -0.2979  0.2551 -0.0961
 5486TIP3    H137949   3.719   0.553   5.536 -0.3800 -0.6184 -0.3384
 5486TIP3    H237950   3.616   0.457   5.591 -1.3240  0.4019 -0.3154
 5487TIP3   OH237951   2.488   0.675   5.698 -0.4364 -0.2215 -0.2640
 5487TIP3    H137952   2.428   0.729   5.748 -1.6880 -0.0631 -1.8783
 5487TIP3    H237953   2.513   0.605   5.759 -1.4270  0.2917  0.7658
 5488TIP3   OH237954   0.302   0.506   0.847  0.4816  0.2125  0.1794
 5488TIP3    H137955   0.309   0.458   0.764  1.0220 -1.8898  1.3498
 5488TIP3    H237956   0.297   0.598   0.821  0.4921 -0.3674 -2.1770
 5489TIP3   OH237957   1.760   3.870  14.435 -0.8442  0.4018  0.1023
 5489TIP3    H137958   1.774   3.866  14.341  0.2574 -2.2306  0.2981
 5489TIP3    H237959   1.686   3.812  14.451  0.5577 -1.2342  1.0379
 5490TIP3   OH237960   1.788   6.196  10.624  0.4432 -0.4578  0.0094
 5490TIP3    H137961   1.791   6.150  10.540 -1.3760  1.7162 -1.3419
 5490TIP3    H237962   1.861   6.258  10.620  1.0248 -1.0709  0.5670
 5491TIP3   OH237963   4.529   4.701  13.546 -0.4525  0.1465  0.5058
 5491TIP3    H137964   4.599   4.637  13.557  0.3910  1.0343  0.5104
 5491TIP3    H237965   4.557   4.776  13.599 -0.2481  1.4173 -1.3038
 5492TIP3   OH237966   4.682   0.841   1.006  0.1830  0.8751 -0.1330
 5492TIP3    H137967   4.729   0.784   0.945 -1.8513  0.5019 -1.4296
 5492TIP3    H237968   4.749   0.870   1.068  2.0033  0.0144 -1.6142
 5493TIP3   OH237969   5.506   4.310   0.999 -0.3974  0.3740  0.0384
 5493TIP3    H137970   5.496   4.402   1.023  1.8843  0.7589 -0.2564
 5493TIP3    H237971   5.549   4.312   0.913 -0.8665 -0.9677 -0.2549
 5494TIP3   OH237972   3.314   4.410   2.228 -0.6377  0.4698 -0.0054
 5494TIP3    H137973   3.295   4.443   2.140 -1.8423 -0.0638  0.0372
 5494TIP3    H237974   3.232   4.419   2.276  0.1843  1.3531  1.2805
 5495TIP3   OH237975   6.665   0.524   1.234  1.3267  0.1031  0.1059
 5495TIP3    H137976   6.696   0.456   1.293  0.5043  0.9706  1.5891
 5495TIP3    H237977   6.620   0.475   1.164  0.6870 -0.8988  1.1745
 5496TIP3   OH237978   1.343   6.312  13.657 -0.5129 -0.0821 -0.1481
 5496TIP3    H137979   1.270   6.370  13.634 -0.8674 -0.2802  0.4581
 5496TIP3    H237980   1.338   6.305  13.752 -0.9709 -1.7536 -0.2691
 5497TIP3   OH237981   2.636   3.302   2.952 -0.2764 -0.2009 -0.6483
 5497TIP3    H137982   2.545   3.316   2.928  0.1612 -0.5147 -2.7314
 5497TIP3    H237983   2.686   3.334   2.876  1.3262 -0.3461  0.2919
 5498TIP3   OH237984   2.040   4.021  13.522 -0.0457 -0.0918  0.9890
 5498TIP3    H137985   1.961   4.008  13.471  0.9051 -0.5022 -0.4378
 5498TIP3    H237986   2.081   4.099  13.485  1.4824 -1.3121 -0.0505
 5499TIP3   OH237987   5.159   4.798  13.086  0.7978 -0.3187  0.2580
 5499TIP3    H137988   5.097   4.753  13.144 -1.3790  0.2428 -1.5286
 5499TIP3    H237989   5.121   4.885  13.073  0.9621 -0.5829 -2.3548
 5500TIP3   OH237990   4.142   0.978   4.791 -0.2587 -0.6769 -0.1306
 5500TIP3    H137991   4.127   0.987   4.885 -1.3021  2.1581 -0.4663
 5500TIP3    H237992   4.081   0.910   4.763 -3.0763  1.3318  0.6808
 5501TIP3   OH237993   2.203   5.171   0.113  0.1671 -0.6747 -0.2724
 5501TIP3    H137994   2.190   5.265   0.112 -0.7021 -0.7760  0.3721
 5501TIP3    H237995   2.289   5.159   0.154 -0.2924 -0.2131  0.8535
 5502TIP3   OH237996   0.637   0.507  11.418  0.2007  0.2471  0.0641
 5502TIP3    H137997   0.675   0.442  11.358  0.4950 -0.0076  0.5249
 5502TIP3    H237998   0.599   0.454  11.489 -0.6766  0.5128 -0.1945
 5503TIP3   OH237999   0.135   2.919  13.604 -0.2786  0.1992 -0.1168
 5503TIP3    H138000   0.129   2.870  13.522  1.1597 -1.7680  0.8691
 5503TIP3    H238001   0.056   2.973  13.605 -3.3185 -3.7012 -0.3296
 5504TIP3   OH238002   3.076   0.963   2.781  0.1810 -0.0944 -0.0558
 5504TIP3    H138003   3.140   0.936   2.715  0.3316 -0.3842  0.2073
 5504TIP3    H238004   3.005   1.003   2.731  1.1626  1.4632 -0.2691
 5505TIP3   OH238005   0.803   5.578  14.772  0.3448 -0.3756  0.1667
 5505TIP3    H138006   0.881   5.538  14.735 -0.2525 -1.7306  0.3090
 5505TIP3    H238007   0.809   5.561  14.866  1.2887  2.0544  0.6249
 5506TIP3   OH238008   4.212   3.125   4.116 -0.7013  0.3917 -0.5027
 5506TIP3    H138009   4.267   3.160   4.046  0.6976 -0.0570  0.3361
 5506TIP3    H238010   4.129   3.171   4.107 -0.4371  0.5935 -2.2341
 5507TIP3   OH238011   5.322   4.620   2.965 -0.1488  0.0445 -0.1352
 5507TIP3    H138012   5.318   4.558   2.892 -0.6599  1.8603 -1.7241
 5507TIP3    H238013   5.382   4.688   2.935 -0.4099  0.8563  1.1275
 5508TIP3   OH238014   4.989   2.863  16.950 -0.4935 -0.0099  0.0740
 5508TIP3    H138015   5.070   2.908  16.927  0.4355 -1.0649  1.1500
 5508TIP3    H238016   5.001   2.839  17.042 -1.7117 -0.8629  0.0284
 5509TIP3   OH238017   1.981   6.399  14.659 -0.4738  0.1505 -0.7626
 5509TIP3    H138018   1.962   6.341  14.586  0.9986 -0.3391 -0.8001
 5509TIP3    H238019   1.897   6.438  14.682 -1.0919 -0.2957 -2.1879
 5510TIP3   OH238020   0.978   4.247   4.288  0.4757  0.7575 -0.2565
 5510TIP3    H138021   0.934   4.262   4.205  0.4810 -2.1121 -0.8682
 5510TIP3    H238022   0.929   4.299   4.351 -2.0197 -0.0484 -1.4185
 5511TIP3   OH238023   2.049   4.198   5.170 -0.0155 -0.2531 -0.5671
 5511TIP3    H138024   2.086   4.128   5.224 -0.8501  0.1142  0.5130
 5511TIP3    H238025   2.124   4.237   5.126  0.8090  0.0309  1.0423
 5512TIP3   OH238026   4.002   5.758   6.640  0.1479 -0.2613  0.1765
 5512TIP3    H138027   3.978   5.703   6.714  0.9885 -1.1923 -0.2095
 5512TIP3    H238028   4.086   5.722   6.610 -0.3347 -0.1238 -1.4335
 5513TIP3   OH238029   5.211   4.884   2.031 -0.0860 -0.0611 -0.2188
 5513TIP3    H138030   5.242   4.812   2.085 -2.2388  0.2610  1.5710
 5513TIP3    H238031   5.248   4.962   2.070 -2.4790  0.2762  1.6133
 5514TIP3   OH238032   1.323   5.195   0.266 -0.0488 -0.0867  0.2928
 5514TIP3    H138033   1.261   5.139   0.220 -0.4939  0.0480  0.7220
 5514TIP3    H238034   1.286   5.283   0.259  1.1482  0.3454 -1.2493
 5515TIP3   OH238035   6.347   3.928   4.237 -0.7165 -0.0116 -0.3491
 5515TIP3    H138036   6.410   3.942   4.307  0.0906 -1.6218 -0.7179
 5515TIP3    H238037   6.305   3.844   4.259 -1.6653  0.3033 -0.9024
 5516TIP3   OH238038   1.286   6.592   4.810 -0.2649  0.1643  0.1405
 5516TIP3    H138039   1.281   6.558   4.899  0.7791 -0.5242 -0.0412
 5516TIP3    H238040   1.239   6.528   4.757  1.1672 -0.7360 -0.1129
 5517TIP3   OH238041   2.296   5.554   3.077  0.2300  0.6317  0.5470
 5517TIP3    H138042   2.347   5.521   3.151 -0.0490 -1.0734  0.0035
 5517TIP3    H238043   2.209   5.516   3.089  0.4696 -0.5746 -1.2231
 5518TIP3   OH238044   0.123   0.035  11.702  0.2476 -0.7296  0.0258
 5518TIP3    H138045   0.122  -0.047  11.653 -1.2951 -1.3064  0.9514
 5518TIP3    H238046   0.212   0.040  11.737  0.8735 -1.1310 -1.4351
 5519TIP3   OH238047   6.076   5.807   3.811 -0.7175 -0.3637 -0.1432
 5519TIP3    H138048   6.128   5.819   3.891  1.8834 -2.7856 -1.2797
 5519TIP3    H238049   6.029   5.725   3.826 -1.6774  0.1240 -0.4198
 5520TIP3   OH238050   1.604   0.319   0.027 -0.3317  0.2274  0.0863
 5520TIP3    H138051   1.633   0.307  -0.063 -1.5897  0.6625 -0.3981
 5520TIP3    H238052   1.581   0.231   0.057  1.3735 -0.1241  0.4733
 5521TIP3   OH238053   6.104   5.423  12.392  0.4903  0.1515  0.3741
 5521TIP3    H138054   6.046   5.486  12.349 -0.8174 -1.0588  0.3151
 5521TIP3    H238055   6.184   5.425  12.340 -0.3139  0.2234 -0.8895
 5522TIP3   OH238056   2.382   1.156  13.431 -0.1339 -0.2311 -0.2446
 5522TIP3    H138057   2.357   1.090  13.496  1.6450 -2.2483 -1.4566
 5522TIP3    H238058   2.354   1.239  13.469  2.0946 -1.0544  3.8555
 5523TIP3   OH238059   1.286   3.034   3.339 -0.1777  0.0628  0.3420
 5523TIP3    H138060   1.273   3.095   3.412  2.3329  2.0241 -0.6570
 5523TIP3    H238061   1.236   3.071   3.267  0.6988  0.5409 -0.0417
 5524TIP3   OH238062   4.851   5.558  13.190  0.3062  0.5291  0.1941
 5524TIP3    H138063   4.864   5.645  13.229  0.1624  0.5273  0.2459
 5524TIP3    H238064   4.906   5.559  13.112 -0.0993  0.8620 -0.0958
 5525TIP3   OH238065   0.310   1.635  14.317 -0.5274  0.5429  0.4686
 5525TIP3    H138066   0.368   1.711  14.307  0.9062 -0.5083  0.4431
 5525TIP3    H238067   0.366   1.566  14.353 -1.5291 -0.8164 -0.4504
 5526TIP3   OH238068   6.152   5.746   1.523  0.4100 -0.3492  0.1377
 5526TIP3    H138069   6.073   5.791   1.551 -0.0098 -0.0933 -1.3556
 5526TIP3    H238070   6.126   5.654   1.515  0.4285 -0.3605  0.2046
 5527TIP3   OH238071   5.705   6.491   6.654 -0.0438 -0.9526  0.1489
 5527TIP3    H138072   5.671   6.464   6.740 -1.5459 -0.3181 -0.2246
 5527TIP3    H238073   5.798   6.507   6.670  0.0627 -2.4091  1.2831
 5528TIP3   OH238074   3.377   1.742   5.525 -0.0989  0.0181 -0.4157
 5528TIP3    H138075   3.306   1.680   5.542 -0.3842  0.3154 -0.5308
 5528TIP3    H238076   3.436   1.695   5.466  1.2110 -1.2765  1.7860
 5529TIP3   OH238077   3.127   5.030  12.537 -0.2742  0.2210 -0.4560
 5529TIP3    H138078   3.201   4.993  12.489  0.2201 -1.0424  1.1665
 5529TIP3    H238079   3.079   4.953  12.569 -0.5068  0.9936  1.1331
 5530TIP3   OH238080   5.487   2.713  15.298 -0.0302 -0.1032 -0.6026
 5530TIP3    H138081   5.542   2.752  15.230  0.2155  0.5514 -0.0385
 5530TIP3    H238082   5.401   2.705  15.257  0.3414 -0.6353 -1.3124
 5531TIP3   OH238083   2.561   3.965   5.573  0.0267  0.0083  0.5765
 5531TIP3    H138084   2.623   4.037   5.564 -0.1755  0.2819  1.2704
 5531TIP3    H238085   2.542   3.938   5.483  1.4029 -0.3073  0.3624
 5532TIP3   OH238086   1.807   0.238   0.809 -0.0979  0.1001 -0.1186
 5532TIP3    H138087   1.753   0.169   0.850  0.3753 -1.5617 -2.1220
 5532TIP3    H238088   1.842   0.287   0.883  0.5446 -2.6122  1.5435
 5533TIP3   OH238089   5.460   4.842   2.420 -0.4647  0.0449  0.4422
 5533TIP3    H138090   5.446   4.902   2.493  0.7212  0.1755  0.5694
 5533TIP3    H238091   5.541   4.796   2.440 -2.3875 -3.2092  1.3903
 5534TIP3   OH238092   6.657   0.102  13.317  0.8721  0.9793 -0.4426
 5534TIP3    H138093   6.643   0.195  13.298 -0.6312  0.4541 -2.2192
 5534TIP3    H238094   6.751   0.095  13.333  1.1612  2.6603 -1.1188
 5535TIP3   OH238095   4.379   1.665   5.787  0.7626 -0.3071  0.2886
 5535TIP3    H138096   4.441   1.594   5.771  1.3031  0.3284 -0.5301
 5535TIP3    H238097   4.402   1.732   5.723 -0.6093  0.0567  0.1424
 5536TIP3   OH238098   3.595   6.744  15.320 -0.1736 -0.1964  0.4158
 5536TIP3    H138099   3.530   6.674  15.323  0.9393 -1.2907 -0.5475
 5536TIP3    H238100   3.607   6.762  15.226  0.2594  0.6206  0.6165
 5537TIP3   OH238101   6.134   1.405  15.882 -0.3164 -0.3503 -0.0154
 5537TIP3    H138102   6.101   1.479  15.934  0.9276  0.2305 -0.0120
 5537TIP3    H238103   6.177   1.446  15.807  1.1933 -0.9995  0.4464
 5538TIP3   OH238104   3.884   2.653  14.116 -0.5879 -0.4404  0.1200
 5538TIP3    H138105   3.814   2.708  14.152  1.1873  1.8234  0.3859
 5538TIP3    H238106   3.940   2.633  14.191  0.5890  0.2939 -0.5286
 5539TIP3   OH238107   1.285   0.055   0.824  0.4655  0.1280 -0.0027
 5539TIP3    H138108   1.315   0.058   0.733  2.5983 -0.4885  0.6150
 5539TIP3    H238109   1.236  -0.028   0.830  2.3190 -1.0438 -0.0900
 5540TIP3   OH238110   6.847   5.648  15.140 -0.0974 -0.4668 -0.1535
 5540TIP3    H138111   6.798   5.580  15.092  0.3299  0.4646 -2.0085
 5540TIP3    H238112   6.897   5.600  15.206  0.4699 -2.0217 -1.6447
 5541TIP3   OH238113   4.710   2.332  16.806 -0.2638 -0.3494  0.1609
 5541TIP3    H138114   4.776   2.266  16.830  0.7483  1.4407  2.7986
 5541TIP3    H238115   4.644   2.325  16.875 -0.1276  1.3503  0.4956
 5542TIP3   OH238116   3.440   1.433  15.649  0.0292 -0.3473  0.5811
 5542TIP3    H138117   3.352   1.463  15.673 -0.2031 -1.0479  0.6212
 5542TIP3    H238118   3.497   1.469  15.717 -0.2575 -0.0870  0.6867
 5543TIP3   OH238119   5.433   1.229  16.057  0.4984 -0.3187  0.0103
 5543TIP3    H138120   5.390   1.288  16.119  0.4201 -0.7794  0.3954
 5543TIP3    H238121   5.524   1.227  16.085  0.5067 -0.3578 -0.0198
 5544TIP3   OH238122   5.887   5.723  12.562  0.3786  1.2653  0.7293
 5544TIP3    H138123   5.822   5.751  12.626 -2.1725 -1.4489 -0.4187
 5544TIP3    H238124   5.943   5.662  12.610 -0.5926  0.3959  0.8049
 5545TIP3   OH238125   4.529   2.714   4.817  0.0956 -0.0281 -0.0218
 5545TIP3    H138126   4.499   2.679   4.901  0.3117  1.3972  0.6692
 5545TIP3    H238127   4.563   2.637   4.771 -2.1431 -1.2621  0.2144
 5546TIP3   OH238128   5.370   1.352  15.244  0.6906  0.1894 -0.3417
 5546TIP3    H138129   5.464   1.352  15.223  0.4003 -0.1881 -1.7927
 5546TIP3    H238130   5.327   1.376  15.161 -0.5364 -0.6895  0.0061
 5547TIP3   OH238131   2.005   5.822   2.823  0.5609  0.8535  0.0332
 5547TIP3    H138132   1.962   5.786   2.746  0.3416 -1.6636  1.2150
 5547TIP3    H238133   2.002   5.916   2.811  0.8007  0.5514 -3.1342
 5548TIP3   OH238134   4.945   4.168   4.788  0.3501  0.2782  0.0967
 5548TIP3    H138135   4.936   4.102   4.856  0.4272 -0.5062 -0.6353
 5548TIP3    H238136   4.855   4.194   4.767  0.2406 -0.5329 -0.4931
 5549TIP3   OH238137   1.651   2.810  12.678  0.0455 -0.0403 -0.0042
 5549TIP3    H138138   1.646   2.812  12.774 -0.2071  2.3357 -0.0051
 5549TIP3    H238139   1.562   2.791  12.650 -0.0337 -0.0114  0.2248
 5550TIP3   OH238140   0.134   1.822  11.835  0.2041 -0.7951  0.0487
 5550TIP3    H138141   0.107   1.819  11.927  1.0040  0.1137  0.3349
 5550TIP3    H238142   0.075   1.761  11.791  0.7301 -2.3638  1.3932
 5551TIP3   OH238143   0.498   4.724   2.738  0.3883 -0.3525  0.3588
 5551TIP3    H138144   0.405   4.726   2.715  0.3041  0.7723  0.7258
 5551TIP3    H238145   0.538   4.667   2.673 -0.3202  0.3423 -0.7106
 5552TIP3   OH238146   3.419   6.100   4.306  0.4043 -0.2014 -0.1999
 5552TIP3    H138147   3.452   6.024   4.354  0.4669  0.2440  0.4764
 5552TIP3    H238148   3.325   6.102   4.326  0.4327 -0.0091 -0.0770
 5553TIP3   OH238149   6.552   1.439  14.323 -0.2161  0.0564 -0.1699
 5553TIP3    H138150   6.483   1.496  14.289  0.0025  0.2724 -0.2537
 5553TIP3    H238151   6.524   1.416  14.411 -0.1691  0.5182 -0.0353
 5554TIP3   OH238152   0.698   4.126   5.486 -0.0321 -0.6110 -0.0454
 5554TIP3    H138153   0.698   4.047   5.538 -0.0170 -0.5457  0.0530
 5554TIP3    H238154   0.630   4.111   5.420 -1.1231 -0.0874  0.9190
 5555TIP3   OH238155   1.019   2.442   0.854  0.6679 -0.0905 -0.4030
 5555TIP3    H138156   1.097   2.395   0.884  0.5006  0.5861  1.1551
 5555TIP3    H238157   1.039   2.534   0.869 -0.4072  0.0951 -0.0519
 5556TIP3   OH238158   0.776   2.782  13.438 -0.2310  0.1587  0.0736
 5556TIP3    H138159   0.808   2.734  13.362 -0.6978 -0.1248  0.0494
 5556TIP3    H238160   0.803   2.872  13.423 -1.0728  0.2671 -0.8454
 5557TIP3   OH238161   1.990   6.646  12.181  0.5616  0.0165 -1.0129
 5557TIP3    H138162   1.982   6.567  12.234  1.5413 -0.0728 -0.9731
 5557TIP3    H238163   1.912   6.647  12.126  0.5943 -1.0367 -1.0951
 5558TIP3   OH238164   2.275   6.160   4.398 -0.3297 -0.4660  0.0549
 5558TIP3    H138165   2.283   6.223   4.470  2.6703  1.1610 -1.5282
 5558TIP3    H238166   2.296   6.076   4.437 -0.0773  0.1721  1.3487
 5559TIP3   OH238167   1.355   4.868   2.063  0.2548  0.0869 -0.2447
 5559TIP3    H138168   1.450   4.882   2.055  0.0850  1.3548 -0.2407
 5559TIP3    H238169   1.324   4.860   1.973  0.3023  0.0844 -0.2608
 5560TIP3   OH238170   2.708   2.737   1.756  0.7800  0.2760  0.4822
 5560TIP3    H138171   2.707   2.833   1.757  0.6229  0.2786  1.7300
 5560TIP3    H238172   2.616   2.712   1.757  0.8216  0.1267  1.2883
 5561TIP3   OH238173   1.935   6.637  16.246  1.0119  0.3929  0.1301
 5561TIP3    H138174   1.895   6.722  16.264 -0.9691  0.1774 -2.4811
 5561TIP3    H238175   1.979   6.613  16.327 -1.1717  2.3830  2.0725
 5562TIP3   OH238176   2.592   0.313  11.514 -0.0165  0.0043 -0.0264
 5562TIP3    H138177   2.530   0.267  11.457  0.8280 -1.1381 -0.0498
 5562TIP3    H238178   2.560   0.403  11.516 -1.6976 -0.5465 -0.0233
 5563TIP3   OH238179   1.687   0.901  14.573 -0.7315  0.2733 -0.1920
 5563TIP3    H138180   1.745   0.967  14.536 -0.3911  0.4900  0.6968
 5563TIP3    H238181   1.738   0.861  14.644 -1.2036 -0.4221 -0.2340
 5564TIP3   OH238182   5.160   6.102   3.082 -0.1309 -0.0445  0.7215
 5564TIP3    H138183   5.189   6.059   3.002 -0.9063 -0.0548  0.4334
 5564TIP3    H238184   5.106   6.175   3.052 -2.0742 -1.1957  1.1976
 5565TIP3   OH238185   3.049   3.532  14.960  0.6993 -0.5211 -0.0184
 5565TIP3    H138186   3.101   3.452  14.952 -0.4578 -1.1435 -2.7387
 5565TIP3    H238187   2.969   3.504  15.004  0.4500 -0.8194 -0.6436
 5566TIP3   OH238188   4.434   5.040   0.932  0.6423 -0.1315 -0.4260
 5566TIP3    H138189   4.364   5.034   0.866  0.1489  0.3602  0.0400
 5566TIP3    H238190   4.414   4.969   0.993 -0.1090  0.7045  0.3166
 5567TIP3   OH238191   0.742   2.258   4.388  0.1792 -0.0369  0.3324
 5567TIP3    H138192   0.647   2.265   4.397  0.1634  0.5164 -0.1980
 5567TIP3    H238193   0.758   2.165   4.370 -0.2096 -0.2279  0.9355
 5568TIP3   OH238194   1.733   0.675   1.734  0.3290  0.0102 -0.4510
 5568TIP3    H138195   1.644   0.680   1.768 -0.1460  1.7930 -1.7630
 5568TIP3    H238196   1.768   0.763   1.748  2.6965 -1.2071  1.9958
 5569TIP3   OH238197   3.898   5.393  13.505  0.3048  0.4772  0.1921
 5569TIP3    H138198   3.811   5.428  13.522 -1.1878 -2.6193 -0.3602
 5569TIP3    H238199   3.916   5.416  13.413 -0.7720 -0.3594 -0.2542
 5570TIP3   OH238200   4.422   4.921  12.876  0.1830  0.5399 -0.3695
 5570TIP3    H138201   4.358   4.952  12.940  1.1770  0.2179  0.8015
 5570TIP3    H238202   4.504   4.913  12.925  1.5481  2.4023 -2.1575
 5571TIP3   OH238203   6.249   4.879   4.234  0.0520  0.2076  0.4169
 5571TIP3    H138204   6.268   4.794   4.273 -0.7239  0.5549  1.6077
 5571TIP3    H238205   6.332   4.926   4.239 -0.2831  0.6903  2.9057
 5572TIP3   OH238206   1.500   0.468   0.699 -0.6843 -0.1405 -0.1593
 5572TIP3    H138207   1.452   0.542   0.661 -0.2350 -0.2098 -0.8907
 5572TIP3    H238208   1.460   0.455   0.785  1.1045  2.8379  1.3093
 5573TIP3   OH238209   5.167   6.314   3.383 -0.0578  0.0143 -0.0029
 5573TIP3    H138210   5.138   6.290   3.295  0.8315  1.3957 -0.6937
 5573TIP3    H238211   5.249   6.266   3.395 -0.0199  0.0695 -0.0434
 5574TIP3   OH238212   3.120   2.908   1.708  0.4269  0.1714  0.5739
 5574TIP3    H138213   3.081   2.858   1.636  3.7670 -1.7218 -0.1055
 5574TIP3    H238214   3.141   2.993   1.669 -1.0819  0.5179  0.4304
 5575TIP3   OH238215   4.414   5.686   0.242 -0.2429 -0.9152 -0.6111
 5575TIP3    H138216   4.370   5.713   0.323  4.3841  0.2891  1.8189
 5575TIP3    H238217   4.455   5.603   0.264  0.5794 -0.8898 -1.9702
 5576TIP3   OH238218   6.474   3.940   5.664  0.5378 -0.5859  0.1543
 5576TIP3    H138219   6.434   4.004   5.723  0.9684 -0.9355  0.8517
 5576TIP3    H238220   6.407   3.873   5.652  0.1913 -0.1503 -0.3383
 5577TIP3   OH238221   1.215   2.026  14.715 -0.2978  0.5186 -0.0481
 5577TIP3    H138222   1.196   1.939  14.749 -3.6229  1.5795  1.2968
 5577TIP3    H238223   1.302   2.047  14.750 -0.3221 -1.4573  1.3673
 5578TIP3   OH238224   0.702   4.697   3.593 -0.0790  0.0475 -0.0211
 5578TIP3    H138225   0.717   4.603   3.607  0.9140  0.3687  1.2559
 5578TIP3    H238226   0.722   4.737   3.677 -0.4498  1.4209 -0.5653
 5579TIP3   OH238227   6.638   6.795  12.013 -0.6399 -0.0970  0.2420
 5579TIP3    H138228   6.559   6.751  12.046 -0.4770 -0.9705 -0.5110
 5579TIP3    H238229   6.669   6.740  11.942  0.5319  0.3640  0.3698
 5580TIP3   OH238230   5.319   1.635  16.195 -0.0209  0.3006  0.3506
 5580TIP3    H138231   5.302   1.713  16.143  0.6198  0.9170  1.0304
 5580TIP3    H238232   5.413   1.620  16.186 -0.0087  0.0583  0.8361
 5581TIP3   OH238233   6.056   1.867   4.276  0.3474 -0.0098  0.7427
 5581TIP3    H138234   6.092   1.906   4.196 -2.7262 -0.8047 -1.2005
 5581TIP3    H238235   5.990   1.929   4.306 -0.6653 -1.0781  0.8267
 5582TIP3   OH238236   4.997   3.387   3.276 -0.1864 -0.0763  0.0271
 5582TIP3    H138237   4.945   3.312   3.247  0.5688 -0.0018 -1.6554
 5582TIP3    H238238   5.014   3.369   3.368 -0.9938 -1.4006 -0.0446
 5583TIP3   OH238239   1.875   4.864   2.295  0.2785  0.2914  0.3227
 5583TIP3    H138240   1.966   4.852   2.320  0.0634 -1.2735  0.4500
 5583TIP3    H238241   1.875   4.855   2.199 -0.0561 -2.5400  0.4891
 5584TIP3   OH238242   5.649   4.673   1.332 -0.1841  0.0522 -0.1060
 5584TIP3    H138243   5.655   4.741   1.266 -0.7651  0.4000  0.1978
 5584TIP3    H238244   5.696   4.708   1.408 -1.5945  0.6791  0.5113
 5585TIP3   OH238245   0.319   4.356  11.544 -0.3962 -0.1283 -0.4454
 5585TIP3    H138246   0.342   4.435  11.495 -1.7032  0.3546 -0.3198
 5585TIP3    H238247   0.235   4.328  11.507 -0.4475 -0.8616  0.2042
 5586TIP3   OH238248   3.011   3.727   3.597 -0.1776  0.3820 -0.3037
 5586TIP3    H138249   2.986   3.642   3.562 -1.4448  1.3025 -1.7662
 5586TIP3    H238250   3.014   3.785   3.521 -0.0327  1.8030  0.7363
 5587TIP3   OH238251   2.559   0.670  16.441 -0.1099 -0.0145 -0.0107
 5587TIP3    H138252   2.510   0.663  16.359  1.2868  2.8938 -1.2504
 5587TIP3    H238253   2.645   0.633  16.420  0.1956  0.5807  0.1573
 5588TIP3   OH238254   3.351   3.295  12.883 -0.1567  0.4066  0.0354
 5588TIP3    H138255   3.396   3.348  12.817  1.4460 -2.0402 -1.0139
 5588TIP3    H238256   3.413   3.291  12.956 -0.3191  0.1164  0.1586
 5589TIP3   OH238257   5.195   6.735  15.090 -0.3777  0.4446  0.3612
 5589TIP3    H138258   5.102   6.735  15.109 -0.2171  0.6608  1.1569
 5589TIP3    H238259   5.201   6.768  15.000 -1.0088  1.2275  0.5985
 5590TIP3   OH238260   1.226   2.030  15.122  0.3917 -0.4314 -0.0071
 5590TIP3    H138261   1.316   2.041  15.092  0.0646  0.0433 -0.8367
 5590TIP3    H238262   1.181   2.109  15.092  0.3784  0.8946  3.0927
 5591TIP3   OH238263   2.345   3.106  11.580  0.1343 -0.2839  0.1956
 5591TIP3    H138264   2.372   3.018  11.554  2.7507  0.3473  0.5080
 5591TIP3    H238265   2.269   3.125  11.525  0.6587 -1.9974 -1.2203
 5592TIP3   OH238266   6.629   5.959  15.632 -1.0125  0.1291  0.3002
 5592TIP3    H138267   6.674   6.004  15.561  0.2721  0.9887  1.5804
 5592TIP3    H238268   6.697   5.906  15.674 -1.6362 -0.0727  1.0877
 5593TIP3   OH238269   1.652   2.071  10.981 -0.5576  0.1920 -0.1601
 5593TIP3    H138270   1.684   2.025  10.904 -0.5248 -0.4144  0.2126
 5593TIP3    H238271   1.587   2.012  11.020 -1.1342  0.8190 -0.1474
 5594TIP3   OH238272   5.391   0.395  16.511 -0.4192 -0.1731  0.2630
 5594TIP3    H138273   5.319   0.458  16.504 -2.8735 -2.6200  1.3792
 5594TIP3    H238274   5.437   0.419  16.591 -1.2982  0.2454  0.6574
 5595TIP3   OH238275   5.492   4.093  13.228  0.1790 -0.2710  0.1950
 5595TIP3    H138276   5.445   4.056  13.153 -1.2577 -2.6196  2.0974
 5595TIP3    H238277   5.458   4.045  13.304  2.9031  0.6475  2.1717
 5596TIP3   OH238278   6.047   0.860  14.183 -0.9401  0.4351  0.1093
 5596TIP3    H138279   6.072   0.840  14.273 -0.4366 -0.1423 -0.1519
 5596TIP3    H238280   6.066   0.953  14.172  0.7276  0.1138  0.0429
 5597TIP3   OH238281   0.160   4.966   3.904 -0.3390 -0.1432  0.2659
 5597TIP3    H138282   0.179   4.897   3.968 -2.2152 -1.8398 -0.8849
 5597TIP3    H238283   0.069   4.990   3.920 -0.2170  0.8876 -0.4453
 5598TIP3   OH238284   1.893   6.530   5.261 -0.2485  0.9937  0.5896
 5598TIP3    H138285   1.813   6.489   5.291  0.9396 -1.4111  0.6628
 5598TIP3    H238286   1.951   6.529   5.337  1.1585 -0.8949 -0.4124
 5599TIP3   OH238287   3.747   2.702   2.442  0.3912  0.4710  1.3262
 5599TIP3    H138288   3.687   2.674   2.511 -1.2110  0.1865 -0.0998
 5599TIP3    H238289   3.818   2.746   2.487 -0.8510  0.7211  3.1051
 5600TIP3   OH238290   0.044   0.518   4.073  0.0149  0.3960  0.0106
 5600TIP3    H138291   0.077   0.431   4.096  1.1503  0.8783  0.2789
 5600TIP3    H238292  -0.019   0.538   4.141 -0.7353 -0.4680 -0.4031
 5601TIP3   OH238293   3.936   0.023  10.583 -0.5090 -0.1665  0.5730
 5601TIP3    H138294   3.882   0.099  10.563 -0.6782 -0.2894  0.5582
 5601TIP3    H238295   3.924  -0.036  10.508 -0.8949 -0.4893  0.8859
 5602TIP3   OH238296   0.411   4.186  16.528 -0.4044 -0.4579  0.2203
 5602TIP3    H138297   0.476   4.249  16.498 -0.7982 -0.1381  0.0329
 5602TIP3    H238298   0.344   4.186  16.459 -0.2650 -1.3042  0.0643
 5603TIP3   OH238299   4.544   4.484   2.794  0.0123  0.7863 -0.1192
 5603TIP3    H138300   4.456   4.457   2.767 -0.6092  2.5697 -0.0576
 5603TIP3    H238301   4.558   4.439   2.877 -0.8169  0.4188 -0.1662
 5604TIP3   OH238302   4.883   0.358  13.467  0.9829  0.2024  0.0263
 5604TIP3    H138303   4.839   0.301  13.529  0.3235 -1.0685 -1.5327
 5604TIP3    H238304   4.846   0.334  13.382  1.4792  2.2212 -0.8194
 5605TIP3   OH238305   3.408   4.265   4.078 -0.0918  0.5685  0.2232
 5605TIP3    H138306   3.459   4.198   4.032 -0.0032  1.2628 -0.7149
 5605TIP3    H238307   3.321   4.261   4.037 -1.1592 -1.2776  2.4593
 5606TIP3   OH238308   6.562   4.314  14.762 -0.0968  0.1437  0.1334
 5606TIP3    H138309   6.572   4.341  14.671 -1.5260 -0.2592 -0.1542
 5606TIP3    H238310   6.573   4.395  14.812  0.8685  0.3351 -0.3696
 5607TIP3   OH238311   4.515   1.042   2.281  0.0294  0.4042  0.1490
 5607TIP3    H138312   4.467   1.059   2.362 -0.1326  0.7007 -0.0057
 5607TIP3    H238313   4.499   1.120   2.227 -0.3573 -0.0522 -0.4049
 5608TIP3   OH238314   5.537   0.198   4.604 -0.3025  0.3771  0.3444
 5608TIP3    H138315   5.512   0.107   4.621  0.0508  0.4258  1.1767
 5608TIP3    H238316   5.530   0.207   4.509  1.0024 -0.9195  0.0844
 5609TIP3   OH238317   5.743   4.713   0.434  0.2462  0.5001 -0.0572
 5609TIP3    H138318   5.819   4.757   0.398  0.6167  0.0263  0.1316
 5609TIP3    H238319   5.681   4.708   0.361  0.6288  0.3689 -0.3769
 5610TIP3   OH238320   5.007   0.532  16.176 -0.2731 -0.0439  0.3828
 5610TIP3    H138321   5.041   0.595  16.112 -1.5618  0.4602  0.1574
 5610TIP3    H238322   5.011   0.448  16.131  0.8537 -0.0377  0.4453
 5611TIP3   OH238323   1.379   4.295  15.178  0.0055 -0.2201  0.2049
 5611TIP3    H138324   1.347   4.310  15.089  1.9342 -0.8002 -0.6388
 5611TIP3    H238325   1.324   4.224  15.212 -0.6977 -0.0435 -0.5237
 5612TIP3   OH238326   0.894   6.822   4.350  0.3232  0.3364 -0.3761
 5612TIP3    H138327   0.901   6.887   4.420  2.5212 -1.8402  1.6503
 5612TIP3    H238328   0.806   6.833   4.316  0.7975  4.8177 -0.7471
 5613TIP3   OH238329   5.803   4.019  14.109 -0.4167  0.2323 -0.0269
 5613TIP3    H138330   5.810   4.113  14.120  1.1190  0.1432 -0.0028
 5613TIP3    H238331   5.764   3.988  14.191  1.7216  0.5894  1.1931
 5614TIP3   OH238332   5.429   0.647   5.153 -0.4551  0.1601  0.3017
 5614TIP3    H138333   5.397   0.645   5.063  0.2578  1.9711 -0.0195
 5614TIP3    H238334   5.404   0.733   5.186  1.9018  0.7208  0.8167
 5615TIP3   OH238335   3.883   0.196   2.553 -0.0221  0.6029 -0.1024
 5615TIP3    H138336   3.884   0.286   2.584 -0.3724  0.6986 -0.3645
 5615TIP3    H238337   3.976   0.174   2.541  0.0507  1.0547 -0.3985
 5616TIP3   OH238338   4.829   3.883  14.883  0.5514 -0.1867 -0.0193
 5616TIP3    H138339   4.884   3.945  14.930  0.4295 -1.2122  1.5485
 5616TIP3    H238340   4.773   3.937  14.827  0.1658  1.1385  1.5989
 5617TIP3   OH238341   5.113   0.281   2.958 -0.1334  0.7540  0.2002
 5617TIP3    H138342   5.049   0.295   3.029 -0.0950 -1.0938  0.6561
 5617TIP3    H238343   5.073   0.214   2.903  0.6207  0.9063 -0.5538
 5618TIP3   OH238344   2.783   5.256   4.915  0.9063 -0.4136  0.0200
 5618TIP3    H138345   2.857   5.316   4.903  0.4120 -0.1855 -2.2296
 5618TIP3    H238346   2.729   5.267   4.836 -0.4222 -2.1307  0.6186
 5619TIP3   OH238347   6.437   3.702  16.781 -0.1095 -0.6462 -0.4216
 5619TIP3    H138348   6.481   3.786  16.775 -0.0294 -0.6157  0.4093
 5619TIP3    H238349   6.507   3.637  16.781 -0.1149 -0.6547 -0.1133
 5620TIP3   OH238350   5.546   0.843   4.306  0.0104 -0.2274  0.0315
 5620TIP3    H138351   5.534   0.831   4.400  0.6835 -0.3005  0.1123
 5620TIP3    H238352   5.632   0.805   4.288  0.0026  0.0336 -0.5669
 5621TIP3   OH238353   3.583   6.365  12.134  0.2955  0.0526  0.2225
 5621TIP3    H138354   3.586   6.453  12.170 -1.7837  0.3405 -0.1515
 5621TIP3    H238355   3.650   6.316  12.182 -1.0131  0.8873  3.1425
 5622TIP3   OH238356   2.523   1.815  15.162  0.0921 -0.3260 -0.1042
 5622TIP3    H138357   2.534   1.745  15.226 -2.9381 -1.5911 -0.8107
 5622TIP3    H238358   2.600   1.809  15.107  1.3015 -1.1854  1.5758
 5623TIP3   OH238359   2.104   5.979  12.886 -0.7952  1.0553  0.1380
 5623TIP3    H138360   2.026   5.925  12.881  0.9922 -2.0251  2.2536
 5623TIP3    H238361   2.143   5.973  12.799 -0.9058 -0.7635  0.1830
 5624TIP3   OH238362   1.656   0.837  11.982  0.4052  0.6464 -0.2376
 5624TIP3    H138363   1.727   0.835  11.918  0.0078  2.8246 -0.8291
 5624TIP3    H238364   1.690   0.892  12.053 -0.6258  1.6656 -0.5036
 5625TIP3   OH238365   5.713   2.576  11.272 -0.0349  0.4033 -0.4096
 5625TIP3    H138366   5.736   2.610  11.358  2.6626  0.4275 -1.0387
 5625TIP3    H238367   5.760   2.633  11.211 -1.7838  0.3102 -1.9036
 5626TIP3   OH238368   4.393   2.398  13.690 -0.2398  0.0224 -0.8359
 5626TIP3    H138369   4.362   2.467  13.632  0.5601  0.7162 -0.4641
 5626TIP3    H238370   4.415   2.325  13.632  1.6518  1.1077 -1.5591
 5627TIP3   OH238371   3.439   5.814   0.194  0.0376 -0.0083  0.6176
 5627TIP3    H138372   3.348   5.823   0.165 -0.4870 -0.4755  2.0244
 5627TIP3    H238373   3.491   5.840   0.118 -1.2632  2.2964  0.4187
 5628TIP3   OH238374   0.556   3.055   2.854 -0.1433 -0.0636 -0.3095
 5628TIP3    H138375   0.648   3.078   2.841 -0.3947  0.7621 -0.7084
 5628TIP3    H238376   0.531   3.009   2.774  0.0564 -0.7643  0.0214
 5629TIP3   OH238377   0.005   4.688  13.167 -0.1666 -0.0751  0.2983
 5629TIP3    H138378   0.090   4.718  13.199  0.3689 -0.6721 -0.5371
 5629TIP3    H238379  -0.054   4.761  13.185  1.0176  1.3881 -1.3387
 5630TIP3   OH238380   2.973   3.453   3.530 -0.2956  0.9303 -0.2267
 5630TIP3    H138381   2.931   3.467   3.616 -0.2941  2.3338 -0.4383
 5630TIP3    H238382   2.902   3.421   3.474 -0.0027 -1.4457  0.6077
 5631TIP3   OH238383   2.975   3.665  14.645 -0.0625 -0.2176  0.0536
 5631TIP3    H138384   2.976   3.577  14.684  0.2239 -1.2058 -2.0660
 5631TIP3    H238385   3.062   3.700  14.664 -0.1290 -0.4250  0.8008
 5632TIP3   OH238386   2.485   2.670   3.287  0.2388  0.0113  0.0260
 5632TIP3    H138387   2.424   2.596   3.283  1.4598 -1.2176  2.3425
 5632TIP3    H238388   2.435   2.741   3.327 -0.3250 -0.2162 -0.2600
 5633TIP3   OH238389   2.202   2.595   5.766 -0.5834 -0.2192 -0.0347
 5633TIP3    H138390   2.225   2.505   5.787 -0.9854 -0.6092 -1.1612
 5633TIP3    H238391   2.265   2.621   5.698 -2.0376 -0.5454 -1.5537
 5634TIP3   OH238392   1.998   5.642   1.534  0.1302 -0.2779  0.5031
 5634TIP3    H138393   1.946   5.563   1.550  0.4436 -0.3294  1.2604
 5634TIP3    H238394   2.025   5.671   1.620 -0.1252  0.7624  0.2426
 5635TIP3   OH238395   2.527   6.158   5.086 -0.0047 -0.0512 -0.1024
 5635TIP3    H138396   2.536   6.105   5.164 -0.5899 -1.3782 -0.9026
 5635TIP3    H238397   2.435   6.150   5.061 -0.2387  1.7557  0.0137
 5636TIP3   OH238398   4.823   6.662  11.795 -0.2039 -0.5210 -0.0500
 5636TIP3    H138399   4.786   6.590  11.845  0.2889 -1.5099 -1.0516
 5636TIP3    H238400   4.748   6.703  11.753 -0.5841  0.1377  1.2511
 5637TIP3   OH238401   6.386   4.276  13.089  0.4460 -0.0240 -0.1063
 5637TIP3    H138402   6.468   4.253  13.133 -0.2413 -0.9188  0.7471
 5637TIP3    H238403   6.318   4.253  13.152 -0.4169  2.3940 -0.0650
 5638TIP3   OH238404   0.859   5.192  11.988 -0.0497 -1.0684  0.3493
 5638TIP3    H138405   0.784   5.251  11.985 -0.0747 -1.1375 -1.0758
 5638TIP3    H238406   0.822   5.105  11.975  0.3354 -1.0277 -1.1239
 5639TIP3   OH238407   2.160   2.949   2.069  0.1317 -0.2474  0.1555
 5639TIP3    H138408   2.120   2.892   2.134 -0.0376  0.2043  0.4460
 5639TIP3    H238409   2.227   2.998   2.116 -3.2040  3.7859  1.3075
 5640TIP3   OH238410   4.981   4.287  10.909  0.7692 -0.5623  0.3925
 5640TIP3    H138411   5.058   4.285  10.853  1.1788  0.7913  0.8585
 5640TIP3    H238412   4.910   4.254  10.854  1.3241 -0.0611 -0.6512
 5641TIP3   OH238413   0.852   1.576   5.366 -0.0307  0.3641  0.2679
 5641TIP3    H138414   0.836   1.645   5.430 -2.1627 -0.2131  0.4533
 5641TIP3    H238415   0.880   1.501   5.418  1.3539  0.7869  0.1629
 5642TIP3   OH238416   0.542   0.828  12.514  0.4668 -0.1317 -0.0117
 5642TIP3    H138417   0.628   0.856  12.484 -0.6125  2.9310 -0.6598
 5642TIP3    H238418   0.522   0.750  12.463  2.2503 -0.0374 -0.9136
 5643TIP3   OH238419   2.424   3.649   5.899 -0.0937 -0.3323  0.1952
 5643TIP3    H138420   2.447   3.570   5.947 -2.1672 -0.2748  1.3798
 5643TIP3    H238421   2.421   3.718   5.965  1.9798  0.8941 -0.8555
 5644TIP3   OH238422   4.129   2.140   5.486  0.0052 -0.5732  0.2129
 5644TIP3    H138423   4.205   2.155   5.541  0.1067 -0.2659 -0.0116
 5644TIP3    H238424   4.164   2.106   5.404 -0.0861 -0.2657  0.0455
 5645TIP3   OH238425   4.193   2.624   4.878 -0.5478 -0.5121 -0.3647
 5645TIP3    H138426   4.216   2.662   4.963  0.2452 -1.8124  0.0390
 5645TIP3    H238427   4.221   2.688   4.814 -0.4168  0.1359  0.3238
 5646TIP3   OH238428   2.450   4.633  14.411 -0.1933 -0.2195 -0.1264
 5646TIP3    H138429   2.510   4.566  14.377 -1.7030 -1.0116 -1.3981
 5646TIP3    H238430   2.487   4.716  14.381  1.3899 -0.4836  0.9589
 5647TIP3   OH238431   1.277   4.052   3.426  0.1597 -0.0011  0.0750
 5647TIP3    H138432   1.311   4.140   3.406  0.2113  0.3987  1.7564
 5647TIP3    H238433   1.343   4.014   3.484  0.2502 -1.2605 -0.8271
 5648TIP3   OH238434   0.510   3.230   5.353  0.0858 -0.2464 -0.3165
 5648TIP3    H138435   0.429   3.279   5.344 -1.6781 -2.5376  1.7275
 5648TIP3    H238436   0.551   3.264   5.433 -0.5971 -1.2709  0.5004
 5649TIP3   OH238437   5.525   2.794  14.797 -0.5743 -0.0948  0.1210
 5649TIP3    H138438   5.524   2.708  14.754  1.0322 -0.5217  0.8760
 5649TIP3    H238439   5.475   2.850  14.738 -1.1199 -1.3918 -0.7082
 5650TIP3   OH238440   6.102   4.561  14.954  0.6129  0.4426 -0.8632
 5650TIP3    H138441   6.156   4.493  14.994 -3.0401 -1.4920  1.3616
 5650TIP3    H238442   6.086   4.529  14.865  3.8086  1.6428 -1.9944
 5651TIP3   OH238443   2.509   6.049  13.782  0.3060  0.2472 -0.4411
 5651TIP3    H138444   2.602   6.065  13.798  0.0275  1.9040 -0.3857
 5651TIP3    H238445   2.496   6.078  13.692 -0.2375  0.3513 -0.3282
 5652TIP3   OH238446   2.403   5.253  14.951 -0.5493  0.4761  0.1249
 5652TIP3    H138447   2.321   5.212  14.976 -1.2730  0.9817 -1.2902
 5652TIP3    H238448   2.422   5.216  14.864 -0.0399  1.4433 -0.1839
 5653TIP3   OH238449   4.040   1.327  16.004 -0.5435 -0.5760 -0.1696
 5653TIP3    H138450   4.104   1.283  15.946 -0.7807  0.7110 -1.4637
 5653TIP3    H238451   4.083   1.328  16.090  1.2132  0.2358 -0.9950
 5654TIP3   OH238452   2.919   3.852   1.333 -0.1682  0.1887  0.1492
 5654TIP3    H138453   2.841   3.797   1.330 -0.7192  0.9629 -0.4493
 5654TIP3    H238454   2.972   3.817   1.404 -0.5404 -1.0429 -0.1631
 5655TIP3   OH238455   0.156   6.738   3.818 -0.8472 -0.4279  0.0296
 5655TIP3    H138456   0.088   6.806   3.816  0.1328  0.5781 -0.2863
 5655TIP3    H238457   0.224   6.775   3.874 -0.3684 -1.2350 -0.0123
 5656TIP3   OH238458   5.666   3.925   5.302  0.1920  0.4531  0.5397
 5656TIP3    H138459   5.739   3.870   5.272  0.9324  1.0488  1.2234
 5656TIP3    H238460   5.593   3.902   5.243  1.4777  1.3098 -1.4826
 5657TIP3   OH238461   1.763   1.477   6.070 -0.2045 -0.3064 -0.2568
 5657TIP3    H138462   1.803   1.443   6.150 -0.8642 -0.2080  0.1191
 5657TIP3    H238463   1.712   1.553   6.099 -1.5912 -1.1011 -0.5417
 5658TIP3   OH238464   3.975   0.844   0.971 -0.0344 -0.0982  0.0431
 5658TIP3    H138465   4.042   0.846   0.903  1.4513 -0.5228  1.4422
 5658TIP3    H238466   3.938   0.756   0.966  2.3982 -1.3360  1.8698
 5659TIP3   OH238467   6.190   4.318  17.095 -0.2204 -0.3801  1.1101
 5659TIP3    H138468   6.179   4.375  17.171 -0.3270  1.8002 -0.4376
 5659TIP3    H238469   6.284   4.317  17.080 -0.1455 -1.2716  1.5620
 5660TIP3   OH238470   6.763   4.714   6.024 -0.5535 -0.5244 -0.2632
 5660TIP3    H138471   6.702   4.721   6.097 -0.4946 -0.5574 -0.2103
 5660TIP3    H238472   6.849   4.730   6.063 -0.4815 -0.9141 -0.2544
 5661TIP3   OH238473   4.344   1.872   2.337  0.2811 -0.7675  0.2111
 5661TIP3    H138474   4.272   1.934   2.328  0.3314 -0.5169  1.3726
 5661TIP3    H238475   4.340   1.819   2.258  0.4415  0.9313 -1.0020
 5662TIP3   OH238476   1.650   4.977  12.845 -0.1532 -0.3819  0.2564
 5662TIP3    H138477   1.659   5.001  12.937  1.7680  0.7368 -0.1811
 5662TIP3    H238478   1.581   5.034  12.812 -0.6585 -0.5952  0.9076
 5663TIP3   OH238479   3.834   6.678   0.168  0.4403 -0.0649 -0.5305
 5663TIP3    H138480   3.864   6.652   0.255 -0.8226 -0.1305 -0.0865
 5663TIP3    H238481   3.862   6.769   0.159 -0.7515  0.4553  0.6085
 5664TIP3   OH238482   5.742   3.070   5.501  0.2740  0.9681 -0.6274
 5664TIP3    H138483   5.665   3.090   5.449 -1.6203  0.0786  1.6764
 5664TIP3    H238484   5.723   3.107   5.587  2.5511  0.9494 -0.0566
 5665TIP3   OH238485   3.394   3.917  13.674  0.0059 -0.5815  0.2183
 5665TIP3    H138486   3.318   3.862  13.654 -3.6412  3.3971  1.4537
 5665TIP3    H238487   3.406   3.907  13.768 -0.1410  0.0571  0.3079
 5666TIP3   OH238488   0.303   2.223   0.688 -0.1674 -0.5814  0.0607
 5666TIP3    H138489   0.237   2.264   0.633 -1.9550  0.3942  2.7068
 5666TIP3    H238490   0.387   2.245   0.647 -1.3632  0.6006 -1.8556
 5667TIP3   OH238491   2.321   4.202   1.922  0.0358  0.7284  0.4621
 5667TIP3    H138492   2.361   4.175   1.839  0.1543 -0.8022  0.9988
 5667TIP3    H238493   2.309   4.121   1.971 -0.7219  1.5297  1.6535
 5668TIP3   OH238494   3.695   0.010  14.995 -0.6510  0.8105  1.0631
 5668TIP3    H138495   3.608  -0.016  15.024 -0.2620 -0.7612  0.9163
 5668TIP3    H238496   3.701  -0.020  14.905  0.2426  0.3390  1.2603
 5669TIP3   OH238497   5.998   3.110   3.237  0.0928 -0.2997  0.4740
 5669TIP3    H138498   6.087   3.143   3.224  1.4935 -2.9252  2.4459
 5669TIP3    H238499   5.980   3.059   3.158 -0.6679  1.9857 -0.9457
 5670TIP3   OH238500   5.445   6.601  11.539 -0.0175  0.2146 -0.3457
 5670TIP3    H138501   5.385   6.642  11.602  0.6142  1.2599 -0.4029
 5670TIP3    H238502   5.389   6.543  11.487 -1.1892  1.8283 -0.9813
 5671TIP3   OH238503   4.883   2.321   2.047  0.5128 -0.1520  0.3072
 5671TIP3    H138504   4.867   2.331   2.141  2.3497 -0.2742  0.6534
 5671TIP3    H238505   4.832   2.391   2.006 -0.4347 -0.1960  1.3544
 5672TIP3   OH238506   4.618   3.910   4.875 -0.4042 -0.0554  0.5483
 5672TIP3    H138507   4.556   3.976   4.905 -0.6982  0.5731 -1.3059
 5672TIP3    H238508   4.703   3.940   4.908 -0.5332  1.2928 -0.2527
 5673TIP3   OH238509   3.478   2.782   5.919 -0.0999  0.1442 -0.4747
 5673TIP3    H138510   3.571   2.802   5.928 -0.3367  0.6902  1.0429
 5673TIP3    H238511   3.467   2.696   5.958 -0.4503  0.7219  0.7667
 5674TIP3   OH238512   3.834   2.009  10.449 -0.4627 -0.2696  0.6042
 5674TIP3    H138513   3.787   1.934  10.486 -0.3512 -0.5053  0.2670
 5674TIP3    H238514   3.926   1.984  10.453 -0.5557 -1.1139 -1.6185
 5675TIP3   OH238515   6.532   5.381   0.911  0.2730  0.2003  0.2712
 5675TIP3    H138516   6.580   5.404   0.990 -0.3763  2.0529  0.1847
 5675TIP3    H238517   6.598   5.382   0.841  0.5265  0.3235  0.5129
 5676TIP3   OH238518   6.270   6.803  13.437  0.4592 -0.1582 -0.0717
 5676TIP3    H138519   6.328   6.740  13.395  1.3692 -1.5590  2.9990
 5676TIP3    H238520   6.328   6.858  13.491 -0.7027  0.9143  0.1514
 5677TIP3   OH238521   4.844   5.500  14.908 -0.5322 -0.1511  0.4230
 5677TIP3    H138522   4.775   5.551  14.865 -0.3192 -1.9994 -2.3937
 5677TIP3    H238523   4.800   5.458  14.982 -1.8795  0.3808 -0.0375
 5678TIP3   OH238524   2.841   0.811   4.496 -0.0518 -0.0255  0.4188
 5678TIP3    H138525   2.792   0.838   4.574  0.7096  0.9247  0.5871
 5678TIP3    H238526   2.903   0.745   4.529  0.2711  0.3777  0.6316
 5679TIP3   OH238527   1.052   3.749  12.512 -0.2405  0.1002 -0.4977
 5679TIP3    H138528   1.060   3.667  12.462 -0.6139  0.5810 -1.3640
 5679TIP3    H238529   0.968   3.786  12.485 -0.1197  0.7309 -0.0409
 5680TIP3   OH238530   6.666   2.772  17.110 -0.3190 -0.0685 -0.3877
 5680TIP3    H138531   6.590   2.802  17.061 -1.6258 -1.9718  0.3402
 5680TIP3    H238532   6.677   2.680  17.083  2.5223  0.4627 -1.4025
 5681TIP3   OH238533   5.741   3.372   2.999  0.1704 -0.0521 -0.2217
 5681TIP3    H138534   5.836   3.362   3.005  0.1936 -1.0579 -1.7628
 5681TIP3    H238535   5.723   3.457   3.039  1.7768  0.3779 -0.3641
 5682TIP3   OH238536   2.891   1.247  14.860 -0.1115  0.0833  0.0567
 5682TIP3    H138537   2.970   1.244  14.913  0.5705  0.5936 -0.9029
 5682TIP3    H238538   2.865   1.340  14.861 -0.5115 -0.0282  0.1091
 5683TIP3   OH238539   2.032   3.156  14.027 -0.3853 -0.1792 -0.2075
 5683TIP3    H138540   2.058   3.248  14.018 -0.8597 -0.1284 -1.1559
 5683TIP3    H238541   2.114   3.111  14.050  0.1349  0.2807 -1.0904
 5684TIP3   OH238542   6.076   5.779  16.565  0.0168 -0.0353  0.0777
 5684TIP3    H138543   6.046   5.688  16.576  1.8345 -0.6364  0.4183
 5684TIP3    H238544   6.154   5.785  16.620  0.0969  1.6625 -0.1889
 5685TIP3   OH238545   3.615   5.752  16.467  0.4522 -0.0498 -0.5147
 5685TIP3    H138546   3.663   5.831  16.493  0.8660 -0.3541 -0.3505
 5685TIP3    H238547   3.613   5.698  16.546  0.2195 -0.2329 -0.6443
 5686TIP3   OH238548   5.850   4.832  13.824 -0.3555  0.1570 -0.1104
 5686TIP3    H138549   5.915   4.875  13.768  0.2062 -1.4863 -0.7723
 5686TIP3    H238550   5.766   4.852  13.782 -0.5394  3.5249  1.5463
 5687TIP3   OH238551   5.510   5.685   3.488  0.8639  0.4878  0.2375
 5687TIP3    H138552   5.583   5.741   3.515  0.9355  0.3542  0.3284
 5687TIP3    H238553   5.488   5.636   3.567  0.1783  1.0627  0.4039
 5688TIP3   OH238554   4.669   1.528  17.108  0.2225 -0.3080 -0.5815
 5688TIP3    H138555   4.762   1.549  17.118  0.0665  0.1089  0.0165
 5688TIP3    H238556   4.645   1.567  17.024  0.3072  0.5750 -0.2001
 5689TIP3   OH238557   1.770   0.890  16.842 -0.1765  0.1483 -0.8725
 5689TIP3    H138558   1.701   0.826  16.861 -1.6070  1.9155  0.2102
 5689TIP3    H238559   1.777   0.890  16.746 -0.9313 -0.8207 -0.9447
 5690TIP3   OH238560   0.921   0.416   0.292 -0.4883 -0.7007 -0.0116
 5690TIP3    H138561   0.997   0.359   0.295  0.1808  0.0382 -1.7149
 5690TIP3    H238562   0.946   0.494   0.342  0.0448 -0.2931 -0.8946
 5691TIP3   OH238563   2.100   1.620  13.185  0.1463 -0.5269 -0.2861
 5691TIP3    H138564   2.089   1.609  13.091  0.6143  0.9928 -0.5526
 5691TIP3    H238565   2.070   1.537  13.223  0.3640 -1.3267 -1.7852
 5692TIP3   OH238566   4.854   4.225   6.729  0.1953  0.2910 -0.5351
 5692TIP3    H138567   4.856   4.244   6.636 -0.1712 -1.5017 -0.9420
 5692TIP3    H238568   4.933   4.268   6.764  0.3690  0.9211 -1.6600
 5693TIP3   OH238569   5.687   2.241  11.392 -0.0553 -0.5107 -0.3225
 5693TIP3    H138570   5.616   2.286  11.438 -0.1512 -0.3302 -0.6388
 5693TIP3    H238571   5.686   2.280  11.304  0.1240 -0.8470 -0.4733
 5694TIP3   OH238572   0.929   1.119   1.705  0.5972  0.5609  0.1336
 5694TIP3    H138573   0.915   1.170   1.785 -0.6863  1.9104 -0.8922
 5694TIP3    H238574   0.842   1.088   1.680  1.0429 -0.2565 -0.4965
 5695TIP3   OH238575   4.887   5.061   4.647  0.5766  0.3714 -0.4784
 5695TIP3    H138576   4.924   5.113   4.718  1.9281 -0.5889 -0.4373
 5695TIP3    H238577   4.911   5.108   4.567  0.1801  0.7739 -0.3619
 5696TIP3   OH238578   5.840   2.743   0.078  0.3312  0.5530 -0.3730
 5696TIP3    H138579   5.936   2.748   0.079  0.4028 -0.6119 -0.4823
 5696TIP3    H238580   5.816   2.731   0.170  0.2413  1.3509 -0.2797
 5697TIP3   OH238581   0.957   3.757  13.229  0.4600 -0.0103  0.1970
 5697TIP3    H138582   0.914   3.820  13.171 -1.4835 -1.4711 -0.0776
 5697TIP3    H238583   1.025   3.717  13.174 -0.4396 -0.3958 -0.6844
 5698TIP3   OH238584   6.440   4.480   1.506 -0.3125  0.9440  0.1029
 5698TIP3    H138585   6.344   4.478   1.517 -0.2330 -1.5102  0.9094
 5698TIP3    H238586   6.473   4.432   1.582  1.5114  0.8039 -0.7453
 5699TIP3   OH238587   5.947   1.853  12.731 -0.0400  0.3352  0.2405
 5699TIP3    H138588   5.902   1.846  12.815 -0.0889 -1.8706  0.0805
 5699TIP3    H238589   5.883   1.822  12.666  0.9493 -0.8079 -0.2360
 5700TIP3   OH238590   5.610   1.982   0.415 -0.8847  0.2078  0.7553
 5700TIP3    H138591   5.672   2.052   0.396 -0.5521  0.2949  2.0932
 5700TIP3    H238592   5.655   1.925   0.477 -1.1993 -1.1474 -0.2015
 5701TIP3   OH238593   5.104   3.833  12.507  0.4412  0.2103  0.5774
 5701TIP3    H138594   5.026   3.788  12.477 -0.1508  1.1713  0.6322
 5701TIP3    H238595   5.139   3.777  12.577  0.0711 -0.4567  0.2348
 5702TIP3   OH238596   0.549   5.221  14.883  0.3635  0.3557 -0.6062
 5702TIP3    H138597   0.466   5.220  14.931  1.3171 -1.3922  1.1159
 5702TIP3    H238598   0.614   5.249  14.947  1.4300 -0.4162 -1.3275
 5703TIP3   OH238599   1.853   3.873  16.808 -0.0428 -0.0054 -0.1103
 5703TIP3    H138600   1.803   3.882  16.889  0.1974  0.9204 -0.0476
 5703TIP3    H238601   1.829   3.787  16.774 -0.4358 -0.2439  0.7464
 5704TIP3   OH238602   3.571   0.123   0.051 -0.2090  0.3119 -0.6291
 5704TIP3    H138603   3.538   0.041   0.016 -1.3187  1.0180 -1.3132
 5704TIP3    H238604   3.494   0.165   0.090  0.8567 -0.1591  2.1572
 5705TIP3   OH238605   2.143   0.492  17.061 -0.0804  0.2877 -0.2503
 5705TIP3    H138606   2.107   0.537  16.984 -3.4532  0.7300  1.3789
 5705TIP3    H238607   2.105   0.404  17.057  0.4190  0.0281  0.4727
 5706TIP3   OH238608   1.854   5.362  13.184  0.2922  0.0864  0.3336
 5706TIP3    H138609   1.848   5.377  13.090 -1.9955 -3.0719 -0.2126
 5706TIP3    H238610   1.858   5.449  13.223 -1.7127  1.6226 -2.5616
 5707TIP3   OH238611   0.110   4.217  14.511 -0.0289 -0.1253  0.3249
 5707TIP3    H138612   0.119   4.125  14.534 -1.8160  0.5032  4.5072
 5707TIP3    H238613   0.018   4.227  14.486  0.7616  0.1787 -2.8458
 5708TIP3   OH238614   6.730   1.402   1.061  0.1548  0.1598  0.1598
 5708TIP3    H138615   6.694   1.314   1.051 -0.4029  0.0287  2.6880
 5708TIP3    H238616   6.815   1.388   1.102 -0.2998  0.7747  1.3784
 5709TIP3   OH238617   3.044   2.440  10.803  0.1331 -0.0701 -0.0606
 5709TIP3    H138618   2.968   2.498  10.795  1.6355  2.4391  2.0475
 5709TIP3    H238619   3.007   2.352  10.810 -2.3290  0.6325 -2.4761
 5710TIP3   OH238620   6.523   3.833   2.961  0.7941  0.0990  0.1691
 5710TIP3    H138621   6.618   3.843   2.961  1.0427 -1.7062  0.7972
 5710TIP3    H238622   6.500   3.815   2.870  1.2554 -0.7594  0.2107
 5711TIP3   OH238623   1.527   2.848  16.829  0.0188 -0.1551 -0.2057
 5711TIP3    H138624   1.532   2.802  16.912  0.8766  0.4406  0.0838
 5711TIP3    H238625   1.435   2.873  16.821 -0.1331 -0.5094  0.4015
 5712TIP3   OH238626   3.611   3.090  13.110 -0.0836  0.2271 -0.3319
 5712TIP3    H138627   3.586   3.016  13.054 -0.4638 -1.0841  1.4824
 5712TIP3    H238628   3.702   3.071  13.134 -0.4538 -0.1364  0.8347
 5713TIP3   OH238629   5.860   2.338   3.472  0.0291  0.1090  0.2484
 5713TIP3    H138630   5.815   2.352   3.555 -1.1955 -0.2969 -0.3152
 5713TIP3    H238631   5.854   2.422   3.427  1.2424  0.5119  0.8045
 5714TIP3   OH238632   4.000   6.558   3.777 -0.7140 -0.1210 -0.1315
 5714TIP3    H138633   3.969   6.647   3.758  0.3467  0.6299  1.5053
 5714TIP3    H238634   4.093   6.559   3.757 -0.1201 -0.0584  2.3724
 5715TIP3   OH238635   4.594   2.255   2.587 -0.2515  0.1494 -0.1724
 5715TIP3    H138636   4.597   2.242   2.493 -1.3518  1.9733 -0.5186
 5715TIP3    H238637   4.531   2.190   2.619 -0.5154  0.0783 -0.8287
 5716TIP3   OH238638   2.577   1.115  16.920  0.2250 -0.4362 -0.1894
 5716TIP3    H138639   2.559   1.127  16.827 -2.0331 -0.7742  0.1348
 5716TIP3    H238640   2.617   1.028  16.926  1.4661  0.0643 -0.9276
 5717TIP3   OH238641   3.817   1.556   4.903  0.3588  0.0671 -0.0528
 5717TIP3    H138642   3.844   1.528   4.815  0.4849  0.7924 -0.2557
 5717TIP3    H238643   3.892   1.537   4.959  0.1019 -0.8433 -0.0000
 5718TIP3   OH238644   5.191   3.986  13.180  0.1753 -0.2161 -0.2593
 5718TIP3    H138645   5.245   3.952  13.108  0.7207  0.8113 -0.3464
 5718TIP3    H238646   5.207   3.926  13.253  0.3014 -0.7519 -0.7232
 5719TIP3   OH238647   3.966   2.824  12.426 -0.3944 -0.1190  0.1635
 5719TIP3    H138648   3.967   2.919  12.434  1.9605 -0.0496 -0.1168
 5719TIP3    H238649   3.881   2.803  12.388 -1.1395  1.8186  0.6732
 5720TIP3   OH238650   3.328   5.553   2.728 -0.3765 -0.0897 -0.0667
 5720TIP3    H138651   3.326   5.606   2.648  1.2259 -0.3200 -0.2945
 5720TIP3    H238652   3.351   5.465   2.698  1.2917  0.0422  0.7250
 5721TIP3   OH238653   2.169   5.163   5.295 -0.2364 -0.8795 -0.0078
 5721TIP3    H138654   2.074   5.167   5.300 -0.2181 -0.9138  0.3957
 5721TIP3    H238655   2.194   5.236   5.239 -0.3767  0.2873  1.3824
 5722TIP3   OH238656   1.025   4.052   5.547 -0.4464 -0.1827  0.3821
 5722TIP3    H138657   1.014   4.147   5.558 -1.0071 -0.3199  1.0799
 5722TIP3    H238658   0.989   4.034   5.460 -0.0553  0.2849  0.1158
 5723TIP3   OH238659   6.836   3.590   6.427  0.2838  0.4090 -0.1392
 5723TIP3    H138660   6.812   3.498   6.419  2.0349 -0.0061 -1.0315
 5723TIP3    H238661   6.802   3.616   6.513 -0.3583 -1.0152  0.0656
 5724TIP3   OH238662   1.741   0.932  15.477 -0.2691  0.2280  0.1892
 5724TIP3    H138663   1.651   0.935  15.509 -0.3713  2.0760 -0.1611
 5724TIP3    H238664   1.734   0.943  15.382  0.2961  0.0241  0.1160
 5725TIP3   OH238665   0.764   1.598   2.720 -0.6964  0.2814  0.4388
 5725TIP3    H138666   0.765   1.505   2.698 -0.0942  0.4772 -0.4208
 5725TIP3    H238667   0.712   1.603   2.800  0.0354 -0.9071  1.0195
 5726TIP3   OH238668   6.433   3.207  12.353  0.0951 -0.1673 -0.0723
 5726TIP3    H138669   6.385   3.169  12.279 -1.2343 -1.4418  1.3630
 5726TIP3    H238670   6.486   3.276  12.314 -2.5266  0.9946 -1.8746
 5727TIP3   OH238671   0.702   4.438  15.098 -0.0565 -0.0867 -0.5558
 5727TIP3    H138672   0.723   4.530  15.082 -1.1420 -0.1271 -2.4621
 5727TIP3    H238673   0.608   4.431  15.083  0.3020 -1.8648 -2.5119
 5728TIP3   OH238674   6.582   6.580  15.405  0.2617  0.7950  0.0091
 5728TIP3    H138675   6.599   6.643  15.475  1.7037 -2.4370  2.8432
 5728TIP3    H238676   6.486   6.573  15.403  0.1579  1.5925  1.0494
 5729TIP3   OH238677   1.384   5.519   2.445  0.0954 -0.2631  0.2009
 5729TIP3    H138678   1.289   5.521   2.457  0.2600 -2.0006  2.5143
 5729TIP3    H238679   1.398   5.460   2.371 -0.6324 -0.3554  0.1320
 5730TIP3   OH238680   4.839   3.115   0.084 -0.6117 -0.2859  0.4181
 5730TIP3    H138681   4.816   3.170   0.158 -3.9035  1.1246 -1.4436
 5730TIP3    H238682   4.783   3.037   0.093 -0.0281 -0.7481  0.1314
 5731TIP3   OH238683   3.003   0.615  16.191  0.3627 -0.3365 -0.0404
 5731TIP3    H138684   2.986   0.533  16.143 -0.6184 -0.0476 -0.2014
 5731TIP3    H238685   3.094   0.635  16.170  0.1135 -0.4889 -1.3920
 5732TIP3   OH238686   2.076   3.969   2.677  0.3328 -0.4109  0.6807
 5732TIP3    H138687   2.091   3.975   2.583  1.9461 -0.4233  0.9070
 5732TIP3    H238688   2.014   3.896   2.687 -2.3192  1.4814 -0.5416
 5733TIP3   OH238689   6.051   5.516   2.510 -0.0011 -0.1808 -0.1790
 5733TIP3    H138690   5.959   5.532   2.531  0.2619  1.7906 -0.3247
 5733TIP3    H238691   6.098   5.588   2.551  1.1868  0.3303 -2.2714
 5734TIP3   OH238692   3.515   5.858   4.406  0.0698 -0.2153  0.6832
 5734TIP3    H138693   3.559   5.830   4.486 -0.5309 -2.2839  0.3351
 5734TIP3    H238694   3.458   5.785   4.382 -0.8577  0.9393 -0.8481
 5735TIP3   OH238695   2.677   0.829  15.476  0.1022  0.6899  0.6067
 5735TIP3    H138696   2.750   0.843  15.536  0.1508 -0.6279  0.8902
 5735TIP3    H238697   2.715   0.781  15.402 -0.0608  1.8411 -0.2677
 5736TIP3   OH238698   6.682   4.527   4.411 -0.2051 -0.0688 -0.0233
 5736TIP3    H138699   6.741   4.495   4.480 -0.5594 -0.5406  0.0647
 5736TIP3    H238700   6.630   4.595   4.454 -0.2779 -0.2135  0.1184
 5737TIP3   OH238701   0.456   1.368  15.088  0.2848  0.4714  0.2621
 5737TIP3    H138702   0.534   1.387  15.140  1.0954  0.6845 -0.9697
 5737TIP3    H238703   0.485   1.303  15.024 -0.8895 -0.3868  0.5683
 5738TIP3   OH238704   0.433   2.298  15.344 -0.1657 -0.0482 -0.1892
 5738TIP3    H138705   0.437   2.203  15.357  0.3018 -0.1260 -0.8783
 5738TIP3    H238706   0.434   2.334  15.433 -1.0450 -0.7053  0.1069
 5739TIP3   OH238707   0.437   2.478   5.645  0.1508  0.1684  0.0183
 5739TIP3    H138708   0.422   2.567   5.676  2.1091  0.1980  1.0503
 5739TIP3    H238709   0.510   2.486   5.583 -0.2880 -0.5991 -0.6274
 5740TIP3   OH238710   2.254   5.457  14.085  0.1568 -0.7258  0.0392
 5740TIP3    H138711   2.341   5.481  14.116  0.2149 -0.6793 -0.1647
 5740TIP3    H238712   2.249   5.362  14.101  0.5399 -0.8752 -0.6709
 5741TIP3   OH238713   1.692   2.048  12.330  0.0380  0.4437 -0.0601
 5741TIP3    H138714   1.778   2.090  12.322  0.7448 -0.9300 -0.0110
 5741TIP3    H238715   1.646   2.072  12.250  1.6945 -1.4229 -1.6932
 5742TIP3   OH238716   1.571   2.892   3.303 -0.6812 -0.0598 -0.8189
 5742TIP3    H138717   1.479   2.903   3.329 -0.3362  0.1903  0.3593
 5742TIP3    H238718   1.567   2.877   3.208 -1.9469 -0.2483 -0.7590
 5743TIP3   OH238719   5.859   2.991  12.799  0.2327  0.0501 -0.2450
 5743TIP3    H138720   5.788   2.988  12.735 -0.6145 -0.4186  0.6915
 5743TIP3    H238721   5.822   3.038  12.874  1.0651  0.2019  0.0752
 5744TIP3   OH238722   3.639   0.714  11.475  0.5468 -0.2541 -0.1159
 5744TIP3    H138723   3.725   0.739  11.510  0.8882 -1.7773  0.2168
 5744TIP3    H238724   3.655   0.701  11.382  0.4665  0.3054 -0.2123
 5745TIP3   OH238725   1.250   2.704   4.981 -0.1014 -0.0289 -0.2385
 5745TIP3    H138726   1.281   2.720   5.070  1.8176  0.6485 -0.9648
 5745TIP3    H238727   1.182   2.770   4.967  0.2534  0.4807  0.4119
 5746TIP3   OH238728   6.827   2.546  10.379  0.7500 -0.1389 -0.2855
 5746TIP3    H138729   6.823   2.617  10.315  1.1732 -0.2046 -0.3870
 5746TIP3    H238730   6.749   2.558  10.433  0.7995  0.3788 -0.3289
 5747TIP3   OH238731   6.187   0.177   6.367 -0.1196  0.2796 -0.1111
 5747TIP3    H138732   6.167   0.248   6.427 -0.7976 -0.8303  1.0238
 5747TIP3    H238733   6.277   0.151   6.388  0.1267  0.7746 -0.5231
 5748TIP3   OH238734   0.491   1.836   0.772  0.1679  0.8318  0.0331
 5748TIP3    H138735   0.574   1.804   0.806  1.2552 -1.2122 -3.8647
 5748TIP3    H238736   0.425   1.774   0.805  1.2285 -1.3669 -1.6854
 5749TIP3   OH238737   6.187   5.260  16.508  0.3835 -0.1221 -0.5193
 5749TIP3    H138738   6.210   5.285  16.419  0.0541 -0.8268 -0.8132
 5749TIP3    H238739   6.096   5.231  16.502  0.5179 -0.6564 -0.0625
 5750TIP3   OH238740   3.266   3.382   1.035  0.1322  0.6259  0.2614
 5750TIP3    H138741   3.276   3.408   1.127  2.4508 -0.6425  0.4506
 5750TIP3    H238742   3.338   3.426   0.990  0.0813 -0.1531 -0.6066
 5751TIP3   OH238743   0.726   0.050   1.494 -0.5026  0.5605  0.0621
 5751TIP3    H138744   0.787   0.122   1.482 -0.0976  0.0120 -1.2378
 5751TIP3    H238745   0.694   0.062   1.584  0.6364  1.5070  0.3720
 5752TIP3   OH238746   1.158   5.143  11.453  0.2673  0.0493 -0.2469
 5752TIP3    H138747   1.211   5.135  11.533  0.4253  0.2264 -0.3315
 5752TIP3    H238748   1.172   5.234  11.424 -0.5490  0.2840  0.0532
 5753TIP3   OH238749   1.039   5.773  12.884  0.6316 -0.3422 -0.5668
 5753TIP3    H138750   0.975   5.749  12.950  0.2973  1.0140 -0.3734
 5753TIP3    H238751   1.097   5.835  12.928  1.1807 -0.3980 -1.1870
 5754TIP3   OH238752   2.278   0.861   5.580 -0.5267 -0.2634  0.2255
 5754TIP3    H138753   2.221   0.921   5.628  1.7767  1.0227  1.5424
 5754TIP3    H238754   2.364   0.902   5.584  0.3243 -1.5603 -2.6350
 5755TIP3   OH238755   6.796   2.322  16.223  0.3583  0.0010  0.3753
 5755TIP3    H138756   6.703   2.303  16.218  0.1556  0.5484  1.6927
 5755TIP3    H238757   6.831   2.252  16.279  0.5992  0.2457  0.5299
 5756TIP3   OH238758   0.739   1.027  14.757  0.3170 -0.2127  0.4927
 5756TIP3    H138759   0.665   0.986  14.712  0.0642  0.8945 -0.1506
 5756TIP3    H238760   0.815   1.005  14.704  0.2947 -0.5014  0.5832
 5757TIP3   OH238761   3.142   0.672  15.083 -0.0698  0.0627  0.2448
 5757TIP3    H138762   3.168   0.749  15.134 -0.0196  0.1994  0.0163
 5757TIP3    H238763   3.062   0.699  15.037  1.0216  0.6851 -1.4030
 5758TIP3   OH238764   5.558   1.654  12.345 -0.6072 -0.6657 -0.3666
 5758TIP3    H138765   5.601   1.576  12.309 -0.6224 -1.0907  0.5076
 5758TIP3    H238766   5.559   1.641  12.440  0.7357  1.0990 -0.0802
 5759TIP3   OH238767   5.680   4.759  12.280 -0.3489  0.2467  0.4964
 5759TIP3    H138768   5.661   4.757  12.186 -0.2558 -1.8797  0.4685
 5759TIP3    H238769   5.706   4.849  12.298 -1.0207  0.8522 -1.3825
 5760TIP3   OH238770   4.149   5.342   0.914 -1.0909  0.0610  0.3927
 5760TIP3    H138771   4.178   5.270   0.857 -0.2853  0.5466  0.1727
 5760TIP3    H238772   4.123   5.411   0.853  1.2771  1.1947  0.5385
 5761TIP3   OH238773   1.271   2.437   1.899  0.5676  0.4506  0.1917
 5761TIP3    H138774   1.228   2.370   1.846 -0.6636  0.4893  1.0990
 5761TIP3    H238775   1.320   2.489   1.835 -1.1692  0.7377 -1.0138
 5762TIP3   OH238776   0.724   5.886   2.722  0.2310 -0.4141  0.9122
 5762TIP3    H138777   0.663   5.909   2.652  0.6535 -0.3654  0.5581
 5762TIP3    H238778   0.714   5.791   2.733 -1.3890 -0.1453  2.2573
 5763TIP3   OH238779   3.322   2.624   2.037 -0.0042 -0.3520  0.9230
 5763TIP3    H138780   3.373   2.680   2.096 -0.1853 -0.1824  0.9220
 5763TIP3    H238781   3.247   2.679   2.012 -0.7745 -0.9837  1.8133
 5764TIP3   OH238782   4.450   3.719  12.120  1.0186 -0.0943 -0.2476
 5764TIP3    H138783   4.452   3.720  12.025 -1.0635  0.0704 -0.3376
 5764TIP3    H238784   4.423   3.629  12.142  0.2223  0.2276  0.1191
 5765TIP3   OH238785   4.053   6.436  15.883  0.1437  0.0626  0.1528
 5765TIP3    H138786   4.118   6.495  15.922  0.7709  1.2437 -2.4941
 5765TIP3    H238787   3.970   6.468  15.917  0.6922  0.6109  1.0340
 5766TIP3   OH238788   0.152   6.821   1.540 -0.3193  0.1032  0.0783
 5766TIP3    H138789   0.209   6.896   1.523 -1.1320  1.0557  1.3398
 5766TIP3    H238790   0.064   6.860   1.548 -1.1859 -1.3043 -1.8258
 5767TIP3   OH238791   3.442   3.683   4.160 -0.4210  0.5202 -0.0257
 5767TIP3    H138792   3.433   3.730   4.077  2.2689 -0.5402 -1.0325
 5767TIP3    H238793   3.512   3.729   4.206  1.4006 -1.6400 -0.4822
 5768TIP3   OH238794   3.973   2.508   5.637  0.0046 -0.4355  0.0319
 5768TIP3    H138795   3.885   2.546   5.639 -1.1940 -3.0242  1.2454
 5768TIP3    H238796   4.021   2.557   5.703  0.0911  2.1325 -1.7644
 5769TIP3   OH238797   0.077   6.265  12.966 -0.9263 -0.1737 -0.8208
 5769TIP3    H138798   0.044   6.287  13.053  0.4063  0.1628 -0.3879
 5769TIP3    H238799  -0.001   6.268  12.910 -1.5843  0.8700  0.1094
 5770TIP3   OH238800   5.850   6.152   2.308 -0.0803 -0.6481  0.5708
 5770TIP3    H138801   5.839   6.128   2.400  0.4140  1.5491  1.2531
 5770TIP3    H238802   5.762   6.146   2.271 -0.4851 -0.4497  1.4764
 5771TIP3   OH238803   1.939   1.570   2.011 -0.3333  0.2328  0.3788
 5771TIP3    H138804   1.917   1.528   2.094  1.7836  0.0450  0.9001
 5771TIP3    H238805   2.034   1.581   2.014 -0.0068 -0.8591 -2.5206
 5772TIP3   OH238806   4.295   3.171  15.742  0.3966 -0.5615 -0.4982
 5772TIP3    H138807   4.297   3.169  15.837 -0.8223  0.2280 -0.4417
 5772TIP3    H238808   4.258   3.087  15.717 -0.7797 -0.1501 -0.1980
 5773TIP3   OH238809   2.731   1.100  13.849 -0.2424 -0.2291  0.5086
 5773TIP3    H138810   2.775   1.114  13.933  0.6571  1.5865 -0.2100
 5773TIP3    H238811   2.750   1.009  13.826  1.4745 -0.0735  1.1759
 5774TIP3   OH238812   1.546   3.012   5.207 -0.0084 -0.6116 -0.4456
 5774TIP3    H138813   1.514   2.951   5.140 -0.0009 -0.8138 -0.2621
 5774TIP3    H238814   1.502   3.095   5.185  0.5670 -0.4828 -1.1544
 5775TIP3   OH238815   0.725   6.737   5.769  0.0126 -0.1257 -0.0288
 5775TIP3    H138816   0.800   6.790   5.796  0.4080 -0.0479 -1.2251
 5775TIP3    H238817   0.764   6.656   5.734 -0.5582 -0.9536  1.1907
 5776TIP3   OH238818   2.204   1.693  13.460  0.0166 -0.0993 -0.6810
 5776TIP3    H138819   2.291   1.731  13.474 -0.7502  0.8111  2.3738
 5776TIP3    H238820   2.197   1.683  13.365  3.2956  0.1035 -1.0498
 5777TIP3   OH238821   3.086   0.007  13.055 -0.1010  0.0377 -0.3729
 5777TIP3    H138822   3.011  -0.047  13.080  0.5676 -2.4744 -3.2422
 5777TIP3    H238823   3.109   0.055  13.135 -2.2044 -2.1866  1.7134
 5778TIP3   OH238824   5.740   3.921   3.355  0.7742  0.3026  0.3559
 5778TIP3    H138825   5.738   3.828   3.379  1.7597  0.1448 -0.1339
 5778TIP3    H238826   5.831   3.937   3.329  1.2019  1.9331  2.5539
 5779TIP3   OH238827   1.396   5.614   1.247 -0.0470 -0.1122  0.3825
 5779TIP3    H138828   1.309   5.653   1.235  0.5543  0.9659 -0.7275
 5779TIP3    H238829   1.408   5.612   1.342 -1.2971 -0.3235  0.5528
 5780TIP3   OH238830   6.851   6.010   3.777 -0.1745  0.7492 -0.0043
 5780TIP3    H138831   6.788   6.059   3.829  0.4275  0.7516  0.7333
 5780TIP3    H238832   6.921   5.988   3.838  0.3492  0.3992 -0.7160
 5781TIP3   OH238833   3.324   2.162   5.417  0.2491 -0.5077 -0.2557
 5781TIP3    H138834   3.269   2.106   5.472 -1.8334  0.8118 -0.8882
 5781TIP3    H238835   3.413   2.142   5.445 -0.6485 -0.3412  3.1734
 5782TIP3   OH238836   0.783   2.181   1.971 -0.3670 -0.1884  0.1393
 5782TIP3    H138837   0.749   2.189   1.882 -1.6178 -0.0405  0.6144
 5782TIP3    H238838   0.731   2.112   2.011  0.4222 -0.4991  0.6624
 5783TIP3   OH238839   2.624   0.196   3.912 -0.3147 -0.2971 -0.1371
 5783TIP3    H138840   2.628   0.259   3.984  0.4425  0.0429 -0.4566
 5783TIP3    H238841   2.548   0.223   3.861  0.8926  1.3760 -1.1526
 5784TIP3   OH238842   4.696   2.512   4.688  0.3359 -0.2632  0.2391
 5784TIP3    H138843   4.763   2.497   4.621 -0.1778 -1.8217  0.0322
 5784TIP3    H238844   4.626   2.450   4.666 -0.0359 -0.4964  1.9462
 5785TIP3   OH238845   0.934   1.473  13.157  0.6808  0.2000  0.2467
 5785TIP3    H138846   0.982   1.428  13.227  0.0769 -1.9068 -0.5999
 5785TIP3    H238847   0.848   1.430  13.156 -0.1821  1.8760 -0.2039
 5786TIP3   OH238848   0.331   2.023  16.007 -0.2908  0.4914 -0.1250
 5786TIP3    H138849   0.255   2.019  16.065  0.7241 -1.6606  1.1851
 5786TIP3    H238850   0.397   2.069  16.059 -0.3064  1.2729 -0.7848
 5787TIP3   OH238851   3.436   6.139  14.589  0.5387 -0.0673  0.2040
 5787TIP3    H138852   3.457   6.134  14.496  0.0203  0.2189  0.0690
 5787TIP3    H238853   3.435   6.047  14.618  0.1985 -0.1902 -0.1874
 5788TIP3   OH238854   4.608   0.081   6.089 -0.0594 -0.2894 -0.0217
 5788TIP3    H138855   4.680   0.100   6.148  0.3667 -0.9697 -0.3084
 5788TIP3    H238856   4.576  -0.005   6.118 -0.1411 -0.4176 -0.4886
 5789TIP3   OH238857   4.027   4.197   4.184  0.0082  0.2664 -0.0554
 5789TIP3    H138858   3.937   4.193   4.217 -0.3404  3.6013 -0.2029
 5789TIP3    H238859   4.081   4.199   4.263 -0.4048  2.1810  0.2385
 5790TIP3   OH238860   0.707   6.814  13.650 -0.2018  0.3728  0.1791
 5790TIP3    H138861   0.656   6.743  13.689  1.1003 -0.5026  0.3571
 5790TIP3    H238862   0.687   6.811  13.557  0.6944 -1.0078  0.0000
 5791TIP3   OH238863   3.806   5.560   4.619  0.6348  0.4101  0.3927
 5791TIP3    H138864   3.741   5.607   4.672 -1.5775  0.3884 -2.0470
 5791TIP3    H238865   3.819   5.617   4.543  2.9507  0.0193  0.4454
 5792TIP3   OH238866   2.072   1.152  12.992  0.6522 -0.4182  0.1026
 5792TIP3    H138867   2.125   1.085  12.951  0.4646 -0.9624  0.7378
 5792TIP3    H238868   2.074   1.131  13.085 -1.3993 -1.0026  0.0674
 5793TIP3   OH238869   5.845   4.433   1.838 -0.2114  0.4972 -0.7962
 5793TIP3    H138870   5.886   4.519   1.825  0.4660  0.2070 -0.6417
 5793TIP3    H238871   5.894   4.394   1.910 -1.4126  0.5313  0.0644
 5794TIP3   OH238872   6.583   5.137   4.748 -0.7529 -0.2310  0.2994
 5794TIP3    H138873   6.530   5.187   4.810 -1.1818  0.4477 -0.5858
 5794TIP3    H238874   6.533   5.140   4.667  1.2213  1.6009 -0.9548
 5795TIP3   OH238875   1.917   2.282   0.867  0.0392  0.2761  0.1751
 5795TIP3    H138876   1.909   2.186   0.872 -0.3053  0.3688  2.2622
 5795TIP3    H238877   1.833   2.315   0.900  0.5048  1.3027  0.3681
 5796TIP3   OH238878   6.355   1.254  14.280  0.2897 -0.4223 -0.0458
 5796TIP3    H138879   6.298   1.324  14.312  0.2342  0.0517 -1.1398
 5796TIP3    H238880   6.444   1.287  14.297  0.3476 -1.7780  3.0130
 5797TIP3   OH238881   6.665   2.436   0.724  0.4064  0.2279 -0.4404
 5797TIP3    H138882   6.707   2.386   0.654  0.0809  0.2876 -0.6805
 5797TIP3    H238883   6.724   2.510   0.740  0.1982  0.5359 -1.0566
 5798TIP3   OH238884   1.647   0.898  11.257  0.8492  0.2470  0.2622
 5798TIP3    H138885   1.566   0.925  11.301  0.8654  1.5777 -0.4544
 5798TIP3    H238886   1.709   0.883  11.328  0.3646  0.5803  0.7668
 5799TIP3   OH238887   4.421   3.988  16.052 -0.4713 -0.1203  0.5481
 5799TIP3    H138888   4.453   3.902  16.024 -2.9472 -1.3016  1.0822
 5799TIP3    H238889   4.496   4.047  16.039  1.2977 -2.3258  0.1503
 5800TIP3   OH238890   1.082   3.115  16.600 -0.4651 -0.1651  0.2336
 5800TIP3    H138891   1.007   3.103  16.541  0.1832 -1.7911 -0.3175
 5800TIP3    H238892   1.045   3.156  16.677 -1.4826  1.3493 -0.9989
 5801TIP3   OH238893   4.041   3.618  13.383  0.1115  0.4687 -0.0508
 5801TIP3    H138894   3.963   3.623  13.328  1.0687  1.7046 -1.3796
 5801TIP3    H238895   4.019   3.670  13.461 -0.9103 -0.4783  0.3120
 5802TIP3   OH238896   2.976   2.185  16.414 -0.4983 -0.1381  0.4768
 5802TIP3    H138897   2.998   2.169  16.505 -0.5074  1.7796  0.8678
 5802TIP3    H238898   3.049   2.237  16.380 -1.2070  0.4844 -0.1453
 5803TIP3   OH238899   3.936   0.406   3.725 -0.1057 -0.2516  0.1724
 5803TIP3    H138900   4.001   0.429   3.792  0.5016 -1.6362  0.0787
 5803TIP3    H238901   3.988   0.378   3.650 -0.7939  0.8858 -0.7692
 5804TIP3   OH238902   2.712   3.987  15.424 -0.4311 -0.0475 -0.2703
 5804TIP3    H138903   2.638   4.045  15.405  0.6252  1.5222  0.2892
 5804TIP3    H238904   2.790   4.041  15.413  0.6983 -1.7426 -1.1289
 5805TIP3   OH238905   5.106   3.740   5.356  0.3766 -0.4529 -0.0862
 5805TIP3    H138906   5.065   3.803   5.297  1.4547 -1.1231 -1.6151
 5805TIP3    H238907   5.043   3.731   5.428 -0.7230  0.8266 -0.8320
 5806TIP3   OH238908   1.763   4.752   5.388 -0.1660  0.2649 -0.4212
 5806TIP3    H138909   1.855   4.729   5.375 -0.9472 -2.7614 -1.4590
 5806TIP3    H238910   1.762   4.848   5.393  2.7837  0.5378 -2.5413
 5807TIP3   OH238911   3.199   0.739  11.924  0.1395  0.5426 -0.4380
 5807TIP3    H138912   3.171   0.651  11.950 -0.0503  1.1442  1.5069
 5807TIP3    H238913   3.161   0.752  11.837 -1.0948 -0.7106 -0.1079
 5808TIP3   OH238914   5.777   0.636  11.080 -0.0515 -0.1655 -0.3162
 5808TIP3    H138915   5.760   0.706  11.143  0.2478 -1.7769  1.6468
 5808TIP3    H238916   5.868   0.651  11.052 -0.1242  0.4636 -0.2251
 5809TIP3   OH238917   5.393   2.172  13.448 -0.3826 -0.1345  0.4478
 5809TIP3    H138918   5.312   2.176  13.498  0.0243  0.1606  1.1095
 5809TIP3    H238919   5.424   2.082  13.458 -0.4652 -0.1612  0.4611
 5810TIP3   OH238920   0.048   2.872   0.526 -0.4384 -0.7761  0.2825
 5810TIP3    H138921   0.101   2.936   0.478 -0.8056 -1.2582 -0.8094
 5810TIP3    H238922  -0.008   2.924   0.583  0.9626 -0.2456  1.2127
 5811TIP3   OH238923   1.632   1.288  16.406  0.2353  0.2691  0.9265
 5811TIP3    H138924   1.610   1.255  16.494  0.7997  2.0145  1.7676
 5811TIP3    H238925   1.661   1.378  16.421  0.7475  0.4666 -1.0219
 5812TIP3   OH238926   4.669   0.037   3.171 -0.3305 -0.8114 -0.0767
 5812TIP3    H138927   4.579   0.053   3.143  0.0460  0.2207 -0.7755
 5812TIP3    H238928   4.679   0.088   3.251 -0.1450 -0.2557 -0.4425
 5813TIP3   OH238929   4.165   2.906   5.770 -0.0452  0.2708 -0.3929
 5813TIP3    H138930   4.258   2.912   5.790  0.1886 -0.8787 -1.0656
 5813TIP3    H238931   4.142   2.815   5.790 -0.6247  0.0772 -1.8266
 5814TIP3   OH238932   2.308   2.788  14.892 -0.1722 -0.0922  0.4373
 5814TIP3    H138933   2.403   2.803  14.889 -0.0384 -0.7169  1.2087
 5814TIP3    H238934   2.287   2.751  14.807  0.2911 -0.0121  0.2849
 5815TIP3   OH238935   6.014   4.285  13.086  0.1281 -0.3901  0.4699
 5815TIP3    H138936   6.059   4.249  13.162 -0.1248  0.1088  0.8628
 5815TIP3    H238937   5.947   4.221  13.064  0.5228 -0.7673  0.3585
 5816TIP3   OH238938   4.973   3.253   1.494 -0.4580  0.0940 -0.0482
 5816TIP3    H138939   5.048   3.292   1.448  0.8094 -0.4956  1.4119
 5816TIP3    H238940   4.919   3.216   1.425  0.1011  1.3750 -1.2153
 5817TIP3   OH238941   0.324   3.411  14.445  0.1141  0.1972  0.3081
 5817TIP3    H138942   0.325   3.338  14.384  1.3692 -0.8981  1.5836
 5817TIP3    H238943   0.242   3.401  14.493 -0.1865  0.2279 -0.1839
 5818TIP3   OH238944   5.940   2.960   1.457 -0.5596 -0.2697  0.0230
 5818TIP3    H138945   5.913   2.977   1.547 -0.0319  0.6066  0.0236
 5818TIP3    H238946   5.910   2.871   1.440  0.3539 -0.8876  1.4623
 5819TIP3   OH238947   0.305   1.017   1.877 -0.4598  0.9877  0.0233
 5819TIP3    H138948   0.238   0.973   1.929  0.8377 -1.7426 -0.4321
 5819TIP3    H238949   0.368   1.049   1.942  0.1430 -0.6324  0.2755
 5820TIP3   OH238950   2.759   1.587   4.091 -0.5874 -0.1927  0.4362
 5820TIP3    H138951   2.731   1.659   4.035 -1.1512 -2.0888 -1.8625
 5820TIP3    H238952   2.851   1.573   4.067 -0.6950 -0.7198  0.3258
 5821TIP3   OH238953   4.999   0.488  14.329 -0.0645 -0.0166 -0.4094
 5821TIP3    H138954   5.034   0.495  14.240 -2.9612 -0.8769 -1.7296
 5821TIP3    H238955   4.938   0.561  14.337 -0.2935 -0.3069  0.6656
 5822TIP3   OH238956   2.047   4.831   2.858 -0.3643 -0.6564 -0.0886
 5822TIP3    H138957   1.955   4.849   2.876 -0.0883  0.5227  0.2324
 5822TIP3    H238958   2.062   4.745   2.898 -1.3610 -0.9502 -0.3050
 5823TIP3   OH238959   2.628   4.282  15.862 -0.0736 -0.1500  0.0781
 5823TIP3    H138960   2.533   4.289  15.855 -0.4293 -3.6273 -0.2603
 5823TIP3    H238961   2.654   4.231  15.785  1.9678 -0.0102  0.6132
 5824TIP3   OH238962   2.138   6.553  14.814 -0.1904  0.5860  0.5473
 5824TIP3    H138963   2.184   6.620  14.763  0.9315  0.5645  1.4682
 5824TIP3    H238964   2.087   6.504  14.749  0.2843  1.2758 -0.3763
 5825TIP3   OH238965   5.952   1.225  16.217 -0.0419  0.1964  0.0608
 5825TIP3    H138966   6.018   1.289  16.192  1.2760 -0.9913  0.3029
 5825TIP3    H238967   5.983   1.191  16.301  0.4554 -2.1823 -0.9919
 5826TIP3   OH238968   4.868   5.132  14.179 -0.1783  0.1054  0.3049
 5826TIP3    H138969   4.951   5.172  14.205 -0.4237  0.7453  0.1228
 5826TIP3    H238970   4.830   5.195  14.117 -0.3203 -0.6625 -0.4082
 5827TIP3   OH238971   4.268   0.770   3.830  0.1566 -0.2960 -0.0077
 5827TIP3    H138972   4.212   0.829   3.779  1.0605  1.4844  0.9508
 5827TIP3    H238973   4.335   0.827   3.867 -0.7439 -1.3327  3.6434
 5828TIP3   OH238974   3.381   1.433  15.368 -0.0630 -0.0079  0.4714
 5828TIP3    H138975   3.296   1.389  15.378  0.7867 -1.6886  0.7101
 5828TIP3    H238976   3.420   1.431  15.455  1.4663 -2.0297 -0.1688
 5829TIP3   OH238977   2.508   3.374   0.029 -0.4308 -0.3470 -0.0363
 5829TIP3    H138978   2.445   3.383   0.101  0.3554 -0.3709  0.6707
 5829TIP3    H238979   2.455   3.345  -0.045 -1.4087  0.5140  0.2874
 5830TIP3   OH238980   1.629   1.286   0.892  0.1000 -0.6038 -0.4158
 5830TIP3    H138981   1.558   1.231   0.925 -1.9221  1.2385 -1.4265
 5830TIP3    H238982   1.620   1.284   0.797 -0.5781  1.9813 -0.4901
 5831TIP3   OH238983   5.964   6.400  16.197  0.0645  0.2827  0.1210
 5831TIP3    H138984   5.938   6.367  16.112 -1.4150  2.7836 -0.4900
 5831TIP3    H238985   5.885   6.397  16.251  0.3721  0.9453  0.6403
 5832TIP3   OH238986   1.207   4.975  10.960  0.4007 -0.4152 -0.1731
 5832TIP3    H138987   1.138   4.962  10.895 -0.7263 -0.3062  0.9566
 5832TIP3    H238988   1.227   5.068  10.955  2.7560 -0.9089 -2.6608
 5833TIP3   OH238989   5.647   5.793   4.348 -0.3377  0.2161 -0.2976
 5833TIP3    H138990   5.685   5.821   4.432  0.5585 -0.7053 -0.3787
 5833TIP3    H238991   5.659   5.699   4.346  0.6007  0.3270 -1.9100
 5834TIP3   OH238992   2.735   0.941  16.431 -0.8967  0.1465  0.6441
 5834TIP3    H138993   2.652   0.964  16.389 -0.9341  2.1257  1.6712
 5834TIP3    H238994   2.802   0.966  16.369 -0.9965  1.7608  1.1454
 5835TIP3   OH238995   2.765   2.142   1.000 -0.5104  0.0210  0.4909
 5835TIP3    H138996   2.768   2.205   0.928  0.0683  0.4242  0.8575
 5835TIP3    H238997   2.678   2.154   1.038 -1.3493 -1.1381 -0.9513
 5836TIP3   OH238998   0.174   5.552   3.600  0.3076 -0.3146  0.2550
 5836TIP3    H138999   0.174   5.470   3.649 -0.1957 -0.9634 -0.7957
 5836TIP3    H239000   0.128   5.532   3.519  0.8656  0.8096 -0.3708
 5837TIP3   OH239001   2.864   0.284  12.617 -0.1170 -0.1509  0.4958
 5837TIP3    H139002   2.864   0.255  12.709 -0.8593 -0.7437  0.3187
 5837TIP3    H239003   2.931   0.353  12.614 -0.9496  0.7549  1.7525
 5838TIP3   OH239004   4.549   1.747  15.015  0.2630 -0.8044 -0.4494
 5838TIP3    H139005   4.459   1.764  14.986  0.4433 -0.0595 -0.6088
 5838TIP3    H239006   4.600   1.745  14.935  1.1147  3.3687 -0.2500
 5839TIP3   OH239007   1.327   3.147  17.104 -0.1760 -0.4281 -0.3930
 5839TIP3    H139008   1.350   3.060  17.136 -0.3571 -1.0604 -1.8974
 5839TIP3    H239009   1.410   3.184  17.073 -0.4208 -0.9645 -1.7690
 5840TIP3   OH239010   5.724   4.196  15.851  0.6921  0.1528 -0.0558
 5840TIP3    H139011   5.815   4.174  15.833  0.3664 -3.9735  2.1867
 5840TIP3    H239012   5.682   4.195  15.765  2.4270  0.4395 -0.9543
 5841TIP3   OH239013   6.197   0.875   2.442 -0.0579 -0.1780  0.1143
 5841TIP3    H139014   6.186   0.795   2.390 -2.1131 -0.7321  1.2611
 5841TIP3    H239015   6.121   0.875   2.501  0.4262  2.1268  0.8283
 5842TIP3   OH239016   5.143   5.993  11.920  0.4025  0.2467  0.1356
 5842TIP3    H139017   5.124   6.050  11.846  1.7697 -1.4311 -1.6076
 5842TIP3    H239018   5.238   5.983  11.918  0.1464 -2.9835 -0.4023
 5843TIP3   OH239019   4.713   4.519  15.266 -0.4094 -0.3829 -0.3555
 5843TIP3    H139020   4.657   4.530  15.189  1.2987  1.6034 -1.4244
 5843TIP3    H239021   4.721   4.607  15.303 -1.3261 -1.3007  2.2943
 5844TIP3   OH239022   2.398   0.082  11.673 -0.0250  0.0052  0.4161
 5844TIP3    H139023   2.470   0.104  11.614  0.3346 -0.1599  0.7916
 5844TIP3    H239024   2.319   0.109  11.625  0.2116 -0.7124 -0.4152
 5845TIP3   OH239025   5.431   4.900  13.396 -0.1367  0.1567 -0.2988
 5845TIP3    H139026   5.400   4.812  13.375  1.1598 -0.1939 -0.8492
 5845TIP3    H239027   5.386   4.957  13.334 -1.3850 -0.0288  0.4035
 5846TIP3   OH239028   1.966   4.938   0.660  0.2496  0.4336 -0.1082
 5846TIP3    H139029   2.043   4.908   0.612 -1.3428 -0.0160 -2.5322
 5846TIP3    H239030   1.996   5.014   0.709  2.5953 -0.6986  0.3479
 5847TIP3   OH239031   6.100   5.151   0.956 -0.5920 -0.2768  0.1002
 5847TIP3    H139032   6.177   5.143   0.899  0.1511  0.5743  0.9360
 5847TIP3    H239033   6.137   5.162   1.044 -1.6833 -0.1579  0.5604
 5848TIP3   OH239034   1.554   0.563  15.705 -0.5761  0.0754 -0.1539
 5848TIP3    H139035   1.491   0.494  15.727 -0.8592 -0.6197 -2.7900
 5848TIP3    H239036   1.538   0.581  15.612  1.4736  1.6476 -0.2672
 5849TIP3   OH239037   5.633   3.430  12.200 -0.0678 -0.0262 -0.3027
 5849TIP3    H139038   5.664   3.349  12.241 -0.0008  0.9354  1.6545
 5849TIP3    H239039   5.707   3.459  12.147 -0.3613 -1.5984 -1.6652
 5850TIP3   OH239040   6.510   0.811  16.555  0.1753 -0.3055 -0.0756
 5850TIP3    H139041   6.450   0.754  16.508 -1.0100  0.2403  0.7138
 5850TIP3    H239042   6.529   0.764  16.636  0.6117 -0.3632 -0.2117
 5851TIP3   OH239043   6.481   3.532   6.169  0.0452 -0.0495 -0.0443
 5851TIP3    H139044   6.535   3.612   6.176  1.0766 -0.7714  0.5672
 5851TIP3    H239045   6.395   3.559   6.200 -0.0341  1.2026 -1.2658
 5852TIP3   OH239046   5.129   3.850   4.919 -0.3652  0.7489 -0.7313
 5852TIP3    H139047   5.191   3.923   4.915  1.2739 -0.5513 -0.1482
 5852TIP3    H239048   5.136   3.809   4.832  1.5690 -0.8830  0.1071
 5853TIP3   OH239049   0.044   0.812  15.606  0.2480  0.4809  0.2871
 5853TIP3    H139050   0.073   0.797  15.516  1.4500 -0.0387  0.7508
 5853TIP3    H239051  -0.050   0.828  15.598  0.1503 -0.5534 -0.9666
 5854TIP3   OH239052   6.689   5.680   3.058  0.0456 -0.0195 -0.5747
 5854TIP3    H139053   6.615   5.704   3.113  0.6772 -0.6450  0.5721
 5854TIP3    H239054   6.668   5.593   3.025  0.2431 -0.1838 -0.2746
 5855TIP3   OH239055   1.700   6.522   0.810  0.0170 -0.3852  0.2930
 5855TIP3    H139056   1.749   6.454   0.764 -0.7778 -0.7831  0.0156
 5855TIP3    H239057   1.666   6.479   0.888  0.0815 -0.1141  0.4760
 5856TIP3   OH239058   2.245   2.425   4.531 -0.0497  0.8627 -0.2872
 5856TIP3    H139059   2.224   2.478   4.454  1.2684 -0.5787 -1.7083
 5856TIP3    H239060   2.227   2.335   4.504  0.1156  0.3538  1.2188
 5857TIP3   OH239061   4.429   0.500  16.026 -0.3614  0.1764  0.0637
 5857TIP3    H139062   4.371   0.527  16.097  0.7071  0.9739  0.6522
 5857TIP3    H239063   4.517   0.525  16.054  0.0860  0.6497 -1.5955
 5858TIP3   OH239064   2.611   3.699  12.360  0.0259  0.2788  0.8923
 5858TIP3    H139065   2.629   3.744  12.278  0.1011  0.0796  0.7985
 5858TIP3    H239066   2.691   3.650  12.379 -0.6594 -1.2050  0.0851
 5859TIP3   OH239067   4.155   3.627  13.731 -0.0881 -0.0524  0.1521
 5859TIP3    H139068   4.162   3.720  13.751 -1.2005  0.6030 -2.1826
 5859TIP3    H239069   4.232   3.608  13.677 -0.0840 -0.4093  0.2782
 5860TIP3   OH239070   6.352   2.513  11.950 -0.1725 -0.2157 -0.5919
 5860TIP3    H139071   6.385   2.465  11.874  0.8422  0.1793 -0.4289
 5860TIP3    H239072   6.298   2.583  11.914 -0.5048 -0.6339 -0.8993
 5861TIP3   OH239073   4.280   0.815   1.266 -0.0301 -0.3741 -0.0312
 5861TIP3    H139074   4.367   0.809   1.305  1.2063 -0.4224 -2.5510
 5861TIP3    H239075   4.291   0.876   1.193 -2.4318  0.5717  0.3208
 5862TIP3   OH239076   4.809   2.479   4.413 -0.2600 -0.5901 -0.1460
 5862TIP3    H139077   4.733   2.514   4.367 -0.7108 -0.3766  0.7585
 5862TIP3    H239078   4.857   2.430   4.345 -1.1201 -0.6146 -0.7508
 5863TIP3   OH239079   0.413   0.931  15.470 -0.3043 -0.4154  0.1809
 5863TIP3    H139080   0.359   0.994  15.422 -0.4966 -1.2455 -0.7105
 5863TIP3    H239081   0.379   0.934  15.559 -0.6217  0.3941  0.0435
 5864TIP3   OH239082   3.113   4.047  11.084 -0.0085 -0.0015  0.1999
 5864TIP3    H139083   3.153   4.105  11.149 -0.8995 -0.2939  1.0213
 5864TIP3    H239084   3.030   4.088  11.062 -0.2559 -0.5255  0.1414
 5865TIP3   OH239085   4.432   4.076  11.154 -0.3334  0.0789 -0.3200
 5865TIP3    H139086   4.404   3.999  11.105 -2.0071  0.3842  0.0894
 5865TIP3    H239087   4.514   4.103  11.113 -0.3016 -1.2664 -1.1774
 5866TIP3   OH239088   5.052   4.815  16.926 -0.2024  0.7594  0.6539
 5866TIP3    H139089   5.122   4.877  16.907 -1.6217  2.3212  0.2913
 5866TIP3    H239090   4.987   4.866  16.975 -0.8161 -0.8123  1.5607
 5867TIP3   OH239091   3.306   2.247  14.754 -0.2951 -0.0522  0.4374
 5867TIP3    H139092   3.303   2.151  14.752 -1.2298 -0.0820  1.8046
 5867TIP3    H239093   3.366   2.268  14.826 -1.1471  0.3459  1.0622
 5868TIP3   OH239094   4.147   4.846   6.816  0.4640  0.0474  0.0698
 5868TIP3    H139095   4.177   4.888   6.736  1.0340 -1.2340 -0.4157
 5868TIP3    H239096   4.226   4.809   6.856  0.1605  0.4876  1.1225
 5869TIP3   OH239097   4.929   1.292  17.009 -0.6129 -0.2118  0.4166
 5869TIP3    H139098   4.949   1.199  16.999 -0.5177  0.0008 -1.7588
 5869TIP3    H239099   4.930   1.327  16.920 -0.3921  1.9360  1.1994
 5870TIP3   OH239100   0.537   6.287   2.555 -0.3154  0.3198 -0.4071
 5870TIP3    H139101   0.581   6.257   2.475  2.2262  2.6975 -0.0455
 5870TIP3    H239102   0.586   6.245   2.626 -2.1388 -1.2403  0.0285
 5871TIP3   OH239103   1.433   0.814   6.246  0.0714  0.2962 -0.6646
 5871TIP3    H139104   1.360   0.769   6.205  0.5043  0.1354 -1.2762
 5871TIP3    H239105   1.511   0.772   6.210  0.5653 -1.9259  2.5260
 5872TIP3   OH239106   6.617   0.775   0.868  0.3222  0.0390 -0.2178
 5872TIP3    H139107   6.634   0.692   0.823 -1.1100 -0.5860  0.3168
 5872TIP3    H239108   6.566   0.826   0.805 -2.0105 -0.9834  0.7387
 5873TIP3   OH239109   2.041   4.077  16.860 -0.3068  0.1306 -0.6218
 5873TIP3    H139110   2.011   4.121  16.940 -0.4861  1.7729 -1.5385
 5873TIP3    H239111   1.971   4.016  16.838 -1.0564  0.9149 -0.4503
 5874TIP3   OH239112   2.520   4.343   5.608 -0.3946 -0.0042 -0.2093
 5874TIP3    H139113   2.539   4.391   5.689  0.7681 -0.6022 -0.1080
 5874TIP3    H239114   2.440   4.383   5.575  0.0524  1.4091  0.3368
 5875TIP3   OH239115   4.926   4.640   1.253 -0.2822 -0.2722 -0.2020
 5875TIP3    H139116   4.943   4.734   1.240 -1.2037 -0.2087 -1.1236
 5875TIP3    H239117   4.864   4.637   1.326  1.1242 -0.3081  1.0449
 5876TIP3   OH239118   6.231   4.054  14.534 -0.7856  0.6112 -0.3915
 5876TIP3    H139119   6.289   3.996  14.584 -1.8001  1.5819  2.0685
 5876TIP3    H239120   6.169   3.995  14.491 -1.0629 -0.2320  1.0986
 5877TIP3   OH239121   1.694   2.662   2.884 -0.7012 -0.6427  0.4582
 5877TIP3    H139122   1.757   2.672   2.813  0.0078 -0.0589  1.1463
 5877TIP3    H239123   1.634   2.595   2.854  0.7349 -1.8295  0.1157
 5878TIP3   OH239124   6.176   2.399  13.116 -0.0099 -0.8907  0.6571
 5878TIP3    H139125   6.220   2.387  13.032 -0.9307 -0.3053  0.0756
 5878TIP3    H239126   6.183   2.492  13.134  0.5349 -1.0651  1.4544
 5879TIP3   OH239127   5.481   5.002   1.607  0.9032 -0.3702  0.3279
 5879TIP3    H139128   5.496   5.080   1.661 -1.8149 -0.1095  0.8923
 5879TIP3    H239129   5.433   4.942   1.665  0.8840 -1.4810 -0.8087
 5880TIP3   OH239130   0.862   6.036   2.185  0.3702 -0.2812  0.7656
 5880TIP3    H139131   0.915   6.114   2.165 -0.2280  0.0602  0.4777
 5880TIP3    H239132   0.926   5.968   2.207  0.9474 -0.0200 -0.0758
 5881TIP3   OH239133   1.980   3.775   0.881 -0.3440  0.0405 -0.2065
 5881TIP3    H139134   1.894   3.786   0.840 -1.7608 -1.6053  2.1067
 5881TIP3    H239135   2.029   3.720   0.819 -2.1484 -1.7580 -0.1273
 5882TIP3   OH239136   0.085   5.143   3.393 -0.0396 -0.0633 -0.0796
 5882TIP3    H139137   0.030   5.210   3.433  0.3013  0.8335 -1.0505
 5882TIP3    H239138   0.065   5.063   3.441  1.2291  1.1498  2.7102
 5883TIP3   OH239139   0.398   5.324  11.675  0.8220 -0.2970  0.2731
 5883TIP3    H139140   0.474   5.366  11.636 -0.0978  1.2280  0.0203
 5883TIP3    H239141   0.370   5.259  11.611 -0.3359  1.7732 -1.4503
 5884TIP3   OH239142   6.713   6.228   3.430 -0.1812  0.1697 -0.0175
 5884TIP3    H139143   6.693   6.136   3.446 -1.7559  0.4836 -0.0861
 5884TIP3    H239144   6.792   6.244   3.481  0.5546 -1.3993 -0.6072
 5885TIP3   OH239145   6.485   4.586   5.243 -0.0512  0.4829  0.1383
 5885TIP3    H139146   6.473   4.625   5.330  0.0723 -0.4537  0.5978
 5885TIP3    H239147   6.555   4.637   5.203 -0.0140  0.8399  0.6491
 5886TIP3   OH239148   4.159   1.180   2.655  0.1048 -0.2899  0.1446
 5886TIP3    H139149   4.173   1.155   2.746 -3.8144 -2.8711  0.2770
 5886TIP3    H239150   4.068   1.211   2.652 -0.1676 -1.0092 -2.9797
 5887TIP3   OH239151   0.621   3.586   4.508 -0.5320 -0.6667 -0.5032
 5887TIP3    H139152   0.639   3.538   4.427  0.3116 -0.0136 -0.7135
 5887TIP3    H239153   0.632   3.521   4.577 -2.1411 -1.4612 -0.9398
 5888TIP3   OH239154   5.638   4.647  13.478  0.4869  0.1156  0.3440
 5888TIP3    H139155   5.549   4.662  13.444  0.5672  0.1740  0.1594
 5888TIP3    H239156   5.660   4.559  13.449 -0.4925 -0.9460  2.5342
 5889TIP3   OH239157   4.260   3.491  11.126 -0.7642  0.1872  0.1919
 5889TIP3    H139158   4.226   3.426  11.066 -4.7047  1.7326  0.4390
 5889TIP3    H239159   4.254   3.450  11.213 -0.1085 -0.2068  0.0579
 5890TIP3   OH239160   6.720   3.206  13.416 -0.2254 -0.8713  0.7268
 5890TIP3    H139161   6.790   3.258  13.457 -1.1962  0.7094  0.4643
 5890TIP3    H239162   6.757   3.118  13.409  2.0013  0.0375  0.0004
 5891TIP3   OH239163   1.696   0.082  17.067  0.1735 -0.4336 -0.5068
 5891TIP3    H139164   1.699  -0.013  17.053 -0.6962 -0.4001 -1.0391
 5891TIP3    H239165   1.767   0.100  17.128 -1.2839 -1.8063  1.7407
 5892TIP3   OH239166   0.210   5.149  15.422  0.2245 -0.0677  0.5239
 5892TIP3    H139167   0.274   5.126  15.488  0.6600 -0.2093  0.0555
 5892TIP3    H239168   0.136   5.184  15.471  0.6155 -0.0081  1.0706
 5893TIP3   OH239169   3.369   4.424  10.804  0.1567 -0.3586  0.0908
 5893TIP3    H139170   3.417   4.342  10.793 -0.8139 -0.9539  0.1798
 5893TIP3    H239171   3.378   4.445  10.897  1.7758  0.5266 -0.2266
 5894TIP3   OH239172   2.012   2.824   5.283  0.5332  0.3127  0.1054
 5894TIP3    H139173   1.923   2.845   5.255 -0.6260 -1.5929  2.0914
 5894TIP3    H239174   2.053   2.784   5.205 -1.1232 -0.8889 -0.1978
 5895TIP3   OH239175   0.167   6.492   2.845  0.1442 -0.0324  0.1335
 5895TIP3    H139176   0.208   6.523   2.765  1.9930 -1.0299  0.6355
 5895TIP3    H239177   0.156   6.398   2.832  1.3665 -0.3747  1.3840
 5896TIP3   OH239178   0.411   4.979   1.050  0.2175  0.0395  0.0099
 5896TIP3    H139179   0.412   4.894   1.006  1.2258  0.6480 -1.2176
 5896TIP3    H239180   0.375   5.040   0.985 -0.1502  0.6199  0.7439
 5897TIP3   OH239181   5.083   1.665   4.758 -0.6069 -0.0866 -0.5492
 5897TIP3    H139182   5.094   1.608   4.682 -0.3437  0.5652 -1.0098
 5897TIP3    H239183   5.001   1.637   4.798 -0.0384 -1.3908 -0.2429
 5898TIP3   OH239184   1.420   4.692  14.976  0.5700 -0.1605  0.4306
 5898TIP3    H139185   1.422   4.787  14.983 -0.0520 -0.0140 -1.0635
 5898TIP3    H239186   1.487   4.662  15.037  2.5128  1.3595 -0.8426
 5899TIP3   OH239187   6.714   0.333   2.652  0.2534  0.2664 -0.3357
 5899TIP3    H139188   6.670   0.303   2.573 -0.5694  0.6972 -0.0546
 5899TIP3    H239189   6.704   0.428   2.651  1.4146  0.4115 -0.3883
 5900TIP3   OH239190   1.772   1.515   3.083 -0.3696 -0.1111  0.2329
 5900TIP3    H139191   1.699   1.458   3.059 -1.7403 -0.0573  3.7593
 5900TIP3    H239192   1.830   1.459   3.134  0.1353  0.7459  0.6179
 5901TIP3   OH239193   2.574   3.634   6.238  0.0228  0.1413  0.1243
 5901TIP3    H139194   2.623   3.703   6.194 -0.0441 -0.0659 -0.2756
 5901TIP3    H239195   2.537   3.677   6.315  1.0890  0.2247  0.6082
 5902TIP3   OH239196   1.702   4.958   0.651 -0.5418  0.4490 -0.5622
 5902TIP3    H139197   1.636   4.899   0.687 -1.3243  1.8211  0.3860
 5902TIP3    H239198   1.783   4.908   0.651 -1.1786 -0.6097  0.2159
 5903TIP3   OH239199   6.339   3.472   1.625  0.0638 -0.2681  0.0241
 5903TIP3    H139200   6.395   3.403   1.589  3.0345  2.1561 -0.4668
 5903TIP3    H239201   6.400   3.545   1.643 -2.7250  1.9420  1.2522
 5904TIP3   OH239202   2.238   6.746  14.652 -0.3130 -0.2542 -0.3669
 5904TIP3    H139203   2.333   6.757  14.649 -0.2540 -0.8228 -1.4727
 5904TIP3    H239204   2.203   6.825  14.611 -0.2510 -0.5244 -0.9613
 5905TIP3   OH239205   2.064   2.470  16.690 -0.3280  0.1215  0.1374
 5905TIP3    H139206   2.008   2.399  16.659 -0.5435 -0.1667  1.1426
 5905TIP3    H239207   2.044   2.478  16.784  1.2527  0.0569  0.5213
 5906TIP3   OH239208   6.595   6.328  14.504 -0.2570 -0.1801 -0.4898
 5906TIP3    H139209   6.508   6.294  14.527  0.2750 -1.3828 -0.1287
 5906TIP3    H239210   6.621   6.275  14.428 -0.0327  0.4995 -0.8887
 5907TIP3   OH239211   2.129   2.174   2.232  0.3266 -0.3940 -0.0785
 5907TIP3    H139212   2.191   2.101   2.237 -1.2104 -1.7534  0.0183
 5907TIP3    H239213   2.105   2.178   2.139  1.9556  1.4050 -0.4842
 5908TIP3   OH239214   2.916   5.024   1.362 -0.5730 -0.5676 -0.5292
 5908TIP3    H139215   2.921   5.030   1.267  0.6694  2.7848 -0.3535
 5908TIP3    H239216   2.826   5.049   1.383 -0.4985 -0.0864 -0.7778
 5909TIP3   OH239217   3.910   3.033   2.569  0.5529 -0.9561  0.5644
 5909TIP3    H139218   3.932   2.963   2.630  0.4293 -1.2824  0.2360
 5909TIP3    H239219   3.824   3.063   2.598  0.5886 -0.9631  0.6807
 5910TIP3   OH239220   2.828   4.323   4.054 -0.2669  0.8180 -0.3861
 5910TIP3    H139221   2.839   4.415   4.079  0.8415  0.7829 -0.6797
 5910TIP3    H239222   2.852   4.320   3.961 -2.3174  0.5796 -0.9543
 5911TIP3   OH239223   4.451   2.390   4.630 -0.2847 -0.5397 -0.3840
 5911TIP3    H139224   4.421   2.330   4.561  1.5446 -0.0678 -1.6462
 5911TIP3    H239225   4.393   2.466   4.622 -1.5742 -1.4249  0.1659
 5912TIP3   OH239226   0.280   3.308   3.449 -0.1196 -0.1226 -0.1802
 5912TIP3    H139227   0.195   3.275   3.420  1.6038 -1.5994 -4.3572
 5912TIP3    H239228   0.341   3.236   3.434  2.4164  1.9887 -0.8959
 5913TIP3   OH239229   4.928   1.309  11.388  0.1576 -0.0992  0.0973
 5913TIP3    H139230   4.864   1.364  11.432 -1.5895 -1.1976 -0.9659
 5913TIP3    H239231   4.991   1.286  11.456  1.0896  3.2522  0.5721
 5914TIP3   OH239232   6.699   5.194  14.383 -0.4526  0.0737  0.1623
 5914TIP3    H139233   6.766   5.261  14.370  0.0068 -0.3457  0.3140
 5914TIP3    H239234   6.616   5.241  14.381 -0.0948  0.7773  1.1463
 5915TIP3   OH239235   2.318   1.660   3.083  0.7564 -0.3717 -0.0319
 5915TIP3    H139236   2.280   1.601   3.148 -0.5759 -0.9733 -1.2840
 5915TIP3    H239237   2.407   1.676   3.114  1.0478 -2.7644  0.5434
 5916TIP3   OH239238   3.644   5.257   4.615 -0.3493  0.0533 -0.2883
 5916TIP3    H139239   3.576   5.194   4.640  0.4317 -1.1795 -1.1156
 5916TIP3    H239240   3.598   5.322   4.562 -0.7850 -1.2021 -1.5093
 5917TIP3   OH239241   2.460   5.068   2.069 -0.3699  0.1561 -0.1580
 5917TIP3    H139242   2.494   5.007   2.133 -0.4608 -1.5049 -1.6151
 5917TIP3    H239243   2.378   5.100   2.106  0.0134 -0.0806  0.9149
 5918TIP3   OH239244   5.036   4.333  16.969  0.4563 -0.4065  0.5096
 5918TIP3    H139245   5.077   4.412  17.005  0.4220  0.1215 -0.5429
 5918TIP3    H239246   5.058   4.264  17.030 -1.2250  0.7784  2.5835
 5919TIP3   OH239247   5.525   6.331  11.548  0.1987  0.2491  0.5488
 5919TIP3    H139248   5.540   6.425  11.562 -1.9991  0.8725 -0.8570
 5919TIP3    H239249   5.472   6.303  11.623  1.1295  0.0124  1.1395
 5920TIP3   OH239250   4.292   3.956  17.136  0.3227 -0.4245 -0.5368
 5920TIP3    H139251   4.209   3.997  17.110 -0.0535 -1.8630 -1.7395
 5920TIP3    H239252   4.359   4.007  17.090  0.4744  2.5249  2.5616
 5921TIP3   OH239253   2.943   2.854  13.764 -0.3556 -0.1684  0.2464
 5921TIP3    H139254   2.997   2.782  13.797  0.7404  0.0403 -0.9712
 5921TIP3    H239255   2.927   2.831  13.672  0.3728  1.3157 -0.2889
 5922TIP3   OH239256   2.181   1.483   3.256 -0.4187 -0.1850 -0.1178
 5922TIP3    H139257   2.233   1.447   3.327  1.1790 -0.7329 -1.5013
 5922TIP3    H239258   2.091   1.458   3.276  0.3481 -2.9463  0.1725
 5923TIP3   OH239259   5.775   2.393  14.664  0.1127 -0.1816  0.0040
 5923TIP3    H139260   5.697   2.438  14.698 -0.7525 -1.3676 -0.3442
 5923TIP3    H239261   5.740   2.317  14.617  1.3765  0.2676 -1.7724
 5924TIP3   OH239262   3.958   5.290   1.789  0.1582 -0.3077 -0.6269
 5924TIP3    H139263   3.897   5.287   1.716  0.7948 -0.3807 -1.1642
 5924TIP3    H239264   3.928   5.364   1.842 -1.1512 -1.1242 -0.1929
 5925TIP3   OH239265   0.536   6.225   5.811 -0.0976 -0.0870  0.1039
 5925TIP3    H139266   0.619   6.225   5.859  0.2953 -0.5363 -0.5542
 5925TIP3    H239267   0.470   6.244   5.877  0.7305  2.5328  0.2751
 5926TIP3   OH239268   4.014   1.337  16.339 -0.4408  0.3637  0.4871
 5926TIP3    H139269   4.091   1.283  16.319 -0.2550  0.8815 -0.2712
 5926TIP3    H239270   4.020   1.354  16.433 -0.7062 -1.2303  0.8203
 5927TIP3   OH239271   6.212   1.405  12.819 -0.0649 -0.0650 -0.3210
 5927TIP3    H139272   6.189   1.474  12.757 -1.1651 -1.9916 -2.1973
 5927TIP3    H239273   6.269   1.345  12.769  0.9714 -0.4937  1.2764
 5928TIP3   OH239274   2.060   1.509  16.762 -0.0287  0.4281  0.4872
 5928TIP3    H139275   2.153   1.488  16.747 -0.1739 -0.7319  1.1107
 5928TIP3    H239276   2.040   1.469  16.846 -1.5142 -0.7172 -0.3718
 5929TIP3   OH239277   4.333   2.161   0.066  0.0506  0.2362 -0.3699
 5929TIP3    H139278   4.364   2.166   0.157 -0.3609  1.1937 -0.2716
 5929TIP3    H239279   4.278   2.082   0.065  0.3076  0.0399  0.1289
 5930TIP3   OH239280   0.018   0.777  12.071  0.3708  0.4105  0.4549
 5930TIP3    H139281   0.087   0.711  12.078  0.4759  0.4576 -0.1257
 5930TIP3    H239282  -0.055   0.740  12.120  0.7359  0.2682  0.9008
 5931TIP3   OH239283   6.766   1.424  12.152 -0.5899 -0.2440  0.4979
 5931TIP3    H139284   6.741   1.419  12.244  0.2324  0.6013  0.7801
 5931TIP3    H239285   6.799   1.337  12.130  0.5104 -0.0696  1.3945
 5932TIP3   OH239286   3.236   5.098  12.227  0.5384 -0.0169  0.3156
 5932TIP3    H139287   3.280   5.022  12.266  1.3701 -0.5319 -1.5488
 5932TIP3    H239288   3.150   5.065  12.202  1.3658 -0.7997 -1.7228
 5933TIP3   OH239289   5.256   4.128   2.476 -0.3075  0.2079  0.0538
 5933TIP3    H139290   5.227   4.042   2.445 -0.8064  0.3594  0.0837
 5933TIP3    H239291   5.175   4.178   2.487 -0.0398  0.6001  0.2826
 5934TIP3   OH239292   3.633   0.367  10.865  0.1337 -1.3319  0.2111
 5934TIP3    H139293   3.684   0.443  10.893 -2.8031  0.5802  0.8170
 5934TIP3    H239294   3.640   0.306  10.939  1.0421 -0.8668  0.5295
 5935TIP3   OH239295   4.975   5.234  11.620 -0.4087  0.5148  0.4170
 5935TIP3    H139296   4.916   5.166  11.655  0.3124 -0.2238  0.2385
 5935TIP3    H239297   4.952   5.239  11.527  1.3430 -1.4966 -0.2239
 5936TIP3   OH239298   4.904   5.469  17.097 -0.3355  0.2253 -0.1468
 5936TIP3    H139299   4.887   5.462  17.003 -0.4613 -0.9067 -0.0582
 5936TIP3    H239300   4.997   5.489  17.104 -0.8025  2.8525 -0.5504
 5937TIP3   OH239301   6.385   2.947   2.932  0.2752  0.3058 -0.2995
 5937TIP3    H139302   6.388   2.991   2.847  0.7118  0.7120 -0.0790
 5937TIP3    H239303   6.348   3.012   2.991 -0.3921 -0.1082 -0.2503
 5938TIP3   OH239304   6.501   1.964   2.538  0.0486 -0.0512  0.1673
 5938TIP3    H139305   6.414   1.925   2.536  0.5778 -1.2834 -0.2096
 5938TIP3    H239306   6.553   1.902   2.589  0.4252  1.3172  1.5003
 5939TIP3   OH239307   5.999   5.907  14.999 -0.7678  0.2233  0.3673
 5939TIP3    H139308   5.991   6.000  15.018 -1.6974  0.0471  0.9089
 5939TIP3    H239309   5.908   5.876  14.994 -0.4679 -0.6446  0.1802
 5940TIP3   OH239310   2.714   4.980  13.093  0.4013 -0.1757  0.2342
 5940TIP3    H139311   2.661   5.045  13.046 -0.7793 -0.0171  1.7282
 5940TIP3    H239312   2.799   5.022  13.102  0.8687 -0.4371 -2.2236
 5941TIP3   OH239313   1.188   0.053  11.539  0.0113  0.0738 -0.2002
 5941TIP3    H139314   1.173  -0.027  11.589 -0.5955 -0.8739 -1.8155
 5941TIP3    H239315   1.105   0.068  11.493  0.1505  1.5872  0.0061
 5942TIP3   OH239316   0.406   5.369   5.779 -0.3279 -0.2864  0.3789
 5942TIP3    H139317   0.366   5.343   5.696 -0.4034  0.4459  0.1793
 5942TIP3    H239318   0.440   5.457   5.763 -1.7630  0.5220  1.6041
 5943TIP3   OH239319   6.643   2.056   3.515 -0.1558  0.0078 -0.3131
 5943TIP3    H139320   6.586   2.112   3.462  0.3138  1.6800  0.8367
 5943TIP3    H239321   6.628   2.086   3.605  2.0370  0.0704  0.0985
 5944TIP3   OH239322   0.749   2.103   2.601  0.2493  0.3700 -0.5575
 5944TIP3    H139323   0.710   2.190   2.615 -0.7603 -0.2995  1.0870
 5944TIP3    H239324   0.675   2.048   2.575  0.6720 -0.2636 -0.4360
 5945TIP3   OH239325   4.148   1.186  11.262  0.7537  0.1229 -0.2579
 5945TIP3    H139326   4.170   1.163  11.352  0.0920 -0.0429 -0.1338
 5945TIP3    H239327   4.110   1.274  11.268  0.5496  0.0419 -0.3497
 5946TIP3   OH239328   3.146   5.411   1.520 -0.0659 -0.2638 -0.3620
 5946TIP3    H139329   3.146   5.505   1.507  0.6912 -0.1057  0.7061
 5946TIP3    H239330   3.082   5.396   1.590  1.1764 -0.3279  0.7898
 5947TIP3   OH239331   6.784   1.711  14.445  0.4251  0.3871  0.0821
 5947TIP3    H139332   6.827   1.765  14.512 -0.1364  1.2722 -0.2571
 5947TIP3    H239333   6.691   1.733  14.453  0.0615 -1.2571  0.5812
 5948TIP3   OH239334   4.933   5.668  10.559  0.3613  0.4022 -0.2627
 5948TIP3    H139335   4.979   5.586  10.538 -1.2450  0.0790 -3.0845
 5948TIP3    H239336   4.859   5.640  10.612  0.9715  0.3633  0.6019
 5949TIP3   OH239337   2.892   3.720   3.992  0.1658  0.4044 -0.4824
 5949TIP3    H139338   2.814   3.774   4.005  1.5171  3.0602 -2.3935
 5949TIP3    H239339   2.964   3.776   4.021  1.6121 -0.5550 -2.0761
 5950TIP3   OH239340   2.937   3.073  13.364 -0.2007 -0.4279  0.0949
 5950TIP3    H139341   2.845   3.061  13.338 -0.3476  2.6926 -1.2389
 5950TIP3    H239342   2.987   3.023  13.300 -0.9062 -0.8741 -0.1189
 5951TIP3   OH239343   4.771   6.719   3.750  0.1011  0.5947 -0.4795
 5951TIP3    H139344   4.824   6.729   3.829  0.9309  2.7781 -1.2371
 5951TIP3    H239345   4.683   6.742   3.778  0.3663  1.2441 -0.1640
 5952TIP3   OH239346   5.178   6.219   1.663  0.4641 -0.0537  0.0562
 5952TIP3    H139347   5.232   6.255   1.733  0.1533 -1.0191  0.8124
 5952TIP3    H239348   5.238   6.206   1.590  1.0801 -0.3319  0.6054
 5953TIP3   OH239349   5.323   5.689  13.173 -0.1381 -0.2634 -0.3345
 5953TIP3    H139350   5.296   5.599  13.193 -0.3002 -0.1055  0.1788
 5953TIP3    H239351   5.286   5.707  13.087  0.2618 -0.8378 -0.6331
 5954TIP3   OH239352   4.138   1.042  10.660  0.2052 -0.1971 -0.1773
 5954TIP3    H139353   4.219   1.072  10.619  0.3838 -0.7624 -0.2522
 5954TIP3    H239354   4.088   1.002  10.589  0.9296 -2.0452  0.2726
 5955TIP3   OH239355   1.905   2.650   5.625 -0.9035 -0.4604  0.5404
 5955TIP3    H139356   1.928   2.644   5.718 -2.8202 -1.1893  1.0250
 5955TIP3    H239357   1.811   2.671   5.626 -1.9006 -4.1334 -1.1577
 5956TIP3   OH239358   2.821   0.922  10.480  0.1286  0.4890  0.0761
 5956TIP3    H139359   2.758   0.870  10.528 -1.2491  2.7875  0.9203
 5956TIP3    H239360   2.883   0.858  10.445 -1.5329 -1.6781  0.8629
 5957TIP3   OH239361   1.423   1.575   4.304 -0.0919  0.0022 -0.4041
 5957TIP3    H139362   1.351   1.550   4.245 -1.6736  0.1109  1.3677
 5957TIP3    H239363   1.474   1.495   4.315 -0.2963 -0.2500 -1.2011
 5958TIP3   OH239364   1.778   0.932  12.193  0.5537 -0.0699 -0.1925
 5958TIP3    H139365   1.803   0.864  12.255 -1.4674 -0.9424 -0.2570
 5958TIP3    H239366   1.832   1.008  12.217  1.6036 -1.1499  0.9953
 5959TIP3   OH239367   4.136   3.345  14.893  0.4185 -0.1249 -0.4026
 5959TIP3    H139368   4.047   3.311  14.879 -0.6852  2.5505 -0.4612
 5959TIP3    H239369   4.166   3.302  14.973 -0.1596 -2.4168 -1.3237
 5960TIP3   OH239370   5.245   0.802   0.863 -0.1942 -0.2077  0.3164
 5960TIP3    H139371   5.171   0.853   0.832 -0.3207 -1.6604 -2.0746
 5960TIP3    H239372   5.208   0.716   0.886  0.5292 -0.4658  0.5679
 5961TIP3   OH239373   2.318   6.289   3.128 -0.2716  0.1717 -0.0944
 5961TIP3    H139374   2.314   6.238   3.209  0.0184 -0.1144 -0.2614
 5961TIP3    H239375   2.305   6.225   3.058 -1.4206  0.5385 -0.2455
 5962TIP3   OH239376   4.244   4.921  10.883 -0.3960 -0.1359  0.1949
 5962TIP3    H139377   4.182   4.854  10.855 -0.0915 -0.2284 -0.2646
 5962TIP3    H239378   4.286   4.884  10.960  0.2997 -0.7974 -0.4812
 5963TIP3   OH239379   4.206   2.628   2.592 -0.5174 -0.3198  0.5492
 5963TIP3    H139380   4.188   2.594   2.679 -1.9969 -0.9293  0.0369
 5963TIP3    H239381   4.251   2.556   2.547  1.5211  0.4780  1.1894
 5964TIP3   OH239382   2.750   0.301  16.752  0.4156 -0.9061 -0.3119
 5964TIP3    H139383   2.802   0.225  16.725 -0.0328 -1.1594 -0.4688
 5964TIP3    H239384   2.661   0.279  16.727  0.1113 -0.7962  0.6314
 5965TIP3   OH239385   2.934   6.593   1.167  0.4291 -0.7896 -0.0380
 5965TIP3    H139386   3.020   6.568   1.201  0.4214 -0.3013  0.3407
 5965TIP3    H239387   2.951   6.667   1.109  0.6959 -2.6999 -2.6090
 5966TIP3   OH239388   6.023   4.623   4.594 -0.2695 -0.0893  0.4630
 5966TIP3    H139389   6.026   4.607   4.689  0.6450 -1.9916  0.1721
 5966TIP3    H239390   6.029   4.535   4.556 -0.2688  0.6744 -1.3715
 5967TIP3   OH239391   4.234   4.146  13.503 -0.1823 -0.1181 -0.1702
 5967TIP3    H139392   4.227   4.235  13.469 -1.3192 -0.2216 -0.2418
 5967TIP3    H239393   4.304   4.106  13.452 -0.7690  0.2328 -1.2951
 5968TIP3   OH239394   2.774   3.333   0.673  0.7078  0.6476  0.6557
 5968TIP3    H139395   2.816   3.413   0.703 -0.7062  0.3508  3.7649
 5968TIP3    H239396   2.749   3.286   0.753 -3.9261  0.0171 -0.8353
 5969TIP3   OH239397   0.445   2.282  17.122 -0.8727 -0.0892  0.1029
 5969TIP3    H139398   0.424   2.320  17.036  1.6892  1.4509  0.0498
 5969TIP3    H239399   0.538   2.300  17.134 -0.8508 -1.4458  2.6537
 5970TIP3   OH239400   1.555   3.360   5.387  0.4114  0.1895 -0.1950
 5970TIP3    H139401   1.473   3.403   5.362  0.0552 -1.0075 -1.1904
 5970TIP3    H239402   1.529   3.295   5.453  0.4737 -0.4611 -0.7933
 5971TIP3   OH239403   6.767   5.922   4.417  0.4371  0.2806  0.0362
 5971TIP3    H139404   6.743   5.917   4.325  0.2190 -0.9742  0.1382
 5971TIP3    H239405   6.756   6.014   4.441 -0.0916  0.4998 -1.0268
 5972TIP3   OH239406   6.139   2.495   0.418 -0.0747 -0.0362  0.5432
 5972TIP3    H139407   6.203   2.566   0.420  0.4234 -0.4678  0.1317
 5972TIP3    H239408   6.168   2.438   0.347 -0.4151 -0.7003  0.9233
 5973TIP3   OH239409   3.929   6.262  15.701 -0.0290  0.3486  0.5448
 5973TIP3    H139410   3.963   6.305  15.780 -0.4640  0.9613  0.4059
 5973TIP3    H239411   3.852   6.314  15.676 -1.5382 -1.4214  1.2679
 5974TIP3   OH239412   6.483   5.490   2.927  0.6726  0.7308  0.7738
 5974TIP3    H139413   6.431   5.569   2.941 -1.0418 -0.3843  0.9774
 5974TIP3    H239414   6.483   5.446   3.012 -1.6556 -1.3399 -0.1949
 5975TIP3   OH239415   1.769   2.823  15.305  0.0568 -0.1333 -0.6739
 5975TIP3    H139416   1.840   2.824  15.369 -2.4192  1.7880  2.3429
 5975TIP3    H239417   1.709   2.756  15.336 -1.1044  0.6832 -1.0724
 5976TIP3   OH239418   4.949   6.115   1.792 -0.8192  0.0717 -0.0640
 5976TIP3    H139419   4.969   6.107   1.885  0.0548 -1.4570 -0.3634
 5976TIP3    H239420   4.992   6.196   1.765  0.0770 -0.1853  0.5659
 5977TIP3   OH239421   5.884   1.689  15.063 -0.5042  0.0702 -0.5743
 5977TIP3    H139422   5.930   1.619  15.016  0.0744 -0.1715  0.3270
 5977TIP3    H239423   5.944   1.715  15.133 -1.2547  0.5688 -0.0961
 5978TIP3   OH239424   2.850   6.424  11.331 -0.1734  0.0633  0.6446
 5978TIP3    H139425   2.760   6.390  11.328 -0.1777  0.1208 -1.5929
 5978TIP3    H239426   2.894   6.379  11.260  1.8864 -0.6665  2.2835
 5979TIP3   OH239427   2.797   5.932  14.668  0.1754 -0.3249  0.7084
 5979TIP3    H139428   2.727   5.951  14.606  0.1341 -0.3232  0.7543
 5979TIP3    H239429   2.841   6.015  14.681 -0.2875 -0.1543  1.2543
 5980TIP3   OH239430   1.422   3.596  11.889 -0.6900  0.5350 -0.1287
 5980TIP3    H139431   1.429   3.670  11.829  0.1442  0.1700 -0.4881
 5980TIP3    H239432   1.461   3.523  11.842  0.7389  0.4236  1.1729
 5981TIP3   OH239433   3.491   6.724  10.875 -0.2762  0.0314  0.6285
 5981TIP3    H139434   3.398   6.738  10.893 -0.6466  0.6401 -1.4484
 5981TIP3    H239435   3.498   6.631  10.855  0.2795 -0.8379  4.1976
 5982TIP3   OH239436   3.680   0.812   1.507 -0.1944  0.3976 -0.2892
 5982TIP3    H139437   3.681   0.860   1.425  0.4040  0.8675 -0.0167
 5982TIP3    H239438   3.671   0.879   1.575 -1.3030 -0.0267  0.0099
 5983TIP3   OH239439   6.830   5.056   2.505  0.4406 -0.1669  0.7613
 5983TIP3    H139440   6.749   5.044   2.554  0.1057 -0.2287  0.2062
 5983TIP3    H239441   6.838   5.151   2.494  1.2373 -0.0649  2.1088
 5984TIP3   OH239442   3.492   3.381  12.669 -0.0882 -0.7501 -0.3714
 5984TIP3    H139443   3.455   3.304  12.626 -0.7369  0.4687 -2.1143
 5984TIP3    H239444   3.559   3.411  12.608 -0.0268  0.2202  0.1665
 5985TIP3   OH239445   3.297   4.308   0.775 -0.4409 -0.0324  0.4376
 5985TIP3    H139446   3.238   4.327   0.849 -1.3298 -1.2284  0.0687
 5985TIP3    H239447   3.306   4.213   0.775 -0.2582 -0.0342 -0.8473
 5986TIP3   OH239448   0.072   0.361   0.316 -0.3379  0.2191  0.2138
 5986TIP3    H139449   0.048   0.276   0.353 -1.5961  0.7924  0.7763
 5986TIP3    H239450   0.061   0.350   0.222 -0.0162 -0.3889  0.2466
 5987TIP3   OH239451   2.802   2.341  14.533  0.4087  0.3552 -0.1871
 5987TIP3    H139452   2.866   2.320  14.601 -0.1794 -1.7503 -0.2160
 5987TIP3    H239453   2.853   2.337  14.452  0.5232  0.1058 -0.1029
 5988TIP3   OH239454   6.638   3.094  14.898  0.4743 -0.2446 -0.2078
 5988TIP3    H139455   6.718   3.133  14.933  1.1008 -0.2279 -1.6142
 5988TIP3    H239456   6.641   3.111  14.804  0.2746 -2.7164 -0.7452
 5989TIP3   OH239457   6.294   5.102  13.096  0.1857 -0.4110 -0.2250
 5989TIP3    H139458   6.389   5.093  13.095  0.2679  0.4007 -0.5368
 5989TIP3    H239459   6.263   5.038  13.032  0.3466 -2.3060  1.4901
 5990TIP3   OH239460   3.895   1.662  11.781  0.1186 -0.5683 -0.0539
 5990TIP3    H139461   3.891   1.621  11.867 -0.4071 -0.9775 -0.2671
 5990TIP3    H239462   3.857   1.749  11.793  0.7830 -0.3125  0.2913
 5991TIP3   OH239463   1.994   6.402   1.263 -0.3381 -0.3401 -0.0307
 5991TIP3    H139464   2.041   6.320   1.250 -1.8276 -0.9666 -2.0683
 5991TIP3    H239465   1.949   6.391   1.346  0.5337 -1.0315  0.3701
 5992TIP3   OH239466   6.686   6.700   2.513  0.0987  0.7116 -0.2246
 5992TIP3    H139467   6.644   6.720   2.597 -3.1226  0.1716 -1.5818
 5992TIP3    H239468   6.742   6.624   2.532 -0.6690  0.5132  1.4189
 5993TIP3   OH239469   0.618   3.475   0.162  0.3668 -0.1867  0.0569
 5993TIP3    H139470   0.690   3.463   0.225 -1.2787  1.0032  2.3057
 5993TIP3    H239471   0.600   3.387   0.129  0.7590 -0.9994  1.9054
 5994TIP3   OH239472   2.435   6.435   1.541  0.4582 -0.4679 -0.0128
 5994TIP3    H139473   2.444   6.484   1.623 -1.0808 -0.3371  0.1083
 5994TIP3    H239474   2.435   6.502   1.473  3.1695 -0.6646 -0.2940
 5995TIP3   OH239475   5.224   2.020   2.475  0.0438 -0.2049 -0.3904
 5995TIP3    H139476   5.263   2.102   2.506 -0.5599 -0.6479  1.7046
 5995TIP3    H239477   5.270   2.001   2.393  1.4501  1.3028 -0.0069
 5996TIP3   OH239478   2.477   2.431  14.045 -0.0022  1.0794 -0.1693
 5996TIP3    H139479   2.500   2.518  14.077  0.5323  0.9704 -0.2434
 5996TIP3    H239480   2.420   2.395  14.113  0.3120  1.2334  0.1803
 5997TIP3   OH239481   2.284   0.424   1.160 -0.1303  0.2337 -0.2920
 5997TIP3    H139482   2.332   0.344   1.184 -0.6743 -0.4950 -1.4819
 5997TIP3    H239483   2.212   0.392   1.105 -0.8429  1.4810 -0.1077
 5998TIP3   OH239484   2.182   0.209   0.782  0.0927 -0.0570 -0.3092
 5998TIP3    H139485   2.168   0.267   0.707  0.8914 -0.5051 -0.8237
 5998TIP3    H239486   2.136   0.251   0.854 -0.1733  0.7027 -0.9089
 5999TIP3   OH239487   2.006   5.989   5.946  0.1883 -0.1981  0.6198
 5999TIP3    H139488   2.074   5.938   5.990  1.8631  1.8313  0.5001
 5999TIP3    H239489   2.012   6.076   5.985 -1.0111  0.5613 -0.8016
 6000TIP3   OH239490   0.067   1.696   5.148  0.2199 -0.0873  0.4622
 6000TIP3    H139491   0.071   1.792   5.138  0.1447 -0.1493 -0.2196
 6000TIP3    H239492   0.047   1.683   5.241  1.8966  0.5290  0.9563
 6001TIP3   OH239493   4.417   2.802  12.836  0.2566  0.8748  0.5264
 6001TIP3    H139494   4.361   2.880  12.842 -0.4688  0.3786  0.4229
 6001TIP3    H239495   4.490   2.830  12.781  0.1780  1.5810  0.7685
 6002TIP3   OH239496   5.544   5.203   1.818  0.0115 -0.5136 -0.2642
 6002TIP3    H139497   5.594   5.245   1.748  0.1032 -1.9719 -1.1277
 6002TIP3    H239498   5.460   5.248   1.818  0.4856  0.3927 -0.4062
 6003TIP3   OH239499   5.454   4.113   0.249  0.0127 -0.7608 -0.0505
 6003TIP3    H139500   5.510   4.169   0.195 -2.1237  0.9045 -0.6538
 6003TIP3    H239501   5.451   4.030   0.202  0.6095 -0.3169 -0.8936
 6004TIP3   OH239502   0.012   2.431  10.708 -0.4492  0.3612  0.2953
 6004TIP3    H139503  -0.033   2.516  10.713 -2.7917 -0.7844 -0.2316
 6004TIP3    H239504  -0.048   2.374  10.660  1.8103 -1.1769 -0.9040
 6005TIP3   OH239505   1.094   4.632  11.945 -0.0073  0.1443 -0.4463
 6005TIP3    H139506   1.107   4.699  12.013  2.2578 -3.1050  2.6563
 6005TIP3    H239507   1.000   4.616  11.946 -0.0724  0.2346  2.0099
 6006TIP3   OH239508   4.148   6.287   5.568  0.2590 -0.2127 -0.4218
 6006TIP3    H139509   4.201   6.246   5.637 -1.6628  1.1679  2.0467
 6006TIP3    H239510   4.109   6.214   5.521  0.7986 -1.2253  0.6516
 6007TIP3   OH239511   2.072   1.237  10.750  0.8240  0.0353  0.0349
 6007TIP3    H139512   2.044   1.287  10.827 -1.7869 -0.0156 -0.7806
 6007TIP3    H239513   2.098   1.303  10.686 -0.4761  0.3006 -0.2537
 6008TIP3   OH239514   1.935   0.782   4.973  0.1219 -0.6935 -0.8949
 6008TIP3    H139515   1.868   0.715   4.964  1.2778 -2.0141 -0.1321
 6008TIP3    H239516   2.018   0.733   4.974  1.0755  0.8338 -1.3592
 6009TIP3   OH239517   0.088   4.192   1.731  0.4247 -0.6641  0.1988
 6009TIP3    H139518   0.128   4.165   1.814 -0.6547 -0.4149  0.8178
 6009TIP3    H239519   0.117   4.125   1.668  1.5289 -0.6736  0.6823
 6010TIP3   OH239520   0.857   5.627   1.157 -0.2695 -0.5947  0.1710
 6010TIP3    H139521   0.892   5.545   1.120  1.2175 -0.3689  0.9899
 6010TIP3    H239522   0.788   5.653   1.096  1.0843 -1.0097 -1.6333
 6011TIP3   OH239523   6.525   2.747   3.358  0.3955  0.4402 -0.0627
 6011TIP3    H139524   6.561   2.833   3.334 -0.7763  1.5714  1.9812
 6011TIP3    H239525   6.536   2.742   3.453 -0.2016 -1.3884 -0.0514
 6012TIP3   OH239526   1.719   1.902  11.893 -0.1819 -0.6502 -0.0458
 6012TIP3    H139527   1.670   1.979  11.866 -0.2028 -0.2232  1.1416
 6012TIP3    H239528   1.784   1.936  11.954 -0.0166 -1.5352  0.2806
 6013TIP3   OH239529   1.281   6.365  15.507 -1.1411 -0.5030  0.1932
 6013TIP3    H139530   1.348   6.296  15.503  0.6898  1.1719  0.6239
 6013TIP3    H239531   1.202   6.320  15.537 -0.3669 -2.6391 -0.7535
 6014TIP3   OH239532   4.259   6.236  13.540 -0.3205 -0.9612  0.0159
 6014TIP3    H139533   4.343   6.192  13.526  0.0483 -0.4155  0.4455
 6014TIP3    H239534   4.200   6.167  13.570  0.2254 -1.1823  0.6018
 6015TIP3   OH239535   6.522   6.234   0.035  0.3988  0.1627 -0.0231
 6015TIP3    H139536   6.581   6.190   0.095 -1.2637  0.5908  2.0773
 6015TIP3    H239537   6.517   6.324   0.069 -1.7671  0.0099  0.2185
 6016TIP3   OH239538   1.290   1.632   1.704 -0.6166 -0.1614 -0.7181
 6016TIP3    H139539   1.246   1.662   1.624 -1.6994  0.8332  0.2200
 6016TIP3    H239540   1.219   1.605   1.762  0.1454 -0.6240  0.0157
 6017TIP3   OH239541   2.756   4.883   3.936 -0.5310  0.2579 -0.5210
 6017TIP3    H139542   2.835   4.924   3.901 -1.2830  1.1161 -1.2331
 6017TIP3    H239543   2.733   4.935   4.013 -0.5834  0.1940 -0.4926
 6018TIP3   OH239544   0.829   3.247   2.795  0.2371 -0.3978 -0.2853
 6018TIP3    H139545   0.809   3.275   2.706  1.6601 -1.3757 -0.9416
 6018TIP3    H239546   0.781   3.309   2.850 -0.6288  0.2573 -1.7154
 6019TIP3   OH239547   4.035   3.964   1.157 -0.0986  0.0091  0.9166
 6019TIP3    H139548   3.950   3.952   1.114 -0.6750  0.1668  1.9852
 6019TIP3    H239549   4.075   4.038   1.110  0.1381 -1.0416 -0.6089
 6020TIP3   OH239550   2.867   1.754   2.944  0.1433 -0.5350  0.7289
 6020TIP3    H139551   2.782   1.724   2.912 -0.5243  1.3928  0.5610
 6020TIP3    H239552   2.849   1.840   2.983  2.1609  0.4002 -0.2240
 6021TIP3   OH239553   5.221   5.774   3.446 -0.1366 -0.1889  0.9514
 6021TIP3    H139554   5.140   5.723   3.439 -0.3230  0.3976 -3.3576
 6021TIP3    H239555   5.284   5.714   3.487 -1.6314 -2.1146  0.5538
 6022TIP3   OH239556   5.415   4.581   6.334  0.0803  0.0963 -0.6952
 6022TIP3    H139557   5.398   4.539   6.418  0.4358  3.4836  1.2607
 6022TIP3    H239558   5.346   4.547   6.276 -0.4658 -2.0024  1.0561
 6023TIP3   OH239559   0.016   3.521  16.668  0.1035  0.2889  0.2772
 6023TIP3    H139560  -0.067   3.480  16.641 -0.9712  1.2995  1.9015
 6023TIP3    H239561   0.069   3.520  16.588 -1.1082 -1.2226 -0.5783
 6024TIP3   OH239562   4.407   1.905  11.178 -0.3629 -0.2269 -0.1170
 6024TIP3    H139563   4.432   1.994  11.152 -3.0947  0.0119 -2.3837
 6024TIP3    H239564   4.312   1.902  11.165 -0.3885 -3.4364  0.0810
 6025TIP3   OH239565   1.035   2.561  15.834 -0.1380 -0.5850 -0.0836
 6025TIP3    H139566   0.951   2.585  15.874  0.3936  0.8219  0.2635
 6025TIP3    H239567   1.018   2.478  15.791 -1.2244 -1.2794  1.5673
 6026TIP3   OH239568   1.138   4.950   4.353 -0.1584  0.1787 -0.7901
 6026TIP3    H139569   1.104   4.865   4.380 -0.2349  0.1706 -0.9103
 6026TIP3    H239570   1.223   4.931   4.313  1.3441  0.4667  2.0151
 6027TIP3   OH239571   1.206   6.316   0.145 -0.0934  0.3393  0.1255
 6027TIP3    H139572   1.148   6.372   0.095 -0.3173  0.1923  0.2209
 6027TIP3    H239573   1.292   6.357   0.137  0.3223 -0.7795 -2.1270
 6028TIP3   OH239574   3.377   6.199  16.047 -0.7689  0.2731  0.4955
 6028TIP3    H139575   3.283   6.208  16.031 -0.5733  0.7767 -0.4480
 6028TIP3    H239576   3.416   6.273  15.999  0.1736 -0.4664  0.1030
 6029TIP3   OH239577   5.966   3.891  15.479  0.1847  0.1025  0.0872
 6029TIP3    H139578   6.032   3.871  15.413 -0.1448 -1.2619  0.1316
 6029TIP3    H239579   5.968   3.816  15.538 -1.3508  0.0587  0.1267
 6030TIP3   OH239580   1.585   3.809  15.652  0.3775 -0.1584 -0.2254
 6030TIP3    H139581   1.643   3.734  15.669  0.8506  0.3486  0.4741
 6030TIP3    H239582   1.610   3.839  15.565  0.4498 -0.5833 -0.3547
 6031TIP3   OH239583   5.937   4.243   1.255 -0.7915 -0.8577  0.0638
 6031TIP3    H139584   5.862   4.287   1.296 -0.1533 -1.1745  1.6318
 6031TIP3    H239585   5.921   4.252   1.161 -0.5009  3.1693  0.2093
 6032TIP3   OH239586   1.266   6.258   5.188  0.0528  0.4989  0.4122
 6032TIP3    H139587   1.189   6.312   5.204  0.3664  0.9158  0.5219
 6032TIP3    H239588   1.252   6.181   5.243 -0.2036  0.6483  0.5599
 6033TIP3   OH239589   2.431   1.041  14.872  0.3340  0.4348 -0.3501
 6033TIP3    H139590   2.432   1.040  14.967  0.7026  0.5756 -0.3507
 6033TIP3    H239591   2.421   1.134  14.849 -2.5940  0.2148 -0.4415
 6034TIP3   OH239592   3.838   0.737  12.473  0.4229  0.0739 -0.0649
 6034TIP3    H139593   3.827   0.677  12.399  0.9381 -1.5199  1.0929
 6034TIP3    H239594   3.756   0.728  12.523  1.0420 -0.7859  0.8516
 6035TIP3   OH239595   2.489   3.184  10.783  0.0730 -0.6644  0.4484
 6035TIP3    H139596   2.551   3.249  10.750 -0.1178 -1.1186 -0.8642
 6035TIP3    H239597   2.490   3.195  10.878  0.7433  0.6086  0.3063
 6036TIP3   OH239598   3.368   1.555   4.851 -0.0753 -0.6789  0.7515
 6036TIP3    H139599   3.417   1.637   4.851  0.9762 -1.2526 -0.8674
 6036TIP3    H239600   3.391   1.513   4.768 -0.5308 -2.6517  1.5566
 6037TIP3   OH239601   4.860   0.674   0.885 -0.4611 -0.4365 -0.2970
 6037TIP3    H139602   4.917   0.641   0.955 -1.7053 -2.0483  0.0098
 6037TIP3    H239603   4.843   0.598   0.830 -1.1064  0.3688 -1.2494
 6038TIP3   OH239604   2.706   5.005  11.203  0.5120 -1.4025  0.3402
 6038TIP3    H139605   2.673   4.916  11.215  1.8234 -1.9476  0.0155
 6038TIP3    H239606   2.724   5.011  11.109  0.0052 -0.6309  0.2801
 6039TIP3   OH239607   5.858   5.128  15.412 -0.6067 -0.4564 -0.2842
 6039TIP3    H139608   5.833   5.050  15.363  0.6224 -0.0682 -1.5854
 6039TIP3    H239609   5.807   5.199  15.372 -2.2826 -0.6357  1.3713
 6040TIP3   OH239610   5.883   3.311   5.911  0.4541  0.1911 -0.1486
 6040TIP3    H139611   5.836   3.367   5.972 -0.9840  0.7103 -1.6521
 6040TIP3    H239612   5.936   3.254   5.967 -1.6831 -0.1841  1.6616
 6041TIP3   OH239613   1.161   1.650   4.405  0.6435 -0.2754  0.2659
 6041TIP3    H139614   1.230   1.606   4.356  0.3084 -0.8046  0.2687
 6041TIP3    H239615   1.143   1.592   4.479 -1.4633 -1.3568 -0.9977
 6042TIP3   OH239616   2.635   5.238   0.524 -0.4115  0.4363 -0.4236
 6042TIP3    H139617   2.605   5.325   0.495 -2.2777 -0.4465 -1.3750
 6042TIP3    H239618   2.640   5.245   0.619  2.3202  2.3721 -0.5838
 6043TIP3   OH239619   6.572   2.795  13.653 -0.2047 -0.5966 -0.0126
 6043TIP3    H139620   6.567   2.700  13.663  1.5637 -0.7324  0.0217
 6043TIP3    H239621   6.535   2.812  13.566  1.7588 -1.6707 -1.1507
 6044TIP3   OH239622   5.548   0.910  16.494 -0.2485  0.1393  0.3843
 6044TIP3    H139623   5.594   0.833  16.528 -1.3788 -0.6976  0.0837
 6044TIP3    H239624   5.611   0.953  16.437  0.6886 -0.0768  1.2373
 6045TIP3   OH239625   3.926   3.814   0.211  0.1442 -0.1092  0.6663
 6045TIP3    H139626   3.847   3.803   0.264 -0.0097 -0.6259  0.3331
 6045TIP3    H239627   3.912   3.759   0.134 -0.4593  2.0935 -0.8860
 6046TIP3   OH239628   2.117   0.453  15.089  0.6780  0.5290  0.0425
 6046TIP3    H139629   2.110   0.513  15.164  0.6979  1.0207 -0.3448
 6046TIP3    H239630   2.211   0.441  15.076  0.6739  0.1092  0.3502
 6047TIP3   OH239631   0.280   6.517   5.297 -0.1599 -0.1372 -0.4940
 6047TIP3    H139632   0.207   6.519   5.359  2.1432 -0.1638  2.4280
 6047TIP3    H239633   0.303   6.609   5.284 -1.2541 -0.0561 -2.2500
 6048TIP3   OH239634   4.462   6.484   2.612  0.0581  0.1610 -0.1954
 6048TIP3    H139635   4.368   6.473   2.619  0.2027 -0.6291  0.6527
 6048TIP3    H239636   4.483   6.550   2.679  0.1142  0.3108 -0.3598
 6049TIP3   OH239637   3.726   4.839   0.668  0.2310  0.6610  0.1027
 6049TIP3    H139638   3.792   4.872   0.608 -0.7686  0.9839 -0.8484
 6049TIP3    H239639   3.758   4.753   0.695  2.2977  1.8250  1.6983
 6050TIP3   OH239640   6.276   1.798   3.412 -0.1043  0.4204  0.3359
 6050TIP3    H139641   6.351   1.750   3.377  0.0028  1.2737 -0.6352
 6050TIP3    H239642   6.200   1.748   3.382  0.0548 -0.4565  1.3383
 6051TIP3   OH239643   5.022   6.462  11.752  1.0558  0.9009  0.1324
 6051TIP3    H139644   5.035   6.430  11.841 -0.2222  0.5584  0.2179
 6051TIP3    H239645   4.977   6.546  11.764 -3.5734 -1.2371 -0.1412
 6052TIP3   OH239646   1.168   3.510  11.291  0.4698 -0.5773  0.1579
 6052TIP3    H139647   1.253   3.543  11.261  0.4058 -0.3891  0.1879
 6052TIP3    H239648   1.191   3.440  11.353  0.6018 -0.9572 -0.3156
 6053TIP3   OH239649   3.029   0.207   0.904 -0.0734  0.6180  0.5147
 6053TIP3    H139650   3.114   0.220   0.861 -0.4644  0.2337 -0.4066
 6053TIP3    H239651   3.034   0.260   0.983  0.4045  1.9548 -0.3691
 6054TIP3   OH239652   2.810   2.055   2.754 -0.5466 -0.5182  0.1919
 6054TIP3    H139653   2.807   2.123   2.821  0.1037  0.3833 -0.6727
 6054TIP3    H239654   2.755   1.984   2.790 -0.7985  0.2240  1.3408
 6055TIP3   OH239655   6.218   0.459  13.652 -0.4153  0.0083  0.1124
 6055TIP3    H139656   6.148   0.521  13.673 -1.1779 -1.1414  1.1148
 6055TIP3    H239657   6.212   0.448  13.557  0.2669  2.0455 -0.2105
 6056TIP3   OH239658   6.082   2.253  11.716 -0.2550 -0.8725  0.5549
 6056TIP3    H139659   5.990   2.243  11.690 -0.3242  0.0531  0.4018
 6056TIP3    H239660   6.101   2.345  11.700  1.1962 -1.3829 -0.9920
 6057TIP3   OH239661   3.758   0.670   4.695  0.2565 -0.3395 -0.1149
 6057TIP3    H139662   3.732   0.585   4.659  1.3889 -0.1772 -1.4194
 6057TIP3    H239663   3.704   0.733   4.648 -0.1425 -0.3016  0.3980
 6058TIP3   OH239664   1.507   5.936   3.368 -0.1213  0.0715 -0.2670
 6058TIP3    H139665   1.524   5.956   3.460 -1.5189 -0.5240  0.1595
 6058TIP3    H239666   1.492   6.021   3.327 -2.1441  0.2283  0.6708
 6059TIP3   OH239667   3.349   1.776  13.232  0.0563 -0.9120 -0.4804
 6059TIP3    H139668   3.436   1.817  13.235  0.0998 -1.0500  1.0835
 6059TIP3    H239669   3.291   1.846  13.204  0.4514 -0.3699  0.0206
 6060TIP3   OH239670   3.093   2.785  15.972 -0.3864 -0.3955 -0.1587
 6060TIP3    H139671   3.090   2.700  15.929 -2.2531 -0.5898  0.3039
 6060TIP3    H239672   3.023   2.836  15.932  1.0604  1.1826 -0.8478
 6061TIP3   OH239673   2.552   6.548   0.006  0.2321  0.3843  0.1701
 6061TIP3    H139674   2.601   6.514  -0.069  0.5610  0.9977  0.0995
 6061TIP3    H239675   2.467   6.504   0.001 -0.4017  1.6448 -1.5626
 6062TIP3   OH239676   2.828   4.889   6.504  0.2693 -0.1144  0.1495
 6062TIP3    H139677   2.841   4.827   6.576  0.8906 -0.5324 -0.3142
 6062TIP3    H239678   2.912   4.934   6.495  0.6028 -0.9410 -1.1095
 6063TIP3   OH239679   3.485   5.896  13.986  0.3484 -0.5357 -0.5460
 6063TIP3    H139680   3.463   5.916  14.077 -0.9683 -1.9067 -0.5338
 6063TIP3    H239681   3.435   5.818  13.965 -0.2852  0.3928 -2.8235
 6064TIP3   OH239682   5.055   0.772  16.888 -0.3342 -0.4667 -0.7588
 6064TIP3    H139683   5.131   0.799  16.837  0.7555 -1.3599  0.3173
 6064TIP3    H239684   5.027   0.689  16.847 -0.4575 -0.3718 -0.8704
 6065TIP3   OH239685   1.541   4.804  13.696  0.3300 -0.9046  0.5385
 6065TIP3    H139686   1.500   4.779  13.779 -1.0022  0.4109  0.3053
 6065TIP3    H239687   1.619   4.853  13.722  0.9564 -2.0652  0.9740
 6066TIP3   OH239688   1.871   3.907  15.677 -0.5722 -0.4731  0.2748
 6066TIP3    H139689   1.804   3.945  15.734  0.1556  0.9960  0.2016
 6066TIP3    H239690   1.825   3.836  15.631 -2.1705  0.6288  0.0551
 6067TIP3   OH239691   5.051   0.232   4.278  0.4414 -0.2610 -0.7241
 6067TIP3    H139692   4.984   0.178   4.320  1.2497 -1.2861 -0.7268
 6067TIP3    H239693   5.010   0.319   4.270 -0.5819 -0.6564  0.0150
 6068TIP3   OH239694   0.359   2.188   2.233 -0.0940 -0.0513  0.2215
 6068TIP3    H139695   0.408   2.266   2.209 -2.8774  1.6301 -0.4627
 6068TIP3    H239696   0.337   2.200   2.326 -0.3684 -0.1100  0.1663
 6069TIP3   OH239697   5.570   5.223   2.830  0.2671  0.0118  0.4734
 6069TIP3    H139698   5.511   5.195   2.901 -0.7426 -0.2864 -0.4555
 6069TIP3    H239699   5.599   5.141   2.790 -0.4684  0.2008 -0.4817
 6070TIP3   OH239700   2.750   1.895   5.931  0.4080 -0.2489  0.3743
 6070TIP3    H139701   2.796   1.979   5.937  1.0030 -0.4788 -0.7045
 6070TIP3    H239702   2.707   1.885   6.016  0.7705  0.8912  0.7090
 6071TIP3   OH239703   6.349   1.480  16.485 -0.3066  0.2146  0.1496
 6071TIP3    H139704   6.422   1.477  16.547 -0.7934 -0.5184  0.6891
 6071TIP3    H239705   6.390   1.468  16.399  0.1994 -0.3063  0.4591
 6072TIP3   OH239706   5.339   6.151   0.192 -0.2566  0.4059 -0.4470
 6072TIP3    H139707   5.417   6.103   0.219  0.5778  1.9600  0.0519
 6072TIP3    H239708   5.267   6.088   0.201  0.7532 -0.6760  0.3431
 6073TIP3   OH239709   5.524   3.976  10.662 -0.4539 -0.3235  0.0135
 6073TIP3    H139710   5.601   3.929  10.692  1.1886  1.3788 -1.3304
 6073TIP3    H239711   5.463   3.972  10.736  0.6859 -2.1535  0.9046
 6074TIP3   OH239712   1.807   3.438   0.595 -0.0196  0.1424  0.5422
 6074TIP3    H139713   1.861   3.447   0.516  0.7472  0.0234  1.0478
 6074TIP3    H239714   1.793   3.343   0.604  0.9393  0.0580  1.2381
 6075TIP3   OH239715   4.784   3.063   5.123  0.3741 -0.0462  0.1837
 6075TIP3    H139716   4.862   3.117   5.135 -0.5254  0.8275  3.0562
 6075TIP3    H239717   4.711   3.125   5.125 -0.4824 -0.9550 -1.2420
 6076TIP3   OH239718   4.259   0.636  15.361 -0.2370  0.1670 -0.0704
 6076TIP3    H139719   4.239   0.676  15.277 -1.5152 -1.7543 -0.7365
 6076TIP3    H239720   4.174   0.612  15.398  0.2377  1.5281  2.0995
 6077TIP3   OH239721   5.535   2.918   0.160  0.1483  0.3028  0.5684
 6077TIP3    H139722   5.484   2.988   0.201 -1.5468 -0.6320  0.1304
 6077TIP3    H239723   5.576   2.960   0.084 -0.6549  0.9073  0.4486
 6078TIP3   OH239724   4.429   6.354   1.937 -0.1127  0.1852 -0.8333
 6078TIP3    H139725   4.414   6.281   1.997 -1.3957  0.4673 -0.7741
 6078TIP3    H239726   4.485   6.318   1.869  2.2750  0.1264  1.0256
 6079TIP3   OH239727   4.517   2.145  12.098  0.2229 -0.5611 -0.0390
 6079TIP3    H139728   4.591   2.105  12.143  0.4924 -1.3477 -1.1276
 6079TIP3    H239729   4.555   2.219  12.050 -0.0504  0.2328  0.9556
 6080TIP3   OH239730   2.855   6.451   0.490  0.4198 -0.0097  0.2064
 6080TIP3    H139731   2.802   6.529   0.509 -0.7582 -0.6360 -0.4205
 6080TIP3    H239732   2.887   6.465   0.400  0.9537  0.1527  0.4165
 6081TIP3   OH239733   1.949   2.014   5.140  0.2278  0.8246  0.0681
 6081TIP3    H139734   2.028   1.997   5.193  1.4332  1.8630 -1.3084
 6081TIP3    H239735   1.909   2.091   5.181 -0.4894 -0.1207  1.1906
 6082TIP3   OH239736   4.950   3.850   4.024 -0.3529  0.1124 -0.1987
 6082TIP3    H139737   5.001   3.890   3.953 -0.0092 -1.2216 -0.7339
 6082TIP3    H239738   4.901   3.923   4.063  0.6889  1.1388 -0.7563
 6083TIP3   OH239739   5.383   0.770   2.567  0.0749 -0.2690 -0.6434
 6083TIP3    H139740   5.302   0.763   2.617 -1.0628  2.0861 -1.9843
 6083TIP3    H239741   5.372   0.708   2.495 -0.7718  0.3368 -1.0581
 6084TIP3   OH239742   4.571   4.949  11.419 -0.2638 -0.3221 -0.3001
 6084TIP3    H139743   4.646   4.991  11.378  0.2469 -0.8556  0.0652
 6084TIP3    H239744   4.587   4.856  11.409 -1.9486 -0.4884 -2.1187
 6085TIP3   OH239745   5.636   2.748   8.592  0.0047  0.1924  0.2259
 6085TIP3    H139746   5.621   2.807   8.666  3.9440  0.5070  0.9908
 6085TIP3    H239747   5.641   2.805   8.516  1.1904  0.5860  0.5759
 6086TIP3   OH239748   3.846   3.967  13.109 -0.2409  0.2946  0.4937
 6086TIP3    H139749   3.754   3.992  13.112 -0.4054  0.0670 -1.2733
 6086TIP3    H239750   3.894   4.049  13.122 -0.6818  0.4349  1.2862
 6087TIP3   OH239751   3.409   1.703   4.522 -0.2318 -0.1844  0.2962
 6087TIP3    H139752   3.400   1.798   4.510 -1.5437 -0.2925  0.3291
 6087TIP3    H239753   3.337   1.665   4.472  0.9728 -1.2490 -0.6958
 6088TIP3   OH239754   2.745   3.674   2.867 -0.3002  0.5029  1.2162
 6088TIP3    H139755   2.759   3.641   2.778  4.6585  4.8078 -0.0808
 6088TIP3    H239756   2.662   3.721   2.862 -0.8223 -0.5058 -0.7148
 6089TIP3   OH239757   3.496   4.051   5.341 -0.5724 -0.3855  0.1221
 6089TIP3    H139758   3.465   4.039   5.431  0.4809  0.4526  0.6252
 6089TIP3    H239759   3.446   4.126   5.308 -0.7388 -0.5009  0.1098
 6090TIP3   OH239760   4.479   0.547   3.673 -0.6670  0.1324  0.8383
 6090TIP3    H139761   4.389   0.565   3.647 -0.7479  0.6516  1.4469
 6090TIP3    H239762   4.470   0.493   3.753 -0.4378  0.0305  0.7969
 6091TIP3   OH239763   0.780   1.809  11.968 -0.4689  0.4905 -0.4099
 6091TIP3    H139764   0.797   1.863  12.045  0.9269 -0.4551 -0.0100
 6091TIP3    H239765   0.865   1.771  11.946 -0.3128  2.3424 -3.7399
 6092TIP3   OH239766   6.851   6.666  13.237  0.1580 -0.1211 -0.6572
 6092TIP3    H139767   6.885   6.752  13.259 -1.6720  0.6004 -0.4466
 6092TIP3    H239768   6.851   6.618  13.321 -0.2724  0.2227 -0.4565
 6093TIP3   OH239769   1.424   4.905  13.075 -0.0003 -0.3637 -0.0895
 6093TIP3    H139770   1.518   4.923  13.079 -0.2315  0.6241  1.8689
 6093TIP3    H239771   1.382   4.985  13.105 -1.3705 -1.5747  1.4588
 6094TIP3   OH239772   3.296   1.745   2.466 -0.5876 -0.1995 -0.1474
 6094TIP3    H139773   3.270   1.656   2.492 -0.8308 -0.5713 -1.5974
 6094TIP3    H239774   3.357   1.773   2.534 -0.7835 -1.3398  0.5197
 6095TIP3   OH239775   3.918   5.991   1.505  0.1236 -0.3368  0.1653
 6095TIP3    H139776   3.929   6.036   1.588  1.7533 -0.9789  0.3280
 6095TIP3    H239777   3.853   6.043   1.458 -0.0841  0.5948  1.4345
 6096TIP3   OH239778   2.941   2.648  15.538  0.0503 -0.2910  0.1656
 6096TIP3    H139779   2.948   2.685  15.450  0.7825  0.1846  0.4119
 6096TIP3    H239780   2.894   2.566  15.526 -0.5377  0.1396 -0.5621
 6097TIP3   OH239781   5.720   1.953   3.825  0.3547  0.3996  0.0292
 6097TIP3    H139782   5.698   1.863   3.800  0.6329 -0.3731  2.3124
 6097TIP3    H239783   5.635   1.996   3.835  0.1986  0.2299 -0.5387
 6098TIP3   OH239784   4.225   5.237   1.813 -0.1469 -0.6701  0.3970
 6098TIP3    H139785   4.231   5.161   1.869  0.9877 -1.0110 -0.1582
 6098TIP3    H239786   4.131   5.255   1.806 -0.3146 -0.4477  2.5847
 6099TIP3   OH239787   0.126   0.080  14.786 -0.0647 -0.2019 -0.4802
 6099TIP3    H139788   0.211   0.086  14.830  0.6764 -1.0900 -1.7468
 6099TIP3    H239789   0.066   0.051  14.855  0.7874 -0.2443  0.2681
 6100TIP3   OH239790   5.806   2.161  12.899  0.1898  0.5141  0.0061
 6100TIP3    H139791   5.733   2.104  12.923 -0.4952 -0.0316 -2.9112
 6100TIP3    H239792   5.884   2.118  12.933 -0.3455 -2.1041 -1.7959
 6101TIP3   OH239793   1.090   2.052  12.983 -1.1484 -0.1580 -0.0567
 6101TIP3    H139794   1.026   2.052  12.912 -0.1806 -0.2416 -0.9486
 6101TIP3    H239795   1.150   1.981  12.961 -0.8080 -0.1528  0.8262
 6102TIP3   OH239796   4.461   4.969   4.953 -0.1992 -0.5689 -0.1162
 6102TIP3    H139797   4.371   4.937   4.962 -0.5713  0.2757 -0.7306
 6102TIP3    H239798   4.453   5.064   4.950  0.6679 -0.5018 -0.6892
 6103TIP3   OH239799   1.313   0.505   5.364  0.4606 -0.3420 -0.2101
 6103TIP3    H139800   1.252   0.518   5.437 -0.8812  0.3743 -1.3882
 6103TIP3    H239801   1.276   0.432   5.315  0.6283 -0.0142 -0.8403
 6104TIP3   OH239802   0.023   6.489  15.440  0.2006  0.3086  0.0005
 6104TIP3    H139803   0.022   6.558  15.506 -0.4659  1.0290 -0.7322
 6104TIP3    H239804  -0.070   6.474  15.419  0.4172  0.7205 -1.3844
 6105TIP3   OH239805   3.088   5.692   3.116 -0.2807 -0.0469 -0.6047
 6105TIP3    H139806   3.083   5.787   3.106 -1.1054 -0.2531 -2.6799
 6105TIP3    H239807   3.038   5.657   3.042  2.0630 -2.1114 -1.3552
 6106TIP3   OH239808   5.150   3.019   5.847  0.1828  0.4126  0.4008
 6106TIP3    H139809   5.060   3.048   5.833  0.8651  1.9565 -1.1657
 6106TIP3    H239810   5.182   3.073   5.919 -0.2814 -0.5228  1.3320
 6107TIP3   OH239811   4.548   5.339  13.568  0.2823  0.0334 -0.4223
 6107TIP3    H139812   4.513   5.258  13.533  1.9761 -0.2031 -1.6948
 6107TIP3    H239813   4.491   5.408  13.534 -0.4179 -0.5156 -0.3631
 6108TIP3   OH239814   1.970   4.448  15.814  0.3163 -0.2725 -0.2478
 6108TIP3    H139815   1.994   4.413  15.729  0.2923  0.9736 -0.7829
 6108TIP3    H239816   1.974   4.372  15.873 -1.6363 -1.5839 -1.6968
 6109TIP3   OH239817   0.660   3.990   0.171 -0.0863 -0.1062  0.2335
 6109TIP3    H139818   0.720   4.064   0.157  1.4279 -1.5529 -1.6004
 6109TIP3    H239819   0.689   3.951   0.254  1.2087 -0.4384 -0.3386
 6110TIP3   OH239820   6.786   3.510   1.163 -0.4952  0.0404  0.0698
 6110TIP3    H139821   6.797   3.556   1.246 -0.3990  0.0584  0.0469
 6110TIP3    H239822   6.800   3.417   1.185 -0.0583  0.0846 -0.0015
 6111TIP3   OH239823   6.686   0.012  14.618 -0.5214  0.1920  0.0915
 6111TIP3    H139824   6.773   0.012  14.657 -1.1550 -0.3749  1.6106
 6111TIP3    H239825   6.683  -0.068  14.565 -1.0902 -1.5093  2.5177
 6112TIP3   OH239826   5.377   0.142  13.980  0.2625  0.0194  0.4305
 6112TIP3    H139827   5.358   0.227  14.019  0.3824 -0.2900  1.1960
 6112TIP3    H239828   5.304   0.125  13.921 -0.9216 -0.3238  1.9250
 6113TIP3   OH239829   0.103   4.267  13.742 -0.2430  0.7081 -0.1300
 6113TIP3    H139830   0.137   4.209  13.674  0.7196  1.9330 -0.7332
 6113TIP3    H239831   0.093   4.351  13.699 -0.2313  1.3517  1.0866
 6114TIP3   OH239832   6.742   3.290  15.168 -0.2235 -0.1499 -0.3114
 6114TIP3    H139833   6.753   3.221  15.234 -0.7348  0.0134 -0.0462
 6114TIP3    H239834   6.831   3.317  15.146  0.1136 -2.3338 -1.9805
 6115TIP3   OH239835   4.893   5.891  14.100 -0.0087  0.0420  0.4801
 6115TIP3    H139836   4.948   5.906  14.024  0.3548 -0.6488  0.5948
 6115TIP3    H239837   4.825   5.830  14.070 -0.1325  0.1249  0.5892
 6116TIP3   OH239838   4.059   2.237   0.276 -0.2624  0.3419 -0.2291
 6116TIP3    H139839   4.004   2.227   0.353 -1.3185  0.7618 -0.9020
 6116TIP3    H239840   4.105   2.320   0.290  1.4469 -0.7648  1.0605
 6117TIP3   OH239841   3.751   5.897   2.575 -0.1800  0.2630 -0.1640
 6117TIP3    H139842   3.809   5.832   2.616  2.4888  2.5799  0.0649
 6117TIP3    H239843   3.672   5.897   2.629  0.1539 -1.9977  0.4226
 6118TIP3   OH239844   1.984   1.551  15.849  0.5289 -0.3996  0.0482
 6118TIP3    H139845   1.892   1.528  15.864  0.5602 -2.2734 -2.1333
 6118TIP3    H239846   1.987   1.645  15.865 -1.5723 -0.4210  1.0115
 6119TIP3   OH239847   0.821   4.664  14.960 -0.9167 -0.2107 -0.1763
 6119TIP3    H139848   0.803   4.752  14.924  0.4404 -0.4353 -1.5264
 6119TIP3    H239849   0.898   4.677  15.015 -0.0459 -0.7031 -1.2353
 6120TIP3   OH239850   6.154   3.539  13.913 -0.4779 -0.0752 -0.1259
 6120TIP3    H139851   6.113   3.511  13.995 -0.8549  0.2463 -0.2029
 6120TIP3    H239852   6.213   3.467  13.890  0.5951  0.3656  1.0961
 6121TIP3   OH239853   1.079   3.427  12.055  0.1528  0.0163 -0.6360
 6121TIP3    H139854   1.157   3.372  12.043  0.1526  0.2028 -1.5099
 6121TIP3    H239855   1.010   3.381  12.008 -0.5037 -0.6203  0.8882
 6122TIP3   OH239856   3.441   3.853   3.934  0.0905 -0.1592  0.0594
 6122TIP3    H139857   3.469   3.939   3.902 -0.6075  0.7348  1.6789
 6122TIP3    H239858   3.361   3.834   3.885 -0.6570  0.9249  0.7875
 6123TIP3   OH239859   5.378   2.864   5.255 -0.8031 -0.6529  0.7936
 6123TIP3    H139860   5.312   2.853   5.186  0.2031 -1.0745 -0.1362
 6123TIP3    H239861   5.328   2.893   5.332 -2.0629 -0.9911  0.1303
 6124TIP3   OH239862   5.338   5.708   2.076 -0.1916 -0.6189 -0.2477
 6124TIP3    H139863   5.301   5.767   2.143  1.6256  1.7664 -1.1971
 6124TIP3    H239864   5.318   5.620   2.109 -1.0280  0.4481  2.4575
 6125TIP3   OH239865   3.570   4.584  11.769 -0.0683 -0.1465  0.5577
 6125TIP3    H139866   3.650   4.546  11.804  0.4893 -0.4773 -0.9863
 6125TIP3    H239867   3.576   4.677  11.790  0.4123 -0.2743  0.9903
 6126TIP3   OH239868   6.648   2.746  15.009  0.3229  0.4504 -0.4343
 6126TIP3    H139869   6.602   2.738  14.925  0.2351  1.8738 -0.5439
 6126TIP3    H239870   6.737   2.770  14.985  0.6443 -0.4161 -0.1493
 6127TIP3   OH239871   1.973   4.774  16.403 -0.0781  0.3410  0.7398
 6127TIP3    H139872   1.995   4.698  16.348  1.1029  2.3398 -1.7830
 6127TIP3    H239873   1.888   4.752  16.441 -1.3098 -1.0308 -2.4167
 6128TIP3   OH239874   2.644   0.724  12.863  0.3269 -0.2711 -0.1412
 6128TIP3    H139875   2.684   0.740  12.948 -2.1341  1.9672  0.7365
 6128TIP3    H239876   2.627   0.630  12.861 -2.3692 -0.0774  3.3433
 6129TIP3   OH239877   2.086   4.176  13.772  0.1721 -0.6294 -0.3631
 6129TIP3    H139878   2.009   4.223  13.741  0.3538 -1.0236 -1.4384
 6129TIP3    H239879   2.104   4.111  13.705 -0.1882 -2.3868  1.1570
 6130TIP3   OH239880   3.197   1.765  10.748 -0.5212  0.2771  0.4359
 6130TIP3    H139881   3.202   1.710  10.670  0.6942  0.2958  0.4884
 6130TIP3    H239882   3.288   1.788  10.768 -0.8284  0.4500  1.7411
 6131TIP3   OH239883   5.962   0.521  13.278 -0.1328  0.2084 -0.1022
 6131TIP3    H139884   5.910   0.600  13.268 -2.4584 -1.2528 -0.4484
 6131TIP3    H239885   5.975   0.489  13.188 -2.1996 -1.5412  0.1519
 6132TIP3   OH239886   2.307   4.396   2.642  0.0181 -0.4691 -0.1400
 6132TIP3    H139887   2.359   4.465   2.683 -2.0998  1.4779 -0.5366
 6132TIP3    H239888   2.372   4.333   2.611  2.0701  1.2866  0.3168
 6133TIP3   OH239889   1.144   6.586   2.771 -0.9894 -0.5412  0.2091
 6133TIP3    H139890   1.063   6.535   2.775 -2.5863  1.8627  0.4928
 6133TIP3    H239891   1.192   6.550   2.696 -1.7731 -2.7231  0.6909
 6134TIP3   OH239892   0.968   4.403   0.111  0.1993  0.3004 -0.3663
 6134TIP3    H139893   1.024   4.410   0.034  0.1484  1.1337 -0.3314
 6134TIP3    H239894   0.926   4.488   0.119  0.1098  0.1891  0.5157
 6135TIP3   OH239895   4.840   2.068  16.414 -0.0907  0.3130 -0.0309
 6135TIP3    H139896   4.899   2.142  16.433 -0.1498  0.3263  0.0982
 6135TIP3    H239897   4.753   2.106  16.414 -0.0748  0.3531 -0.5369
 6136TIP3   OH239898   2.951   6.829   1.921  0.0744 -0.4136 -0.3073
 6136TIP3    H139899   2.947   6.735   1.903 -0.3136 -0.7218  1.2413
 6136TIP3    H239900   2.862   6.854   1.944  0.2822  0.2046 -0.1390
 6137TIP3   OH239901   2.494   5.725   4.108  0.0842  0.0498  0.2145
 6137TIP3    H139902   2.475   5.775   4.187 -1.6001 -0.7045  0.3271
 6137TIP3    H239903   2.482   5.787   4.036 -0.0944  0.2879  0.4491
 6138TIP3   OH239904   3.020   6.276  15.474 -0.2809 -0.0210  0.0060
 6138TIP3    H139905   2.974   6.324  15.542 -2.1583 -1.3501 -0.2610
 6138TIP3    H239906   2.986   6.312  15.392  1.2574  0.8988 -0.2889
 6139TIP3   OH239907   2.829   1.876   1.050 -0.1488 -0.0457 -0.1112
 6139TIP3    H139908   2.908   1.859   0.998  0.0692  1.1179 -0.2063
 6139TIP3    H239909   2.799   1.962   1.020  0.5837  1.1735  2.3520
 6140TIP3   OH239910   0.062   4.308   1.466 -0.3299 -0.0539  0.3823
 6140TIP3    H139911   0.037   4.400   1.462  0.4666  0.1386 -0.5492
 6140TIP3    H239912   0.157   4.308   1.455 -0.5586 -1.1054 -3.0671
 6141TIP3   OH239913   4.538   5.678  11.709 -0.7743  0.5693  0.4100
 6141TIP3    H139914   4.457   5.692  11.759 -0.5383 -1.4355  1.4748
 6141TIP3    H239915   4.578   5.601  11.750  0.7181  0.3636 -1.3071
 6142TIP3   OH239916   6.405   0.244   1.258  0.7375 -0.4417  0.2270
 6142TIP3    H139917   6.399   0.219   1.166 -1.9696  2.3059 -0.5020
 6142TIP3    H239918   6.363   0.172   1.305 -0.4481 -0.5921 -1.0099
 6143TIP3   OH239919   1.824   2.218  11.132  0.4895  0.0288  0.6309
 6143TIP3    H139920   1.844   2.274  11.057  1.7552 -0.1891  0.7733
 6143TIP3    H239921   1.753   2.162  11.102 -1.1450  2.0044  0.6607
 6144TIP3   OH239922   6.074   5.680   3.411 -0.6819 -0.1214 -0.0776
 6144TIP3    H139923   6.068   5.759   3.464  0.6116 -0.6465  0.9117
 6144TIP3    H239924   6.165   5.679   3.379 -0.8881 -0.8344 -0.6780
 6145TIP3   OH239925   1.240   5.369   4.239 -0.0019 -0.2808 -0.0175
 6145TIP3    H139926   1.269   5.297   4.184  0.0107  0.0020 -0.3838
 6145TIP3    H239927   1.188   5.425   4.181 -0.0413 -0.0107  0.2701
 6146TIP3   OH239928   2.545   0.025   6.397  0.3195 -0.0793 -0.0228
 6146TIP3    H139929   2.505   0.104   6.361  2.3848  0.5063 -1.2321
 6146TIP3    H239930   2.485  -0.046   6.374 -0.8991  0.9569 -0.1077
 6147TIP3   OH239931   1.411   6.351  11.650  0.7209  0.4725 -0.0713
 6147TIP3    H139932   1.400   6.271  11.702  1.4483 -0.4203 -1.2181
 6147TIP3    H239933   1.327   6.363  11.605  0.9813 -0.3691 -0.8223
 6148TIP3   OH239934   2.373   0.046  11.071 -0.5396 -0.7285  0.5141
 6148TIP3    H139935   2.354   0.117  11.133  0.1891  0.3768 -0.4706
 6148TIP3    H239936   2.443  -0.004  11.113 -0.1941 -0.1135  0.6952
 6149TIP3   OH239937   3.016   5.059   0.078  0.3660 -0.0155 -0.2516
 6149TIP3    H139938   2.943   5.098   0.125 -0.4913 -0.7669 -0.9277
 6149TIP3    H239939   3.085   5.050   0.144  0.3064  1.8331  0.0977
 6150TIP3   OH239940   2.136   5.042  13.217  0.3754  0.2308  0.9311
 6150TIP3    H139941   2.140   5.076  13.128  0.7975 -2.5569 -0.2031
 6150TIP3    H239942   2.044   5.055  13.243 -0.3571 -0.9704 -0.8347
 6151TIP3   OH239943   5.589   2.792   6.392  0.0753 -0.6140 -0.1922
 6151TIP3    H139944   5.595   2.872   6.339  0.2162  0.1728  0.9694
 6151TIP3    H239945   5.677   2.780   6.427  0.4645 -2.1862 -1.5637
 6152TIP3   OH239946   0.400   2.516  11.747  0.3485  0.0437  0.1212
 6152TIP3    H139947   0.341   2.560  11.686  0.5140  0.0482 -0.0346
 6152TIP3    H239948   0.402   2.574  11.824  1.1366  0.6791 -0.3687
 6153TIP3   OH239949   5.731   6.069  12.310  0.6787 -0.1938  0.2478
 6153TIP3    H139950   5.739   5.974  12.314  4.1821 -0.1738 -2.0564
 6153TIP3    H239951   5.804   6.097  12.255 -0.6793  3.8055  0.1582
 6154TIP3   OH239952   1.572   4.082  14.660 -0.1210 -0.2227 -0.1256
 6154TIP3    H139953   1.501   4.145  14.651 -1.3805 -1.7943 -2.1012
 6154TIP3    H239954   1.652   4.136  14.662 -1.2593  1.5030  0.7540
 6155TIP3   OH239955   5.261   4.042   1.438  0.2348 -0.5449 -0.1089
 6155TIP3    H139956   5.308   4.096   1.375 -0.2271 -1.1603 -0.9898
 6155TIP3    H239957   5.185   4.094   1.463  0.9964  0.1679  0.8055
 6156TIP3   OH239958   5.964   5.099   2.414  0.1100 -0.0455 -0.2876
 6156TIP3    H139959   5.882   5.145   2.429 -0.2148  0.0081 -1.9563
 6156TIP3    H239960   6.000   5.083   2.501 -0.2364  2.5013  0.3956
 6157TIP3   OH239961   6.036   1.421  11.541 -0.2456 -0.1351 -0.3356
 6157TIP3    H139962   5.948   1.436  11.576  0.1055  1.9318 -0.1683
 6157TIP3    H239963   6.076   1.360  11.602 -0.9990  0.2551  0.5828
 6158TIP3   OH239964   1.531   0.943  10.976 -0.4551 -0.1503 -0.5011
 6158TIP3    H139965   1.573   0.918  11.058  0.8756  0.6935 -0.8854
 6158TIP3    H239966   1.515   0.860  10.931 -0.1905 -0.5548  0.1358
 6159TIP3   OH239967   2.591   2.031  14.699 -0.2716  0.6317  0.0939
 6159TIP3    H139968   2.536   2.044  14.622  0.1748 -0.1003 -0.3639
 6159TIP3    H239969   2.675   2.003  14.664  0.2797  1.3659  0.8069
 6160TIP3   OH239970   2.498   2.859  16.234  0.0335  0.0252 -0.2130
 6160TIP3    H139971   2.470   2.826  16.319 -1.8448 -0.8465 -1.1113
 6160TIP3    H239972   2.430   2.921  16.209 -0.0695 -0.6106 -1.5917
 6161TIP3   OH239973   5.770   5.569   1.880 -0.1493  0.5693  0.7691
 6161TIP3    H139974   5.694   5.607   1.924  0.5646  0.2892  2.2761
 6161TIP3    H239975   5.794   5.634   1.814 -1.4141  0.8601  0.5575
 6162TIP3   OH239976   2.416   1.855  10.796  0.6709 -0.0846  0.1415
 6162TIP3    H139977   2.370   1.918  10.851  0.8037  0.5465 -0.4606
 6162TIP3    H239978   2.349   1.821  10.736  0.5051 -0.8423  0.7381
 6163TIP3   OH239979   3.192   6.053   4.789 -0.0542 -0.8363  0.1695
 6163TIP3    H139980   3.130   6.114   4.828 -0.4085 -1.2618  0.2814
 6163TIP3    H239981   3.278   6.088   4.812 -0.2510 -0.1541 -0.1276
 6164TIP3   OH239982   2.400   1.195   2.847 -0.3712 -0.0487 -0.3921
 6164TIP3    H139983   2.406   1.101   2.860  0.3620  0.2269  1.7383
 6164TIP3    H239984   2.332   1.224   2.908  0.6228  0.9727  0.2873
 6165TIP3   OH239985   6.428   0.795   6.087  0.1185 -0.1482 -0.0537
 6165TIP3    H139986   6.356   0.849   6.054 -0.0252  1.7230  2.9473
 6165TIP3    H239987   6.503   0.819   6.032 -0.6255  0.8786 -0.6614
 6166TIP3   OH239988   1.849   5.920  12.704 -0.2784  0.1378 -1.0982
 6166TIP3    H139989   1.777   5.982  12.713 -1.9022 -1.7456 -0.5464
 6166TIP3    H239990   1.807   5.836  12.691  1.7696 -1.2782  0.7164
 6167TIP3   OH239991   2.275   5.533  17.104 -0.4907 -0.0620 -0.4119
 6167TIP3    H139992   2.229   5.512  17.023 -1.9327 -1.4074  0.6975
 6167TIP3    H239993   2.210   5.582  17.155 -0.1863 -0.6786  0.5850
 6168TIP3   OH239994   6.472   0.022  10.381 -0.2625 -0.0679  0.5228
 6168TIP3    H139995   6.560   0.057  10.389  0.5262 -1.5126 -1.0687
 6168TIP3    H239996   6.429   0.079  10.317 -0.0564 -0.1078  0.3478
 6169TIP3   OH239997   2.953   3.863   4.589  0.2538 -0.2946  0.5123
 6169TIP3    H139998   2.871   3.868   4.541 -0.1758 -3.1931  0.7613
 6169TIP3    H239999   2.927   3.846   4.680  1.0689 -1.6230  0.5308
 6170TIP3   OH240000   6.458   2.729   1.357  0.0242 -0.1260 -0.3101
 6170TIP3    H140001   6.514   2.737   1.280  0.7077  0.5226  0.2408
 6170TIP3    H240002   6.374   2.697   1.322  0.7925 -1.3413 -1.1037
 6171TIP3   OH240003   3.416   2.808  11.132  0.1190 -0.5222  0.2820
 6171TIP3    H140004   3.471   2.739  11.095 -0.3901 -0.6479 -0.2497
 6171TIP3    H240005   3.454   2.889  11.099  0.4545 -0.5603  0.5570
 6172TIP3   OH240006   5.494   5.323   0.854 -0.3686  0.1684  0.4830
 6172TIP3    H140007   5.415   5.296   0.808 -0.1298  1.8628 -1.0110
 6172TIP3    H240008   5.554   5.352   0.785  1.8992 -1.7725  1.4896
 6173TIP3   OH240009   2.611   1.217  13.626 -0.5664  0.0643  0.7093
 6173TIP3    H140010   2.621   1.172  13.710 -3.3775  0.9042  1.6036
 6173TIP3    H240011   2.542   1.167  13.580 -0.9518  1.1571  0.0651
 6174TIP3   OH240012   5.297   1.581  12.266 -0.2019 -0.2455 -0.4971
 6174TIP3    H140013   5.265   1.553  12.351 -0.5546  1.2243 -0.1236
 6174TIP3    H240014   5.391   1.561  12.268 -0.5076 -1.8365 -0.4741
 6175TIP3   OH240015   4.476   3.455   5.698 -0.4184 -0.1892  0.0719
 6175TIP3    H140016   4.387   3.487   5.683 -1.8885 -3.0582  1.7776
 6175TIP3    H240017   4.485   3.455   5.794  1.2743 -0.4100 -0.0625
 6176TIP3   OH240018   0.442   4.698   2.089 -0.9753  0.1316  0.4195
 6176TIP3    H140019   0.431   4.685   1.995  0.8435  1.0106  0.0409
 6176TIP3    H240020   0.354   4.715   2.121 -1.5313  0.7067 -1.2815
 6177TIP3   OH240021   4.895   6.037  12.702  0.3958 -0.2555  0.1094
 6177TIP3    H140022   4.862   6.126  12.712 -2.6395 -1.2322 -0.1482
 6177TIP3    H240023   4.921   6.031  12.610 -1.2160 -0.1376 -0.3811
 6178TIP3   OH240024   6.499   0.972   3.602 -0.3550 -0.4924 -0.1458
 6178TIP3    H140025   6.580   0.941   3.561  0.3525 -1.4730  1.8540
 6178TIP3    H240026   6.446   1.004   3.529  2.1027  0.9093 -1.4623
 6179TIP3   OH240027   4.844   1.522  15.534 -0.4656  0.0697  0.3470
 6179TIP3    H140028   4.885   1.442  15.502  1.7557  0.7994  1.2071
 6179TIP3    H240029   4.750   1.504  15.530 -0.0320 -2.9623  1.4757
 6180TIP3   OH240030   1.708   0.474   2.093 -0.6522  0.7397 -0.2999
 6180TIP3    H140031   1.623   0.471   2.050 -0.4010  1.2311 -0.8367
 6180TIP3    H240032   1.766   0.424   2.035 -0.3371  1.3081 -0.4731
 6181TIP3   OH240033   0.897   1.625   3.419 -0.2374 -0.4622 -0.0343
 6181TIP3    H140034   0.867   1.593   3.504  1.2711  1.2564  1.2286
 6181TIP3    H240035   0.833   1.692   3.395  0.6719  0.8483  1.0393
 6182TIP3   OH240036   6.292   2.531  14.430 -0.0302  0.3039  0.1936
 6182TIP3    H140037   6.220   2.530  14.367  0.4083 -0.4555 -0.3087
 6182TIP3    H240038   6.355   2.468  14.395  1.0879  1.2857  0.3828
 6183TIP3   OH240039   0.866   0.523  13.812 -0.1057 -0.0732 -0.3116
 6183TIP3    H140040   0.774   0.502  13.831 -0.4116 -0.2015 -1.8008
 6183TIP3    H240041   0.913   0.502  13.893 -1.1373 -1.7026 -0.0963
 6184TIP3   OH240042   2.757   0.641   5.468  0.0943 -0.1263 -0.2037
 6184TIP3    H140043   2.810   0.611   5.395  1.2377  1.1353  0.0578
 6184TIP3    H240044   2.781   0.733   5.479 -0.5458 -0.1036  1.3214
 6185TIP3   OH240045   0.922   0.679   2.339  0.3442 -0.3204 -0.2499
 6185TIP3    H140046   0.827   0.665   2.338  0.4021 -0.7686  0.0304
 6185TIP3    H240047   0.943   0.695   2.431  0.1677  2.6638 -0.6419
 6186TIP3   OH240048   0.308   6.143   4.382 -0.3414  0.1218 -0.4646
 6186TIP3    H140049   0.334   6.136   4.290  0.2055 -3.6446 -0.2081
 6186TIP3    H240050   0.296   6.052   4.410  1.5904  0.9314  3.7829
 6187TIP3   OH240051   4.156   4.902   0.543  0.2910  0.3041 -0.0469
 6187TIP3    H140052   4.164   4.903   0.447 -1.6463  0.0016 -0.2434
 6187TIP3    H240053   4.106   4.823   0.562  1.2394 -0.0166  1.3083
 6188TIP3   OH240054   6.087   6.236  12.920 -0.4486  0.4182 -0.0936
 6188TIP3    H140055   6.105   6.181  12.843  0.8020  0.7268 -0.0427
 6188TIP3    H240056   6.054   6.175  12.986  1.8222 -0.4764  0.2859
 6189TIP3   OH240057   6.655   3.375  11.491  0.3540  0.2473 -0.2575
 6189TIP3    H140058   6.750   3.359  11.489  0.4247  0.7093 -0.9625
 6189TIP3    H240059   6.621   3.325  11.417 -0.0038 -0.1814  0.1899
 6190TIP3   OH240060   5.897   5.415  13.177  0.8904  0.2338 -0.1287
 6190TIP3    H140061   5.969   5.469  13.209  1.1386 -0.5284  0.6235
 6190TIP3    H240062   5.907   5.332  13.223  0.0256 -0.1686 -0.6509
 6191TIP3   OH240063   2.413   0.817  12.684  0.1282  0.3144 -0.6464
 6191TIP3    H140064   2.462   0.784  12.759 -0.2019  2.0084  0.3906
 6191TIP3    H240065   2.445   0.767  12.609  2.9515  0.8480  0.0904
 6192TIP3   OH240066   2.978   2.471   3.614  0.1663  0.4056  0.3851
 6192TIP3    H140067   2.917   2.399   3.630  1.2586 -1.2268 -2.1457
 6192TIP3    H240068   3.062   2.438   3.647  0.7995  0.1922 -1.3429
 6193TIP3   OH240069   0.865   5.863   0.397 -0.3273  0.1696 -0.2604
 6193TIP3    H140070   0.955   5.828   0.400  0.0172  1.0913  2.7894
 6193TIP3    H240071   0.811   5.793   0.433 -0.7121  0.0231 -1.1006
 6194TIP3   OH240072   2.969   5.320   2.921  0.2179  0.0238  0.1819
 6194TIP3    H140073   3.006   5.409   2.929 -0.9289  0.9565 -3.1538
 6194TIP3    H240074   3.045   5.262   2.931  1.3880  1.4940  0.2923
 6195TIP3   OH240075   1.686   5.570   4.200 -0.3627 -0.0978 -0.0796
 6195TIP3    H140076   1.596   5.602   4.189 -0.2182  0.0944 -0.7697
 6195TIP3    H240077   1.738   5.628   4.145  0.1065 -0.5670 -0.1353
 6196TIP3   OH240078   2.336   3.417   4.348  0.2246 -0.2472 -0.0385
 6196TIP3    H140079   2.401   3.458   4.406  0.5674  0.2697 -0.7765
 6196TIP3    H240080   2.380   3.338   4.315  0.5852  0.2305 -0.7287
 6197TIP3   OH240081   4.661   5.346  16.018  0.1005 -0.7305  0.8066
 6197TIP3    H140082   4.756   5.338  16.013 -0.0145 -2.0436  0.2408
 6197TIP3    H240083   4.629   5.301  15.940 -0.9661  0.4380  0.5292
 6198TIP3   OH240084   1.761   5.634  13.267 -0.2072 -0.4155  0.1953
 6198TIP3    H140085   1.813   5.715  13.268  0.5352 -0.8767  0.1112
 6198TIP3    H240086   1.675   5.661  13.234  0.4105  0.1322 -1.0365
 6199TIP3   OH240087   4.420   6.828   0.282  0.6034  0.5256 -0.0251
 6199TIP3    H140088   4.415   6.784   0.197  0.8026 -0.5589  0.5120
 6199TIP3    H240089   4.459   6.914   0.262 -0.5543  0.8088 -1.2012
 6200TIP3   OH240090   2.744   0.568  11.183 -0.3772 -0.0103 -0.5200
 6200TIP3    H140091   2.654   0.548  11.157 -0.6594 -0.1279  0.4908
 6200TIP3    H240092   2.797   0.501  11.140 -1.1258 -2.0404  1.4903
 6201TIP3   OH240093   2.265   2.731   1.409  0.0384 -0.0112  0.0785
 6201TIP3    H140094   2.282   2.800   1.345 -0.8074  0.0310 -0.1154
 6201TIP3    H240095   2.344   2.678   1.408 -0.6340 -1.1305 -2.4401
 6202TIP3   OH240096   2.308   0.406   5.029 -0.0192  0.2255  0.0433
 6202TIP3    H140097   2.305   0.323   4.983  0.0888 -0.4996  1.2857
 6202TIP3    H240098   2.400   0.421   5.047 -0.0031  0.8088 -0.4911
 6203TIP3   OH240099   6.323   0.182  10.208  0.2243  0.7614  0.2439
 6203TIP3    H140100   6.338   0.201  10.115  1.7124 -1.0522  0.0400
 6203TIP3    H240101   6.236   0.143  10.211  1.4448 -2.4637 -1.0597
 6204TIP3   OH240102   1.521   5.912  16.607  0.3042  0.1221 -0.0225
 6204TIP3    H140103   1.521   5.978  16.538 -1.3996 -0.5974 -0.7615
 6204TIP3    H240104   1.438   5.866  16.596  0.4319 -0.6511  1.9136
 6205TIP3   OH240105   2.312   3.237   1.095  0.1278 -0.1337  0.3611
 6205TIP3    H140106   2.233   3.187   1.116 -0.3872  1.4863  2.6640
 6205TIP3    H240107   2.282   3.328   1.092  1.8690  0.5146  1.2348
 6206TIP3   OH240108   2.990   0.458  10.968  0.3532  0.3839  0.3656
 6206TIP3    H140109   2.997   0.387  11.032  0.7477  1.0654  1.1046
 6206TIP3    H240110   3.068   0.512  10.984 -0.0630  1.1159 -0.0203
 6207TIP3   OH240111   5.187   1.528  12.526 -0.1681 -0.2487  0.2292
 6207TIP3    H140112   5.260   1.472  12.554 -0.2656 -0.6408 -0.2848
 6207TIP3    H240113   5.185   1.598  12.591  2.5446  1.4148 -1.2727
 6208TIP3   OH240114   1.212   4.333   3.960  0.9905  0.5934 -0.0044
 6208TIP3    H140115   1.276   4.377   3.904 -1.1523  1.6982 -1.7691
 6208TIP3    H240116   1.184   4.257   3.909  1.0974 -0.0493  0.8761
 6209TIP3   OH240117   3.426   5.412   0.362  0.4573 -0.8977  0.0555
 6209TIP3    H140118   3.457   5.479   0.301  0.6984  1.9772  3.0300
 6209TIP3    H240119   3.331   5.419   0.358  0.4506 -1.3212 -0.5845
 6210TIP3   OH240120   1.290   0.994   5.755 -0.5177  0.1928 -0.1331
 6210TIP3    H140121   1.295   1.079   5.798 -0.4233 -0.9072  2.1798
 6210TIP3    H240122   1.204   0.993   5.714 -0.2231  1.6618 -0.8424
 6211TIP3   OH240123   5.841   3.033  15.919  0.0100  0.5877  0.1875
 6211TIP3    H140124   5.788   3.103  15.880 -0.5417  0.3694  0.5354
 6211TIP3    H240125   5.927   3.043  15.878 -0.1691  1.2297 -0.0535
 6212TIP3   OH240126   5.395   3.357   3.393 -0.5879 -0.0591  0.1758
 6212TIP3    H140127   5.370   3.438   3.348  0.8507  1.7518  2.4071
 6212TIP3    H240128   5.325   3.342   3.456  0.1300  0.6748  1.1794
 6213TIP3   OH240129   2.411   3.355   3.356  0.0272  0.2371 -0.3653
 6213TIP3    H140130   2.393   3.338   3.449  0.0511  0.5296 -0.3069
 6213TIP3    H240131   2.497   3.315   3.342  0.6434  1.3645  0.0824
 6214TIP3   OH240132   6.590   3.972  16.744 -0.2035 -0.0001  0.4364
 6214TIP3    H140133   6.658   3.906  16.746  0.3022  0.5196  0.7886
 6214TIP3    H240134   6.549   3.963  16.658 -0.1515 -0.7682  0.4911
 6215TIP3   OH240135   3.925   5.958  11.371 -0.3931 -0.4826  0.0347
 6215TIP3    H140136   3.944   5.876  11.417 -2.0732 -1.9567 -1.7621
 6215TIP3    H240137   3.987   5.961  11.299 -0.7978 -0.5296 -0.3184
 6216TIP3   OH240138   3.137   2.160   4.346  0.0846 -0.2727 -0.0282
 6216TIP3    H140139   3.043   2.174   4.359 -0.4745 -0.9231 -2.8133
 6216TIP3    H240140   3.147   2.146   4.252  3.1219  0.7235  0.0333
 6217TIP3   OH240141   3.153   6.498  10.161  0.1883 -0.3183 -0.1120
 6217TIP3    H140142   3.139   6.553  10.239 -0.8930  0.5044 -0.8608
 6217TIP3    H240143   3.227   6.538  10.116  1.5979 -1.4867  1.0576
 6218TIP3   OH240144   1.560   6.160   6.555  0.6604 -0.1451 -0.3590
 6218TIP3    H140145   1.625   6.225   6.582 -0.1083  0.7341 -0.5675
 6218TIP3    H240146   1.587   6.080   6.598  1.8911  0.1950 -0.4487
 6219TIP3   OH240147   4.418   3.718  16.655 -0.1188  0.4355 -0.2465
 6219TIP3    H140148   4.363   3.793  16.679  0.6507  0.7812  0.4859
 6219TIP3    H240149   4.386   3.691  16.569 -1.7496  0.3314  0.3431
 6220TIP3   OH240150   2.764   6.813  15.271  0.8186  0.0806  0.4446
 6220TIP3    H140151   2.692   6.753  15.252  0.4319  1.0939 -1.4985
 6220TIP3    H240152   2.722   6.896  15.290  1.4073  0.0623  2.0131
 6221TIP3   OH240153   4.005   4.716  13.474  0.2984 -0.2894 -0.1597
 6221TIP3    H140154   4.002   4.628  13.437  0.0262 -1.3983  2.3066
 6221TIP3    H240155   4.059   4.708  13.552  0.4502  1.7971  0.0121
 6222TIP3   OH240156   5.618   5.262  13.658 -0.0830 -0.3979 -0.0846
 6222TIP3    H140157   5.698   5.236  13.612  1.7595  0.9770  2.1788
 6222TIP3    H240158   5.590   5.342  13.614 -0.4819 -1.0903 -1.1306
 6223TIP3   OH240159   6.448   0.424   4.009  0.5192  0.4559  0.0343
 6223TIP3    H140160   6.458   0.335   4.044 -1.9060 -0.3291 -1.0893
 6223TIP3    H240161   6.408   0.412   3.923  1.3834  2.6093 -0.7469
 6224TIP3   OH240162   4.815   5.328  13.661  0.0739  0.4558 -0.3465
 6224TIP3    H140163   4.722   5.322  13.639  0.3802 -0.7858 -1.4082
 6224TIP3    H240164   4.858   5.269  13.599  1.6442  1.4736 -0.2731
 6225TIP3   OH240165   1.769   1.455   2.407 -0.2061  0.2717  0.3430
 6225TIP3    H140166   1.723   1.411   2.335  0.0677  0.5909 -0.0306
 6225TIP3    H240167   1.829   1.388   2.441 -1.1325 -0.2341  1.0136
 6226TIP3   OH240168   6.646   3.260  16.161  0.5067 -0.0683  0.7216
 6226TIP3    H140169   6.737   3.229  16.167 -0.0623 -1.6190  1.9612
 6226TIP3    H240170   6.594   3.180  16.152 -0.7478  0.8031 -0.0019
 6227TIP3   OH240171   4.521   0.054  12.130 -0.0348 -0.1532  0.0689
 6227TIP3    H140172   4.441   0.044  12.079 -0.4595  0.0727  0.6682
 6227TIP3    H240173   4.492   0.045  12.221  0.6960 -0.5359  0.2738
 6228TIP3   OH240174   4.899   3.747  16.077 -0.1345  0.7010 -0.4440
 6228TIP3    H140175   4.847   3.724  16.154  0.4437  1.2118  0.1095
 6228TIP3    H240176   4.990   3.742  16.107  0.1017  0.7946 -1.1265
 6229TIP3   OH240177   5.203   5.191   0.260  0.8692  0.0967  0.4573
 6229TIP3    H140178   5.191   5.245   0.182 -0.2770 -0.3581  0.3016
 6229TIP3    H240179   5.298   5.185   0.270  1.0507 -0.0417 -1.0545
 6230TIP3   OH240180   1.192   3.466  16.836 -0.0169  0.1632  0.4876
 6230TIP3    H140181   1.130   3.393  16.846  0.1221  0.0161  0.2921
 6230TIP3    H240182   1.139   3.544  16.850 -0.1596  0.0220  0.7460
 6231TIP3   OH240183   4.478   5.545  12.471  0.1013 -0.1404 -0.1232
 6231TIP3    H140184   4.566   5.546  12.510  0.4901  0.9189 -1.0053
 6231TIP3    H240185   4.491   5.507  12.384 -0.5798 -1.3794  0.2850
 6232TIP3   OH240186   3.694   4.542   2.665  0.3625  0.5370  0.4757
 6232TIP3    H140187   3.708   4.448   2.679  0.9116  0.5175 -0.1217
 6232TIP3    H240188   3.735   4.584   2.741  1.0334  0.3318  0.2426
 6233TIP3   OH240189   1.656   3.868   6.051 -0.5532 -0.3145  0.3202
 6233TIP3    H140190   1.725   3.871   5.984  1.1215 -2.4322  1.7985
 6233TIP3    H240191   1.670   3.947   6.103  1.0028 -0.8580  0.7772
 6234TIP3   OH240192   2.686   5.267   3.364 -0.2056 -0.1532  0.3586
 6234TIP3    H140193   2.667   5.175   3.384  0.2237 -0.1719  0.6922
 6234TIP3    H240194   2.735   5.299   3.440  0.8690 -0.0352 -0.3575
 6235TIP3   OH240195   3.457   1.449   0.330 -0.0380  0.1759 -0.8739
 6235TIP3    H140196   3.479   1.355   0.329 -1.0917 -0.0773 -1.2283
 6235TIP3    H240197   3.500   1.482   0.409 -0.1735 -0.7356 -0.3962
 6236TIP3   OH240198   5.157   6.741  11.189  0.2307  0.2317  0.3593
 6236TIP3    H140199   5.104   6.812  11.153  2.5513  2.7531  1.6115
 6236TIP3    H240200   5.230   6.732  11.128  0.8253  0.0667  1.0796
 6237TIP3   OH240201   2.933   3.251  11.130 -0.4184 -0.3137  0.0081
 6237TIP3    H140202   3.020   3.283  11.152 -0.7331  0.6201 -0.0471
 6237TIP3    H240203   2.922   3.274  11.038 -0.5522 -0.8421 -0.1121
 6238TIP3   OH240204   4.091   2.737  12.183 -0.0471  0.0988  0.2071
 6238TIP3    H140205   4.020   2.733  12.119 -0.6624 -0.8818  0.9077
 6238TIP3    H240206   4.047   2.758  12.266  0.0419 -2.9992  1.1583
 6239TIP3   OH240207   5.053   3.224   5.123 -0.3795 -0.2086 -0.6961
 6239TIP3    H140208   5.093   3.244   5.208 -1.0708  1.7611 -0.7800
 6239TIP3    H240209   5.122   3.183   5.072  0.8313  0.9985 -0.0667
 6240TIP3   OH240210   6.647   0.048   5.065  0.0143 -0.0528 -0.2356
 6240TIP3    H140211   6.733   0.082   5.087  0.0104 -0.4911  0.4509
 6240TIP3    H240212   6.663  -0.039   5.028 -0.0728  0.1969 -0.8761
 6241TIP3   OH240213   2.756   2.111   5.492  0.1711  0.0627 -0.6358
 6241TIP3    H140214   2.685   2.157   5.446 -0.0248 -0.1123 -0.5098
 6241TIP3    H240215   2.725   2.103   5.582 -0.3431 -1.4038 -0.9067
 6242TIP3   OH240216   6.064   2.853   4.282 -0.1257  0.3813  0.6287
 6242TIP3    H140217   6.128   2.850   4.210  0.3753  1.1178  1.0304
 6242TIP3    H240218   6.113   2.822   4.359 -0.4641  0.2538  0.7964
 6243TIP3   OH240219   5.626   0.342  16.653 -0.4189 -0.0488  0.3607
 6243TIP3    H140220   5.679   0.268  16.684 -1.2564 -1.0977 -0.6283
 6243TIP3    H240221   5.660   0.417  16.702  0.9697 -0.9391  0.8488
 6244TIP3   OH240222   5.927   6.726  11.238  0.1299  0.0168 -0.3031
 6244TIP3    H140223   5.939   6.640  11.279  3.1062  1.1112  1.3877
 6244TIP3    H240224   6.013   6.751  11.206 -0.9511  1.7954 -2.0960
 6245TIP3   OH240225   0.569   1.057  16.063  0.7058  0.0332 -0.2046
 6245TIP3    H140226   0.664   1.056  16.076  0.6067  2.2617  1.2477
 6245TIP3    H240227   0.532   1.035  16.149 -0.1567 -1.6087 -0.9389
 6246TIP3   OH240228   3.380   1.093   1.386  0.0714  0.7261  0.3351
 6246TIP3    H140229   3.336   1.171   1.421  0.3854  0.6804  0.8410
 6246TIP3    H240230   3.377   1.030   1.457 -1.2687 -0.1863 -0.4749
 6247TIP3   OH240231   1.049   4.898  15.329 -0.6071  0.3625 -0.2853
 6247TIP3    H140232   1.126   4.930  15.282 -0.7704  2.1913  0.5892
 6247TIP3    H240233   1.082   4.869  15.413 -0.8060  0.8391 -0.0348
 6248TIP3   OH240234   1.686   4.391   3.497 -0.1933 -0.4059  0.1492
 6248TIP3    H140235   1.610   4.449   3.485 -0.8598 -1.4115 -0.7248
 6248TIP3    H240236   1.758   4.437   3.453 -0.3716  0.3951  0.6788
 6249TIP3   OH240237   3.063   1.749  11.349  0.5992 -0.4394 -0.8145
 6249TIP3    H140238   3.049   1.802  11.428 -0.2685 -1.3520 -0.3347
 6249TIP3    H240239   3.017   1.797  11.280  0.0382 -0.4185 -0.4370
 6250TIP3   OH240240   0.319   2.502  14.277  0.4768  0.1477  0.1097
 6250TIP3    H140241   0.316   2.577  14.218 -2.7290  2.9402  3.3434
 6250TIP3    H240242   0.387   2.524  14.341 -0.2042  0.1220  0.8529
 6251TIP3   OH240243   3.417   1.860   3.747 -0.0654 -0.0280 -0.1215
 6251TIP3    H140244   3.386   1.915   3.675 -2.3960 -1.7134 -0.5310
 6251TIP3    H240245   3.362   1.782   3.743 -0.7448  0.0336  3.8608
 6252TIP3   OH240246   4.013   3.494   4.191 -0.7223  0.8551  0.0259
 6252TIP3    H140247   4.020   3.411   4.145  0.2956  1.3689 -0.7917
 6252TIP3    H240248   3.922   3.521   4.178 -0.2553  1.4917 -2.6837
 6253TIP3   OH240249   6.347   5.898   4.741  0.3604  0.5162  0.0017
 6253TIP3    H140250   6.276   5.958   4.719 -0.2846 -0.2228  0.0247
 6253TIP3    H240251   6.396   5.888   4.659 -1.1269 -1.0194 -0.7491
 6254TIP3   OH240252   0.013   5.414  14.359 -0.2218  0.8876  0.0786
 6254TIP3    H140253  -0.004   5.499  14.318  0.4203  1.2069  0.4789
 6254TIP3    H240254   0.063   5.434  14.438 -0.2619  0.1551  0.2971
 6255TIP3   OH240255   6.758   4.919  11.345  0.0029  0.7313  0.1929
 6255TIP3    H140256   6.710   4.839  11.362  0.6966 -0.4359 -2.6781
 6255TIP3    H240257   6.703   4.968  11.284  0.3243  1.6598  0.6268
 6256TIP3   OH240258   4.735   6.196  11.130  0.4052 -0.3007  0.4548
 6256TIP3    H140259   4.827   6.222  11.133 -0.1385  1.7229  0.5803
 6256TIP3    H240260   4.704   6.226  11.044 -0.3187 -0.2921  0.7141
 6257TIP3   OH240261   0.845   1.354  10.096  0.1357  0.0836 -0.3482
 6257TIP3    H140262   0.820   1.262  10.083  2.5880 -0.9348  1.3698
 6257TIP3    H240263   0.848   1.365  10.191  0.1822  1.8822 -0.5183
 6258TIP3   OH240264   1.112   4.270  11.261  0.0489  0.1668 -0.5685
 6258TIP3    H140265   1.172   4.257  11.188 -0.8081 -0.0198 -1.2524
 6258TIP3    H240266   1.126   4.361  11.288  2.0944 -0.4509  0.6302
 6259TIP3   OH240267   1.453   5.613   1.778 -0.4363  0.3991 -0.6575
 6259TIP3    H140268   1.522   5.653   1.832  1.6135 -0.5680 -2.3844
 6259TIP3    H240269   1.406   5.687   1.740  1.5066  1.2085 -1.6379
 6260TIP3   OH240270   2.797   0.762  11.756  0.2192  0.5189  0.2892
 6260TIP3    H140271   2.717   0.720  11.724  0.3966  0.3191  0.1111
 6260TIP3    H240272   2.827   0.706  11.826  0.0791  0.7176  0.5110
 6261TIP3   OH240273   0.932   2.922   2.033 -0.1845  0.2835 -0.0696
 6261TIP3    H140274   1.019   2.894   2.062 -0.6472  0.2630  1.3960
 6261TIP3    H240275   0.888   2.840   2.009  0.0550  0.2544 -0.4241
 6262TIP3   OH240276   4.329   6.147  16.532  0.1677  0.0857 -0.1224
 6262TIP3    H140277   4.290   6.200  16.601 -1.1270 -0.4221 -0.4341
 6262TIP3    H240278   4.323   6.201  16.454 -0.3792 -0.1765 -0.2686
 6263TIP3   OH240279   3.874   2.679   1.021  0.0898 -0.1772  0.4924
 6263TIP3    H140280   3.935   2.735   0.974  0.9742 -0.9583  0.6767
 6263TIP3    H240281   3.904   2.680   1.112  0.3188 -1.1962  0.4381
 6264TIP3   OH240282   1.864   1.870   4.064  0.3118  0.0372  0.1165
 6264TIP3    H140283   1.823   1.923   3.996 -0.0260 -1.0465 -0.5486
 6264TIP3    H240284   1.955   1.900   4.068  0.8865 -1.2052 -2.2192
 6265TIP3   OH240285   1.222   0.635   1.548  0.0424 -0.1455  0.5096
 6265TIP3    H140286   1.156   0.686   1.595 -0.0235 -0.2914  0.5748
 6265TIP3    H240287   1.177   0.604   1.470 -0.2023 -0.9159  0.9495
 6266TIP3   OH240288   1.642   1.823  15.781  0.0769 -0.3459 -1.0341
 6266TIP3    H140289   1.711   1.809  15.846 -0.2821 -1.6268 -0.9020
 6266TIP3    H240290   1.686   1.866  15.707  0.6250  0.5067 -0.2420
 6267TIP3   OH240291   1.403   5.358  14.469 -0.6969 -0.0044  0.0625
 6267TIP3    H140292   1.408   5.437  14.524  0.3798  0.3116 -0.4627
 6267TIP3    H240293   1.339   5.380  14.402 -3.6575 -1.1473  2.3043
 6268TIP3   OH240294   4.501   2.920  15.245  0.0136 -0.3022  0.7189
 6268TIP3    H140295   4.511   2.936  15.339  0.6719  0.4687  0.5284
 6268TIP3    H240296   4.526   3.002  15.203  0.5576 -0.8882 -0.1673
 6269TIP3   OH240297   2.680   6.479  15.803 -0.1951 -0.1612 -0.2489
 6269TIP3    H140298   2.591   6.459  15.834 -0.6187  1.6315 -0.1933
 6269TIP3    H240299   2.732   6.484  15.883 -0.8013  2.1463  0.0730
 6270TIP3   OH240300   0.611   5.224  16.653 -0.1246 -0.4097 -0.4378
 6270TIP3    H140301   0.596   5.307  16.607  0.5970  0.0429  0.1205
 6270TIP3    H240302   0.556   5.161  16.607 -0.4205  0.3076 -1.0906
 6271TIP3   OH240303   5.327   4.654   5.320 -0.1162 -0.7304  0.2004
 6271TIP3    H140304   5.305   4.590   5.388  0.5108  0.3881  1.5110
 6271TIP3    H240305   5.355   4.732   5.369  1.9424 -0.4241 -1.3532
 6272TIP3   OH240306   1.904   2.103  10.708 -0.8478 -0.0782  0.0383
 6272TIP3    H140307   1.847   2.150  10.647 -1.1793 -0.1417  0.2954
 6272TIP3    H240308   1.857   2.021  10.726 -0.5449 -0.2523  0.0383
 6273TIP3   OH240309   3.593   4.596   2.411 -0.0026 -0.2164  0.1377
 6273TIP3    H140310   3.611   4.508   2.376  1.9311 -0.5784  1.8215
 6273TIP3    H240311   3.617   4.589   2.504 -1.3808  1.6736  0.6758
 6274TIP3   OH240312   1.299   5.656   0.784  0.4417  0.0548  0.0326
 6274TIP3    H140313   1.363   5.607   0.836  0.3779  0.0990  0.1514
 6274TIP3    H240314   1.294   5.742   0.826 -0.6582 -0.3702  0.7976
 6275TIP3   OH240315   1.659   4.356  14.939 -0.3136 -0.5094 -0.0090
 6275TIP3    H140316   1.611   4.417  14.882 -1.3840 -0.2697  1.1202
 6275TIP3    H240317   1.693   4.289  14.879 -1.0749 -0.0477 -0.9796
 6276TIP3   OH240318   3.104   0.154   2.212  0.5415  0.1686  0.1170
 6276TIP3    H140319   3.021   0.139   2.167  1.0504 -1.6357 -0.3039
 6276TIP3    H240320   3.114   0.078   2.269  2.8052 -0.6846 -1.2929
 6277TIP3   OH240321   6.087   3.986  12.264  0.0763  0.6014 -0.5075
 6277TIP3    H140322   6.046   3.902  12.285 -0.6269  1.0538 -0.0326
 6277TIP3    H240323   6.070   4.041  12.341  2.5211  0.4834  0.2112
 6278TIP3   OH240324   4.046   6.365  12.474 -0.3478 -0.0742  0.2867
 6278TIP3    H140325   4.007   6.365  12.387  1.4972 -0.1869 -0.6034
 6278TIP3    H240326   4.017   6.284  12.514  1.4130 -1.7591 -1.5702
 6279TIP3   OH240327   6.104   3.981  13.712  0.3170  0.4131  0.2804
 6279TIP3    H140328   6.184   3.937  13.741 -0.7825 -1.5038  0.5140
 6279TIP3    H240329   6.037   3.954  13.775 -1.1773 -0.4536 -1.5815
 6280TIP3   OH240330   2.127   1.875  11.203  0.1348  0.0060  0.4088
 6280TIP3    H140331   2.121   1.864  11.108 -0.9557 -2.9547  0.7131
 6280TIP3    H240332   2.220   1.894  11.219  0.5794 -0.6586 -1.1626
 6281TIP3   OH240333   3.049   4.279  11.620 -0.2259 -0.1508 -0.7907
 6281TIP3    H140334   3.002   4.227  11.554 -2.1089  1.1553 -0.5448
 6281TIP3    H240335   2.991   4.353  11.638  1.4910  0.9896  0.3330
 6282TIP3   OH240336   6.187   1.820  15.842 -0.3573  0.2569  0.1751
 6282TIP3    H140337   6.234   1.891  15.886  1.1631  0.3447 -1.4740
 6282TIP3    H240338   6.121   1.865  15.789 -1.0572  0.2570  1.0295
 6283TIP3   OH240339   6.801   3.484   3.604 -0.1632  0.2629  0.0313
 6283TIP3    H140340   6.777   3.558   3.547 -0.2862 -0.1180 -0.4141
 6283TIP3    H240341   6.890   3.505   3.633  1.1183 -0.8975 -2.6183
 6284TIP3   OH240342   4.487   4.470   5.349 -0.5425 -0.3233  0.2797
 6284TIP3    H140343   4.493   4.545   5.409  0.8795 -0.2066  0.0271
 6284TIP3    H240344   4.395   4.467   5.323 -1.1425 -0.2135  2.2520
 6285TIP3   OH240345   6.253   0.470   1.537 -0.2106  0.3866 -0.0365
 6285TIP3    H140346   6.255   0.472   1.441 -1.6592 -0.0882 -0.1028
 6285TIP3    H240347   6.330   0.418   1.561  0.6977  1.2893 -0.8823
 6286TIP3   OH240348   0.525   1.701   1.455  0.1104 -0.9491  0.0547
 6286TIP3    H140349   0.530   1.796   1.465  1.6857 -1.0776  0.7843
 6286TIP3    H240350   0.518   1.667   1.544  2.1546 -1.5996  0.0233
 6287TIP3   OH240351   0.478   3.896   2.204  0.2347  0.1757 -0.3977
 6287TIP3    H140352   0.567   3.909   2.171  0.1724 -1.2498 -1.2478
 6287TIP3    H240353   0.432   3.976   2.180  0.8783  0.2625 -1.4330
 6288TIP3   OH240354   4.541   4.110  15.615  0.0058 -0.0434  0.2268
 6288TIP3    H140355   4.481   4.171  15.572  1.4735  0.6540 -0.8950
 6288TIP3    H240356   4.574   4.158  15.691  0.0830  0.0116  0.1570
 6289TIP3   OH240357   3.557   0.152   2.464 -0.3953 -0.1467 -0.2026
 6289TIP3    H140358   3.604   0.096   2.526 -0.1988  1.8687  1.6281
 6289TIP3    H240359   3.626   0.188   2.408 -0.1050  0.4105  0.4819
 6290TIP3   OH240360   4.842   1.065   5.119 -0.3052 -0.4327 -0.3548
 6290TIP3    H140361   4.779   1.038   5.053 -0.0563 -0.9486 -0.3913
 6290TIP3    H240362   4.802   1.041   5.203  0.2225 -1.6130 -0.4201
 6291TIP3   OH240363   3.530   6.687   2.520  0.1341  0.4711 -0.8325
 6291TIP3    H140364   3.567   6.598   2.516 -1.6220 -0.4202  1.1881
 6291TIP3    H240365   3.592   6.736   2.573  0.6696  0.2376 -1.2262
 6292TIP3   OH240366   6.363   2.058  15.380  0.3548  0.1297 -0.6985
 6292TIP3    H140367   6.311   2.086  15.455  0.0886  1.2206 -1.2642
 6292TIP3    H240368   6.413   2.136  15.355 -1.9160  0.8400 -3.5936
 6293TIP3   OH240369   1.477   2.466  14.233 -0.5081 -0.6295  0.2328
 6293TIP3    H140370   1.543   2.414  14.189 -2.1331  0.0062 -3.3115
 6293TIP3    H240371   1.526   2.537  14.274  1.1931 -1.6423  0.0372
 6294TIP3   OH240372   6.119   4.372  15.420  0.4300 -0.0783  0.1984
 6294TIP3    H140373   6.033   4.414  15.424 -0.1447 -1.1843  0.0085
 6294TIP3    H240374   6.177   4.437  15.381 -0.5230  0.3742 -0.4718
 6295TIP3   OH240375   3.925   2.187  17.083 -0.1407 -0.0715 -0.5416
 6295TIP3    H140376   3.963   2.189  17.170 -1.3752 -3.2216  0.1887
 6295TIP3    H240377   3.996   2.216  17.025  1.9084 -1.3889  1.1545
 6296TIP3   OH240378   1.171   5.803   0.285  0.5791 -0.6274  0.3811
 6296TIP3    H140379   1.246   5.811   0.344 -0.0254  0.7962  1.0063
 6296TIP3    H240380   1.166   5.889   0.242 -0.0093 -1.0873 -0.4885
 6297TIP3   OH240381   0.024   1.530  11.157  0.3446  0.0314  0.0520
 6297TIP3    H140382   0.105   1.567  11.193  0.4156 -0.7964  0.7841
 6297TIP3    H240383  -0.041   1.599  11.168  0.4732 -0.0412  1.3931
 6298TIP3   OH240384   4.164   1.565  16.784  0.0230 -0.5633 -0.8011
 6298TIP3    H140385   4.180   1.491  16.842 -0.5811 -0.3274 -0.3273
 6298TIP3    H240386   4.241   1.620  16.794 -0.7025  0.2177  0.9281
 6299TIP3   OH240387   6.838   5.574   4.004  0.2213 -0.7604  0.5895
 6299TIP3    H140388   6.749   5.603   4.023  0.1298 -0.2996 -0.4800
 6299TIP3    H240389   6.834   5.479   4.011 -0.2320 -0.7109  1.0428
 6300TIP3   OH240390   2.587   1.880  11.917 -0.1113 -0.5561  0.0246
 6300TIP3    H140391   2.495   1.852  11.919 -1.0788  2.0592 -1.6644
 6300TIP3    H240392   2.602   1.906  11.826  1.5764  1.1534  0.7172
 6301TIP3   OH240393   3.227   2.458  11.206  0.6905  0.2597 -0.0920
 6301TIP3    H140394   3.267   2.379  11.170 -0.4431  0.0043 -0.8730
 6301TIP3    H240395   3.297   2.503  11.253  1.5186 -0.8510 -0.2494
 6302TIP3   OH240396   2.340   2.701  16.852 -0.1318  0.3155 -0.4713
 6302TIP3    H140397   2.341   2.670  16.943  1.5307 -2.6643 -1.3558
 6302TIP3    H240398   2.276   2.772  16.852  0.6520  1.2588  3.2264
 6303TIP3   OH240399   3.952   0.777   4.824 -1.1672  0.2410  0.1828
 6303TIP3    H140400   3.942   0.743   4.913 -0.1713 -2.1820 -0.5558
 6303TIP3    H240401   3.880   0.737   4.775 -0.7309  0.2019 -0.4443
 6304TIP3   OH240402   3.031   3.376  14.646  0.0693  0.3432 -0.6450
 6304TIP3    H140403   3.067   3.401  14.561 -1.4745  0.7400 -1.2180
 6304TIP3    H240404   2.987   3.293  14.630 -1.5878  1.1725 -0.6626
 6305TIP3   OH240405   2.119   4.509  15.159 -1.0265 -0.2704  0.2327
 6305TIP3    H140406   2.134   4.466  15.243 -1.4121  2.6820  1.9340
 6305TIP3    H240407   2.205   4.541  15.132 -1.0921 -0.1812  0.1288
 6306TIP3   OH240408   4.717   4.092  11.027  1.1532  0.3810  0.5918
 6306TIP3    H140409   4.734   3.999  11.016  0.3442  0.2719  0.2237
 6306TIP3    H240410   4.743   4.132  10.943  0.7863  0.3848  0.4802
 6307TIP3   OH240411   6.602   0.471  16.285  0.4199 -0.3685  0.1983
 6307TIP3    H140412   6.665   0.421  16.337  2.0703 -0.3509 -1.6890
 6307TIP3    H240413   6.531   0.408  16.268  0.3755 -0.7016  1.4973
 6308TIP3   OH240414   5.656   0.822   3.465 -0.0710  0.2657 -0.1296
 6308TIP3    H140415   5.735   0.803   3.516 -1.6276 -3.0339  1.3085
 6308TIP3    H240416   5.645   0.917   3.474  2.0875  0.4118  2.0981
 6309TIP3   OH240417   5.871   0.488   1.412 -0.1361 -0.3461  0.0416
 6309TIP3    H140418   5.907   0.485   1.500 -0.9809 -2.3361  0.3809
 6309TIP3    H240419   5.778   0.509   1.424 -0.1456 -0.1143 -0.4056
 6310TIP3   OH240420   2.084   1.525  12.366 -0.2101 -0.3159  0.2107
 6310TIP3    H140421   2.152   1.531  12.298  1.3073  0.9341  1.7399
 6310TIP3    H240422   2.054   1.615  12.377  0.2668 -0.3259  1.8256
 6311TIP3   OH240423   4.521   2.314   4.319 -0.0367  0.2493 -0.0462
 6311TIP3    H140424   4.447   2.302   4.260  0.7288 -0.9594 -0.7841
 6311TIP3    H240425   4.526   2.409   4.332 -0.2569  0.5420 -1.8754
 6312TIP3   OH240426   5.868   4.266  16.113 -0.2764 -0.5102 -0.4256
 6312TIP3    H140427   5.789   4.231  16.073 -1.2007  0.5921  0.3959
 6312TIP3    H240428   5.843   4.352  16.146  1.4294  0.1318 -0.7006
 6313TIP3   OH240429   4.319   6.231   5.001  0.2243  0.0076 -0.1016
 6313TIP3    H140430   4.398   6.210   4.952 -0.0535  0.0407 -0.5712
 6313TIP3    H240431   4.262   6.275   4.937  0.0663  0.5217  0.3856
 6314TIP3   OH240432   1.288   5.715   5.513 -0.0513 -0.3422 -0.0009
 6314TIP3    H140433   1.205   5.667   5.522  0.0010 -0.5250 -0.4849
 6314TIP3    H240434   1.308   5.711   5.420  0.2510  0.1313  0.0426
 6315TIP3   OH240435   3.932   6.089  12.495  0.1422  0.3945 -0.5333
 6315TIP3    H140436   3.905   6.052  12.579  1.6409  0.5581  0.0459
 6315TIP3    H240437   3.952   6.012  12.441  4.5399  0.1000  1.0852
 6316TIP3   OH240438   3.296   0.098  15.029 -0.2007 -0.0421 -0.2095
 6316TIP3    H140439   3.299   0.003  15.044 -2.1500 -0.3357 -1.3746
 6316TIP3    H240440   3.363   0.113  14.962  0.0347 -0.6208 -0.1120
 6317TIP3   OH240441   5.021   1.319   3.910  0.2558  0.7594  0.2194
 6317TIP3    H140442   4.949   1.336   3.970  0.0732  3.5439 -0.6346
 6317TIP3    H240443   5.065   1.404   3.901  2.3580 -0.3668 -0.9336
 6318TIP3   OH240444   0.035   0.809   5.660 -0.4967 -0.0649 -0.1125
 6318TIP3    H140445   0.125   0.780   5.643  0.0609  0.1609  2.1163
 6318TIP3    H240446   0.044   0.900   5.687 -1.2682 -0.3317  1.1064
 6319TIP3   OH240447   1.969   3.907   1.791  0.0916  0.2959  0.0210
 6319TIP3    H140448   2.038   3.869   1.846  0.3998  0.9063  0.0730
 6319TIP3    H240449   1.888   3.881   1.833  0.2506 -1.1068 -0.4840
 6320TIP3   OH240450   2.952   1.224  13.703 -0.6768  0.2750 -0.2803
 6320TIP3    H140451   2.873   1.175  13.724 -1.5171  1.5660 -0.3214
 6320TIP3    H240452   2.931   1.270  13.621  0.7320 -0.6878 -1.2311
 6321TIP3   OH240453   6.813   0.045   4.708  0.3109  1.0497  0.2885
 6321TIP3    H140454   6.734   0.098   4.692  0.3564  1.0444  0.0543
 6321TIP3    H240455   6.884   0.108   4.711  0.4708  0.9270 -0.7455
 6322TIP3   OH240456   2.520   6.723  13.114 -0.2098  0.3897  0.4229
 6322TIP3    H140457   2.605   6.682  13.129 -1.3064 -2.3195 -0.1186
 6322TIP3    H240458   2.464   6.690  13.185 -1.4427 -0.0336 -0.6874
 6323TIP3   OH240459   3.852   0.763   3.721  0.2171  0.0359  0.1670
 6323TIP3    H140460   3.802   0.798   3.648 -1.5202  0.7659  1.6249
 6323TIP3    H240461   3.807   0.681   3.743 -0.2020  0.5593  1.3203
 6324TIP3   OH240462   0.856   2.580  13.248 -0.2362 -0.0431 -0.3156
 6324TIP3    H140463   0.915   2.553  13.178  0.1500 -0.0286  0.0014
 6324TIP3    H240464   0.848   2.502  13.303  1.5811  0.6826  1.0964
 6325TIP3   OH240465   3.895   2.720  13.487 -0.0475  0.2380  0.5258
 6325TIP3    H140466   3.813   2.748  13.446  0.0884 -1.9809 -1.4470
 6325TIP3    H240467   3.959   2.720  13.415  1.5357  1.1281  1.8563
 6326TIP3   OH240468   2.399   3.926   1.827 -0.0707  0.1284  0.5766
 6326TIP3    H140469   2.372   3.858   1.766 -0.0055 -1.2813  2.0707
 6326TIP3    H240470   2.481   3.960   1.791 -1.1323  0.8891 -1.2619
 6327TIP3   OH240471   2.211   1.560  16.059 -0.7558  0.3767 -0.4779
 6327TIP3    H140472   2.287   1.610  16.086  0.5035 -0.8432 -1.6318
 6327TIP3    H240473   2.179   1.603  15.980  0.1535 -0.4433 -1.3075
 6328TIP3   OH240474   0.540   6.761  17.008 -0.6858  0.5125  0.0731
 6328TIP3    H140475   0.618   6.815  17.010 -0.7826  0.7225 -0.9511
 6328TIP3    H240476   0.524   6.746  16.914 -1.5166 -0.0342  0.2900
 6329TIP3   OH240477   1.394   6.488  12.063 -0.7699  0.5677 -0.3848
 6329TIP3    H140478   1.422   6.557  12.123 -3.4286  1.1783  0.2633
 6329TIP3    H240479   1.462   6.486  11.995  0.9468  1.6667  1.2087
 6330TIP3   OH240480   4.908   0.241  16.679  0.4828 -0.6072  0.0208
 6330TIP3    H140481   4.908   0.312  16.743  1.8198 -1.7597  1.3361
 6330TIP3    H240482   4.976   0.266  16.616  1.0214 -0.7548  0.5372
 6331TIP3   OH240483   1.543   0.353  13.398  0.5338  0.3173 -0.0379
 6331TIP3    H140484   1.528   0.316  13.311  1.5998 -0.1509 -0.0425
 6331TIP3    H240485   1.467   0.325  13.449 -0.1912  0.7595 -0.8617
 6332TIP3   OH240486   2.581   1.099  15.381  0.3492 -0.2008  0.0775
 6332TIP3    H140487   2.639   1.135  15.448  0.8457 -0.8247 -0.0143
 6332TIP3    H240488   2.590   1.004  15.390  0.4372 -0.2920 -0.8898
 6333TIP3   OH240489   2.508   5.961  14.473 -0.3636  0.2100  0.3835
 6333TIP3    H140490   2.591   5.988  14.434 -0.0281  0.1503  1.0426
 6333TIP3    H240491   2.462   6.044  14.491  0.9105  0.4760  2.9413
 6334TIP3   OH240492   5.112   4.975  16.199  0.0828 -0.0566 -0.7690
 6334TIP3    H140493   5.185   4.979  16.261 -0.5927 -1.7788  0.2204
 6334TIP3    H240494   5.093   5.067  16.179  3.3876  0.4681 -2.2278
 6335TIP3   OH240495   6.012   0.338   3.620  0.5396 -0.0748 -0.3648
 6335TIP3    H140496   6.045   0.265   3.673  2.0137  1.3968  0.8491
 6335TIP3    H240497   5.981   0.402   3.684  1.4602  1.3447 -1.2956
 6336TIP3   OH240498   0.681   1.444  16.192  0.0797  0.0528 -0.4164
 6336TIP3    H140499   0.746   1.405  16.252 -2.2758 -0.3922  2.0305
 6336TIP3    H240500   0.628   1.370  16.164 -0.4334  0.6398 -1.0032
 6337TIP3   OH240501   1.739   1.573  16.463 -0.1431 -0.1107 -0.3552
 6337TIP3    H140502   1.748   1.519  16.541 -0.9479 -0.5685 -0.5682
 6337TIP3    H240503   1.820   1.624  16.460  0.2736 -0.7096  0.2989
 6338TIP3   OH240504   1.909   2.726   3.695 -0.3602 -0.3421 -0.4312
 6338TIP3    H140505   1.834   2.762   3.743 -0.2365 -0.8903  0.1774
 6338TIP3    H240506   1.923   2.639   3.733  1.8252  0.4927  0.8700
 6339TIP3   OH240507   0.357   2.218   2.917  0.1541 -0.4434  0.1671
 6339TIP3    H140508   0.320   2.249   3.000  0.0085 -0.7000  0.1968
 6339TIP3    H240509   0.282   2.212   2.858  0.3556  0.3922 -0.1840
 6340TIP3   OH240510   3.493   0.132  12.145 -0.5779 -0.3756 -0.3073
 6340TIP3    H140511   3.506   0.167  12.057  1.0198 -1.9405 -0.7486
 6340TIP3    H240512   3.399   0.116  12.151 -0.8154  0.5112 -1.4115
 6341TIP3   OH240513   1.151   3.421   2.609  0.2586 -0.0423 -0.6599
 6341TIP3    H140514   1.098   3.469   2.545 -1.7905 -0.7958  0.3911
 6341TIP3    H240515   1.204   3.361   2.556 -2.2641 -1.5126 -1.6991
 6342TIP3   OH240516   0.030   0.455  11.480  0.2813  0.1348  0.4533
 6342TIP3    H140517   0.007   0.362  11.488 -2.3247  0.5808 -0.9072
 6342TIP3    H240518   0.020   0.490  11.569 -0.7046 -0.4963  0.6074
 6343TIP3   OH240519   4.842   2.246   1.660 -0.3012 -0.0722 -0.1281
 6343TIP3    H140520   4.843   2.261   1.566  0.7959 -0.2621 -0.1556
 6343TIP3    H240521   4.903   2.310   1.696 -0.7357  0.0240  0.4617
 6344TIP3   OH240522   5.794   3.025   0.365 -0.2533 -0.0913 -0.1972
 6344TIP3    H140523   5.793   3.078   0.286  0.6890 -1.0599 -0.9017
 6344TIP3    H240524   5.750   3.078   0.431  0.3685  1.4089 -0.9488
 6345TIP3   OH240525   4.452   1.663  15.460 -0.4224  0.3341 -0.1763
 6345TIP3    H140526   4.496   1.627  15.383  1.2341  0.1712  0.8117
 6345TIP3    H240527   4.367   1.693  15.427 -1.0255 -2.5074 -1.4427
 6346TIP3   OH240528   6.002   0.408  11.905 -0.4820  0.2162 -0.0103
 6346TIP3    H140529   5.912   0.412  11.872  0.0814 -0.1026 -1.7132
 6346TIP3    H240530   6.055   0.385  11.828  1.1656  1.2258  0.7515
 6347TIP3   OH240531   5.033   3.522   2.185  0.2711 -0.3173  0.1849
 6347TIP3    H140532   5.012   3.536   2.093  1.0172  0.8129  0.1741
 6347TIP3    H240533   5.128   3.536   2.191  0.0842  0.6710  1.3024
 6348TIP3   OH240534   0.813   5.513   5.730  0.2728  0.1053  0.1177
 6348TIP3    H140535   0.790   5.454   5.657  2.5570  0.0751 -0.6577
 6348TIP3    H240536   0.814   5.456   5.807 -1.1176 -0.0890  0.0130
 6349TIP3   OH240537   0.664   4.571   0.402 -0.1294  0.2306 -0.3154
 6349TIP3    H140538   0.581   4.527   0.380  1.3596 -2.9704 -0.1240
 6349TIP3    H240539   0.648   4.611   0.488 -1.5268 -0.1738 -0.3637
 6350TIP3   OH240540   5.714   6.351   5.409  0.2284  0.2008  0.3547
 6350TIP3    H140541   5.740   6.271   5.364  0.1843  0.4846 -0.1765
 6350TIP3    H240542   5.764   6.349   5.491  2.3166  0.9429 -0.8147
 6351TIP3   OH240543   6.152   4.980   0.147 -0.8713 -0.0853  0.7454
 6351TIP3    H140544   6.225   5.036   0.121 -0.2383 -0.2715  2.0228
 6351TIP3    H240545   6.180   4.892   0.125 -1.5603  0.0023 -0.5831
 6352TIP3   OH240546   1.074   0.469  14.510  0.1429 -0.3549  0.3228
 6352TIP3    H140547   1.054   0.464  14.604 -0.0958  0.1935  0.3044
 6352TIP3    H240548   1.147   0.530  14.504  0.8643 -1.1988  0.2413
 6353TIP3   OH240549   6.774   3.455   5.486 -0.3920  0.7113 -0.0301
 6353TIP3    H140550   6.691   3.498   5.506  0.1239  0.9988  1.6877
 6353TIP3    H240551   6.758   3.408   5.404 -2.5586 -0.0630  0.7555
 6354TIP3   OH240552   3.465   6.572   1.538 -0.1342  0.0013  0.2504
 6354TIP3    H140553   3.534   6.630   1.507 -0.4377 -0.4360 -1.3122
 6354TIP3    H240554   3.511   6.502   1.585  0.3867  0.3442  0.2583
 6355TIP3   OH240555   4.291   4.337  14.253 -0.4396 -0.0711  0.0962
 6355TIP3    H140556   4.355   4.394  14.296 -1.4730  0.3940  1.0607
 6355TIP3    H240557   4.343   4.264  14.220  0.9533  1.4312 -1.2543
 6356TIP3   OH240558   0.604   6.407   0.018  0.5530 -0.1373  0.2399
 6356TIP3    H140559   0.617   6.499   0.044  0.7057 -0.0530 -0.1282
 6356TIP3    H240560   0.686   6.364   0.042  0.7547 -0.0267 -0.2333
 6357TIP3   OH240561   0.560   4.555   4.623 -0.5941 -0.4224  0.0551
 6357TIP3    H140562   0.650   4.558   4.657 -0.3182  1.1352 -0.7132
 6357TIP3    H240563   0.516   4.628   4.667 -0.5979  0.7839 -1.8581
 6358TIP3   OH240564   3.713   3.008  13.744  0.2994  0.1343  0.1296
 6358TIP3    H140565   3.718   2.913  13.759 -1.4703 -0.2249 -1.2322
 6358TIP3    H240566   3.800   3.032  13.711  0.7498 -1.0149  0.4314
 6359TIP3   OH240567   6.433   1.565   1.807 -0.8188 -0.5964  0.6069
 6359TIP3    H140568   6.521   1.597   1.790 -1.1591 -0.2418 -0.5804
 6359TIP3    H240569   6.434   1.539   1.899  0.4577 -0.4051  0.6600
 6360TIP3   OH240570   4.845   4.107   3.069  0.1703 -0.0755  0.9516
 6360TIP3    H140571   4.926   4.150   3.042 -0.9303  0.5276 -1.7373
 6360TIP3    H240572   4.782   4.178   3.079 -0.6017 -0.7033  0.6478
 6361TIP3   OH240573   5.866   3.787   2.713 -0.2479  0.0782 -0.6809
 6361TIP3    H140574   5.888   3.703   2.672 -1.7750 -0.2213 -0.9691
 6361TIP3    H240575   5.881   3.852   2.644 -1.7423 -0.3054 -1.4274
 6362TIP3   OH240576   4.082   5.985   1.196  0.1948  0.0848  0.4112
 6362TIP3    H140577   4.152   5.963   1.258  0.2439 -0.5147  0.1542
 6362TIP3    H240578   4.024   6.044   1.244 -0.4538 -1.3594  1.4789
 6363TIP3   OH240579   3.063   2.507  16.337 -0.7669 -0.4559  0.2595
 6363TIP3    H140580   3.138   2.564  16.322 -0.6288 -0.7276 -0.1293
 6363TIP3    H240581   3.085   2.458  16.416 -1.3105  0.6956  1.1463
 6364TIP3   OH240582   0.890   4.157   0.235 -0.2429 -0.4778  0.6171
 6364TIP3    H140583   0.954   4.086   0.228  1.7625  1.3251 -0.7392
 6364TIP3    H240584   0.937   4.235   0.204 -2.3496  1.4547  1.9478
 6365TIP3   OH240585   0.342   2.371  16.794  1.0235 -0.1801 -0.5413
 6365TIP3    H140586   0.360   2.277  16.798  0.4766 -0.2514  2.1757
 6365TIP3    H240587   0.274   2.385  16.859  0.9107  2.0913 -1.0751
 6366TIP3   OH240588   0.733   0.842   0.023  0.6269 -0.5654 -0.2507
 6366TIP3    H140589   0.656   0.879  -0.020  0.0472 -0.0266  1.1623
 6366TIP3    H240590   0.801   0.844  -0.043  0.2209  1.7271 -0.6733
 6367TIP3   OH240591   6.158   6.136  14.301 -0.1138 -0.0267  0.1590
 6367TIP3    H140592   6.082   6.082  14.280 -0.3890 -0.2830  1.7214
 6367TIP3    H240593   6.123   6.224  14.314  0.1978  0.3535 -1.3876
 6368TIP3   OH240594   6.024   4.768   2.638 -0.2088 -0.3635  0.1231
 6368TIP3    H140595   6.070   4.786   2.556 -2.8381  2.0275 -0.9895
 6368TIP3    H240596   6.045   4.842   2.694 -1.6421  0.1314  0.0420
 6369TIP3   OH240597   4.293   0.212  16.364  0.3687  0.1958  0.4341
 6369TIP3    H140598   4.276   0.157  16.440  1.3315 -0.3518  0.2672
 6369TIP3    H240599   4.362   0.272  16.392  0.2188  0.4719  0.2170
 6370TIP3   OH240600   3.878   4.922   3.549  0.0055  0.3537  0.5652
 6370TIP3    H140601   3.786   4.928   3.574 -0.1122 -0.9421  0.5587
 6370TIP3    H240602   3.902   4.832   3.572  0.4643 -0.2496 -2.0570
 6371TIP3   OH240603   4.246   1.784  15.047 -0.1156 -0.1144 -0.1689
 6371TIP3    H140604   4.259   1.691  15.064  0.8467 -0.0658 -0.5482
 6371TIP3    H240605   4.183   1.813  15.112  0.0001 -0.9143  0.3019
 6372TIP3   OH240606   3.210   3.515  11.070  0.2330 -0.1443 -0.2641
 6372TIP3    H140607   3.263   3.466  11.007 -1.7649 -3.1286  0.1583
 6372TIP3    H240608   3.133   3.542  11.020  0.7320  1.6227 -0.1588
 6373TIP3   OH240609   4.509   1.135  12.996 -0.0808 -0.2560  0.0465
 6373TIP3    H140610   4.507   1.213  12.941 -1.1943 -0.4547 -0.2112
 6373TIP3    H240611   4.534   1.168  13.083 -0.7482  0.4202 -0.0107
 6374TIP3   OH240612   3.713   0.864  16.931  0.3573  0.4580  0.1023
 6374TIP3    H140613   3.629   0.842  16.890 -1.8786  2.8602  2.9633
 6374TIP3    H240614   3.735   0.786  16.982 -0.0303 -0.2376 -0.7420
 6375TIP3   OH240615   3.263   4.689   1.516  0.2757 -0.1410  0.8837
 6375TIP3    H140616   3.335   4.749   1.535 -0.1866  0.4603  0.7889
 6375TIP3    H240617   3.228   4.720   1.432  0.0978 -0.6088  0.7838
 6376TIP3   OH240618   5.648   6.579   1.092  0.2500 -0.0744  0.4216
 6376TIP3    H140619   5.657   6.613   1.003 -1.5911  1.2888  0.7004
 6376TIP3    H240620   5.722   6.518   1.102  0.8361  0.1783 -1.8105
 6377TIP3   OH240621   6.793   3.148   5.592  0.4398 -0.7382 -0.3424
 6377TIP3    H140622   6.763   3.234   5.562  1.3313 -0.1289  0.4519
 6377TIP3    H240623   6.730   3.123   5.660  0.2373 -0.6585 -0.5016
 6378TIP3   OH240624   5.189   0.287  11.828  0.3938  1.0999  0.3579
 6378TIP3    H140625   5.216   0.354  11.765 -1.5088  1.8106  0.2086
 6378TIP3    H240626   5.116   0.328  11.876 -1.4556 -1.1461 -0.3671
 6379TIP3   OH240627   5.565   1.963   2.046  0.2772  0.3557  0.0061
 6379TIP3    H140628   5.643   2.002   2.086 -0.1337  0.9344  0.2518
 6379TIP3    H240629   5.535   2.029   1.983  0.7787 -0.4407 -1.1090
 6380TIP3   OH240630   1.317   1.583  14.714 -0.3565  0.2242 -0.1139
 6380TIP3    H140631   1.361   1.503  14.685 -0.0685  0.4234 -0.2307
 6380TIP3    H240632   1.381   1.653  14.699 -0.0294  0.2829  1.3949
 6381TIP3   OH240633   0.993   3.026   6.026 -0.2412 -0.2266 -0.2128
 6381TIP3    H140634   1.025   3.081   6.098  1.1074  0.1961 -1.1194
 6381TIP3    H240635   0.919   3.075   5.991  1.4146  1.4933 -1.5246
 6382TIP3   OH240636   3.392   1.447  16.429 -0.2247 -0.4462  0.2722
 6382TIP3    H140637   3.318   1.485  16.476  1.2287  1.0113  1.4669
 6382TIP3    H240638   3.370   1.459  16.336 -1.3638  0.1615  0.6020
 6383TIP3   OH240639   1.992   5.422   2.581  0.7419  0.6180  0.7675
 6383TIP3    H140640   2.032   5.498   2.539  1.0108 -0.1207 -0.3734
 6383TIP3    H240641   2.002   5.437   2.675  2.9789  0.8566  0.5436
 6384TIP3   OH240642   5.479   3.825  16.177 -0.6081  0.3651 -0.3624
 6384TIP3    H140643   5.527   3.855  16.100 -1.8110  0.3665 -1.1404
 6384TIP3    H240644   5.426   3.901  16.203  0.9343  0.9041  1.4573
 6385TIP3   OH240645   6.141   1.518   4.030 -0.0907 -0.0820  0.2061
 6385TIP3    H140646   6.229   1.555   4.032 -0.2831  0.3724  2.4789
 6385TIP3    H240647   6.154   1.427   4.002  0.9557  0.2818 -0.5446
 6386TIP3   OH240648   5.385   0.057  11.503  0.1803 -0.2233  0.5413
 6386TIP3    H140649   5.310  -0.003  11.506  1.3939 -1.7575  1.6055
 6386TIP3    H240650   5.400   0.071  11.409 -1.3920  0.1054  0.3065
 6387TIP3   OH240651   5.717   1.785   0.547  0.2329 -0.3578 -0.1049
 6387TIP3    H140652   5.792   1.764   0.603  0.7464 -1.3361 -1.1022
 6387TIP3    H240653   5.646   1.730   0.580  0.9286 -2.0388 -1.2386
 6388TIP3   OH240654   4.213   3.884  16.483 -0.3237  0.4028 -0.1671
 6388TIP3    H140655   4.230   3.961  16.536 -1.7004 -0.3519  1.4268
 6388TIP3    H240656   4.135   3.906  16.432 -0.0447  0.4660 -0.5738
 6389TIP3   OH240657   1.741   2.865   3.899 -0.2986 -0.0631 -0.4420
 6389TIP3    H140658   1.810   2.903   3.844  1.3265  0.1830  1.6703
 6389TIP3    H240659   1.672   2.931   3.899 -1.2433 -0.8543 -3.6425
 6390TIP3   OH240660   4.173   1.272   6.069  0.0256  0.3373 -0.1817
 6390TIP3    H140661   4.200   1.189   6.109 -0.6001  0.0778 -0.2866
 6390TIP3    H240662   4.125   1.247   5.991 -0.0065  0.8080 -0.3189
 6391TIP3   OH240663   1.861   0.707  13.426  1.0722 -0.2651  0.1802
 6391TIP3    H140664   1.891   0.629  13.379  1.4517 -0.2273  0.3572
 6391TIP3    H240665   1.766   0.695  13.435  0.8472  0.1350 -1.3652
 6392TIP3   OH240666   0.753   0.167  14.490  0.2261  0.3961  0.5352
 6392TIP3    H140667   0.750   0.084  14.537 -2.2630  0.0967 -0.0406
 6392TIP3    H240668   0.802   0.147  14.410  0.5332 -0.2479  0.8757
 6393TIP3   OH240669   3.085   3.687  15.785 -0.0504  0.2075  0.0659
 6393TIP3    H140670   3.160   3.628  15.785 -0.0214  0.2432 -0.4887
 6393TIP3    H240671   3.037   3.665  15.706 -1.3802 -0.7575  1.1059
 6394TIP3   OH240672   1.183   2.123   0.287  0.1628  0.4415 -0.5116
 6394TIP3    H140673   1.211   2.164   0.205  0.1804 -0.4132 -0.9414
 6394TIP3    H240674   1.114   2.181   0.321  1.5208  1.8945 -0.0919
 6395TIP3   OH240675   0.919   3.816   5.762  0.0212 -0.2620 -0.3396
 6395TIP3    H140676   0.869   3.799   5.842 -2.2655  1.9578 -1.1466
 6395TIP3    H240677   1.010   3.814   5.790 -0.6912  0.5103  2.3681
 6396TIP3   OH240678   0.063   2.757  14.909  0.5291 -0.0508  0.0635
 6396TIP3    H140679   0.086   2.832  14.964 -1.2347 -0.3097  1.2211
 6396TIP3    H240680   0.131   2.692  14.929  1.3822  0.7740 -0.0443
 6397TIP3   OH240681   2.727   0.398   5.603  0.0632 -0.5312  0.0715
 6397TIP3    H140682   2.734   0.484   5.560 -2.3336 -0.7693 -0.9358
 6397TIP3    H240683   2.780   0.407   5.682  1.6983  1.1197 -1.0960
 6398TIP3   OH240684   4.098   2.134  12.210 -0.0608 -0.3568 -0.4730
 6398TIP3    H140685   4.025   2.076  12.190  0.0707 -0.7671  0.2249
 6398TIP3    H240686   4.161   2.119  12.139  0.5189 -1.9949  0.3402
 6399TIP3   OH240687   6.030   1.409   5.389  0.4126  0.4507 -0.2094
 6399TIP3    H140688   5.957   1.366   5.343  1.2611 -0.0362 -1.1407
 6399TIP3    H240689   6.006   1.404   5.481  0.9734 -3.1575 -0.1120
 6400TIP3   OH240690   5.848   5.411  15.016 -0.1458  0.4703 -0.0604
 6400TIP3    H140691   5.772   5.470  15.016 -1.0108 -0.6011 -0.9877
 6400TIP3    H240692   5.911   5.453  14.958 -1.2153 -0.0471 -1.6439
 6401TIP3   OH240693   4.800   3.167   3.948 -0.3854 -0.7556  0.3091
 6401TIP3    H140694   4.880   3.220   3.949 -0.9128  0.1168  2.7598
 6401TIP3    H240695   4.752   3.198   3.871  2.0218 -2.0350 -1.8383
 6402TIP3   OH240696   4.731   6.584   0.975 -0.2126  0.2401  0.2005
 6402TIP3    H140697   4.813   6.535   0.972  0.3423  1.1770 -0.3869
 6402TIP3    H240698   4.677   6.545   0.907 -0.8707 -1.3710  1.5551
 6403TIP3   OH240699   5.998   4.327  13.955 -0.1033 -0.5521 -0.6330
 6403TIP3    H140700   5.984   4.418  13.982 -0.5929 -0.8955  0.3039
 6403TIP3    H240701   6.088   4.325  13.924  1.5160 -0.6853  3.4887
 6404TIP3   OH240702   0.941   4.634   2.795  0.0827 -0.1197 -0.7037
 6404TIP3    H140703   0.937   4.556   2.740  2.4177 -0.7997 -0.0437
 6404TIP3    H240704   0.860   4.633   2.846 -0.0872 -1.9143 -0.9641
 6405TIP3   OH240705   5.261   4.171  11.497  0.0245 -0.3191  0.1006
 6405TIP3    H140706   5.310   4.093  11.472  1.6832  0.5565  0.4789
 6405TIP3    H240707   5.170   4.141  11.505  0.4213 -1.9195 -0.9563
 6406TIP3   OH240708   4.998   0.787   4.148 -0.1839  0.1513 -0.0418
 6406TIP3    H140709   4.978   0.748   4.233 -1.6692 -0.4425 -0.6219
 6406TIP3    H240710   5.088   0.760   4.129 -0.9324 -2.5694 -0.1483
 6407TIP3   OH240711   4.948   3.873   0.830  0.1174 -0.0999  0.0255
 6407TIP3    H140712   4.876   3.907   0.884 -1.4181 -0.2962 -1.7795
 6407TIP3    H240713   4.969   3.945   0.771  3.3167  0.9336  2.1703
 6408TIP3   OH240714   5.787   1.850   1.563  0.3710 -0.5850 -0.2861
 6408TIP3    H140715   5.723   1.877   1.497 -0.0845  1.7749  1.0073
 6408TIP3    H240716   5.868   1.839   1.513 -0.4491 -1.1458 -1.5627
 6409TIP3   OH240717   5.309   4.264  14.672 -0.2177 -0.4737 -0.4409
 6409TIP3    H140718   5.264   4.194  14.719 -0.0759 -0.1090  0.2478
 6409TIP3    H240719   5.238   4.309  14.625 -0.2092 -1.5591 -1.5550
 6410TIP3   OH240720   0.312   4.754   0.289  0.5532  0.2538  0.0101
 6410TIP3    H140721   0.281   4.686   0.349 -0.2246  0.6974  0.1229
 6410TIP3    H240722   0.340   4.706   0.211 -0.7718 -0.1561 -0.2403
 6411TIP3   OH240723   0.844   0.230  11.627  0.3497  0.1929  0.0558
 6411TIP3    H140724   0.855   0.168  11.556 -0.6176 -0.5236  0.4947
 6411TIP3    H240725   0.915   0.293  11.617  0.3973 -0.0644 -1.3546
 6412TIP3   OH240726   1.856   3.250  16.320 -0.4628 -0.2065  0.2601
 6412TIP3    H140727   1.889   3.336  16.295 -0.0871 -0.8707 -1.7423
 6412TIP3    H240728   1.934   3.196  16.331 -0.6557 -0.1518  2.2957
 6413TIP3   OH240729   4.138   0.958  11.077  0.3231  0.1572 -0.0765
 6413TIP3    H140730   4.105   1.002  11.155  0.0142  0.6320 -0.4703
 6413TIP3    H240731   4.129   1.023  11.007  1.6514  0.1307 -0.2897
 6414TIP3   OH240732   0.570   3.453   4.268  0.2244 -0.4579  1.1044
 6414TIP3    H140733   0.519   3.523   4.226  0.5869 -0.7307  0.1941
 6414TIP3    H240734   0.550   3.374   4.218  2.7687 -0.2895 -0.3665
 6415TIP3   OH240735   2.420   0.290  13.663 -0.1822 -0.0108  0.3820
 6415TIP3    H140736   2.347   0.332  13.618  0.9838  0.4908 -1.1377
 6415TIP3    H240737   2.379   0.231  13.726 -1.9361 -1.0869 -1.6494
 6416TIP3   OH240738   1.703   2.390   6.020  0.2739  0.1812  0.3530
 6416TIP3    H140739   1.637   2.356   5.959 -0.7263  1.1027  0.8973
 6416TIP3    H240740   1.777   2.330   6.010  0.0262  0.1229 -1.5314
 6417TIP3   OH240741   1.087   4.580   1.287  0.3398 -0.1334 -0.0019
 6417TIP3    H140742   1.044   4.663   1.272  1.4586  0.0467 -2.9212
 6417TIP3    H240743   1.016   4.518   1.304 -0.9247  0.6379 -2.0764
 6418TIP3   OH240744   5.052   1.087  16.919 -0.1948  0.2105  0.2874
 6418TIP3    H140745   5.053   1.023  16.848 -0.1062  0.7906 -0.2419
 6418TIP3    H240746   5.101   1.045  16.990  0.3189 -0.0998 -0.2398
 6419TIP3   OH240747   3.999   1.368  13.747  0.1800 -0.4012 -0.2159
 6419TIP3    H140748   3.952   1.451  13.753 -0.5798 -0.8804  0.6914
 6419TIP3    H240749   4.086   1.392  13.714 -0.1205  0.7118 -0.2382
 6420TIP3   OH240750   1.761   4.445  11.486  0.4652  0.3369  0.3609
 6420TIP3    H140751   1.743   4.383  11.556  1.4679 -1.2190 -0.6672
 6420TIP3    H240752   1.857   4.449  11.482  0.5155 -1.0540 -2.0206
 6421TIP3   OH240753   0.292   6.190   3.596  0.5426  0.0378 -0.0753
 6421TIP3    H140754   0.285   6.095   3.589  1.2019 -0.0498  0.3639
 6421TIP3    H240755   0.351   6.215   3.525 -0.5094  0.2593 -0.9038
 6422TIP3   OH240756   4.803   3.665   1.634  0.6287 -0.7245 -0.0992
 6422TIP3    H140757   4.894   3.664   1.603  0.7024 -1.5134  0.1261
 6422TIP3    H240758   4.763   3.588   1.594  0.2292 -0.7329  0.3135
 6423TIP3   OH240759   3.943   1.596   6.410 -0.0607  0.1862 -0.1489
 6423TIP3    H140760   3.903   1.517   6.447  0.2746  0.7501  1.5148
 6423TIP3    H240761   3.978   1.568   6.326  1.5877 -1.9406  1.1465
 6424TIP3   OH240762   5.820   4.251  11.669 -0.1961 -0.1216  0.2013
 6424TIP3    H140763   5.791   4.337  11.700 -1.3330 -0.7944  1.0851
 6424TIP3    H240764   5.743   4.215  11.625 -0.4202 -1.5436  1.6917
 6425TIP3   OH240765   6.270   4.291   2.918 -0.5538 -0.1331 -0.2548
 6425TIP3    H140766   6.193   4.339   2.948 -0.2620  0.0474  0.2159
 6425TIP3    H240767   6.246   4.199   2.929 -0.1648 -0.0749  1.3327
 6426TIP3   OH240768   1.820   0.881  14.234  0.4406 -0.3011 -0.1696
 6426TIP3    H140769   1.758   0.809  14.225  1.3119 -1.2497  0.9534
 6426TIP3    H240770   1.844   0.903  14.144 -1.6053  0.2126 -0.6342
 6427TIP3   OH240771   3.441   2.080  12.126  0.3255 -0.4551  0.7744
 6427TIP3    H140772   3.478   1.993  12.113 -0.6063 -0.6586 -0.7638
 6427TIP3    H240773   3.404   2.103  12.041 -1.4322  0.4859  1.7369
 6428TIP3   OH240774   0.333   4.141   4.556 -0.2995 -0.4481  0.5367
 6428TIP3    H140775   0.287   4.160   4.474  1.9021 -0.9558 -0.9108
 6428TIP3    H240776   0.413   4.096   4.528  1.0756  0.3649  2.8795
 6429TIP3   OH240777   3.442   3.814  16.424  0.3344 -0.0443 -0.3105
 6429TIP3    H140778   3.423   3.887  16.482 -0.4730 -1.1341  0.8461
 6429TIP3    H240779   3.356   3.781  16.398  0.6776 -0.9832 -0.2828
 6430TIP3   OH240780   1.033   3.695  16.884 -0.0704 -0.2762 -0.0212
 6430TIP3    H140781   1.033   3.742  16.968  1.3676  0.3781 -0.3592
 6430TIP3    H240782   1.010   3.762  16.820  2.5936  0.2053 -0.5852
 6431TIP3   OH240783   2.242   5.168   4.995 -0.7293  0.2014  0.3275
 6431TIP3    H140784   2.220   5.259   5.016  1.1126  0.5101  1.0714
 6431TIP3    H240785   2.336   5.168   4.982 -0.8921 -1.3332 -1.2348
 6432TIP3   OH240786   2.163   4.010   2.075  0.0502 -0.1950  0.2595
 6432TIP3    H140787   2.214   4.040   2.151 -0.5748 -0.1189  0.6515
 6432TIP3    H240788   2.182   3.917   2.069  2.8784  0.3794 -1.6265
 6433TIP3   OH240789   4.289   1.717   1.507  0.6753 -0.4389  0.0534
 6433TIP3    H140790   4.224   1.655   1.540  0.8208 -0.4374  0.3472
 6433TIP3    H240791   4.284   1.710   1.411  0.2997 -0.4955  0.0785
 6434TIP3   OH240792   1.031   0.487  16.942  0.2674 -0.4909  0.2497
 6434TIP3    H140793   1.052   0.410  16.996  1.2514 -0.7918 -0.5299
 6434TIP3    H240794   1.115   0.533  16.934 -0.3753  0.8562  0.9814
 6435TIP3   OH240795   6.556   3.284  12.839 -0.0877 -0.4354  0.2107
 6435TIP3    H140796   6.624   3.352  12.837 -0.3344 -0.2036 -0.8217
 6435TIP3    H240797   6.499   3.305  12.764  0.5247 -2.4741 -0.8903
 6436TIP3   OH240798   4.295   2.076   0.390 -0.2134  0.2835  0.0641
 6436TIP3    H140799   4.224   2.092   0.452 -0.3321 -1.3766  0.4032
 6436TIP3    H240800   4.314   1.982   0.399  0.5495  0.2436 -1.5899
 6437TIP3   OH240801   5.712   5.355  16.034  0.4457 -0.4067 -0.3236
 6437TIP3    H140802   5.626   5.390  16.007  1.1068  2.2614  0.7111
 6437TIP3    H240803   5.754   5.329  15.951 -0.7336 -0.2565 -0.9964
 6438TIP3   OH240804   5.256   1.528   0.299 -0.3890  0.2487  0.1429
 6438TIP3    H140805   5.315   1.487   0.362 -0.6140  0.1142  0.2680
 6438TIP3    H240806   5.172   1.482   0.311 -0.8687  1.2545  0.8299
 6439TIP3   OH240807   2.949   6.314   6.237 -0.0471  0.8987 -0.1259
 6439TIP3    H140808   2.855   6.326   6.227 -0.3762 -1.9660 -1.4919
 6439TIP3    H240809   2.987   6.397   6.208 -2.0822  1.2346 -2.0708
 6440TIP3   OH240810   2.329   3.271   2.556 -0.1167 -0.1418  0.0027
 6440TIP3    H140811   2.247   3.252   2.509 -0.1119 -0.6029  0.1723
 6440TIP3    H240812   2.359   3.185   2.587  0.9022 -0.1087 -0.8226
 6441TIP3   OH240813   1.385   1.143  15.154 -0.0059 -0.0558 -0.5193
 6441TIP3    H140814   1.343   1.201  15.218  0.7400  0.9696 -0.9158
 6441TIP3    H240815   1.416   1.203  15.085 -1.5203 -1.1977 -2.2876
 6442TIP3   OH240816   1.600   5.320  13.559 -0.0227 -0.3574 -0.6443
 6442TIP3    H140817   1.683   5.287  13.524 -0.2094 -2.9553  1.0794
 6442TIP3    H240818   1.545   5.335  13.482  0.8048 -2.2694 -1.6696
 6443TIP3   OH240819   4.206   5.591   4.648  0.4356  0.1185  0.2350
 6443TIP3    H140820   4.153   5.512   4.659  0.6056 -0.1662 -0.8883
 6443TIP3    H240821   4.292   5.568   4.684  0.5432 -0.2898 -0.2610
 6444TIP3   OH240822   5.254   2.200   0.918 -0.2189 -0.3898 -0.3376
 6444TIP3    H140823   5.332   2.223   0.869 -0.7483  2.4371 -0.0262
 6444TIP3    H240824   5.206   2.283   0.927 -1.5886 -1.3550  2.3704
 6445TIP3   OH240825   4.838   2.205   5.584  0.4635 -0.0338  0.3530
 6445TIP3    H140826   4.927   2.182   5.610  1.5784  1.3689 -1.9781
 6445TIP3    H240827   4.837   2.300   5.584 -1.0600 -0.0220  0.2787
 6446TIP3   OH240828   6.016   5.330   6.169  0.0474  0.6006  0.1742
 6446TIP3    H140829   5.934   5.318   6.120 -0.2407  2.6718  0.0149
 6446TIP3    H240830   5.993   5.310   6.259 -0.2439 -0.2343 -0.0763
 6447TIP3   OH240831   1.330   1.646  13.970 -0.2871  0.5366  0.2450
 6447TIP3    H140832   1.415   1.619  13.933  0.3631  1.7590  0.7748
 6447TIP3    H240833   1.271   1.648  13.895  0.3281  0.3233 -0.2571
 6448TIP3   OH240834   4.479   5.447   0.355 -0.7905 -0.5211  0.0179
 6448TIP3    H140835   4.396   5.409   0.382 -0.6800 -2.0583 -1.5827
 6448TIP3    H240836   4.544   5.409   0.414 -0.5798 -3.6394 -1.9718
 6449TIP3   OH240837   6.417   1.393   1.507  0.1476 -0.4765  0.0110
 6449TIP3    H140838   6.507   1.361   1.522  0.4112 -0.2309 -0.9302
 6449TIP3    H240839   6.392   1.434   1.589  1.5048  0.8662 -0.1990
 6450TIP3   OH240840   5.665   2.637   4.584 -0.4256  0.0639  0.1803
 6450TIP3    H140841   5.704   2.705   4.640  0.4514  0.0073 -0.3293
 6450TIP3    H240842   5.579   2.621   4.622 -0.2670  0.7758  0.8827
 6451TIP3   OH240843   1.510   4.294   2.233  0.1800  0.0825 -0.0346
 6451TIP3    H140844   1.422   4.311   2.266  0.5843  2.0364  0.1690
 6451TIP3    H240845   1.498   4.234   2.159 -1.4580  1.3711 -0.8582
 6452TIP3   OH240846   5.548   1.081   2.950  0.4965 -0.5525  0.2590
 6452TIP3    H140847   5.536   0.990   2.924 -1.0070 -0.5470  0.8210
 6452TIP3    H240848   5.460   1.119   2.947  0.7782  0.3533  1.9032
 6453TIP3   OH240849   0.583   1.999   4.561  0.0978  0.4084 -0.4711
 6453TIP3    H140850   0.538   1.914   4.563 -0.1798  0.5583 -0.1279
 6453TIP3    H240851   0.653   1.988   4.497 -0.7789  0.3418 -1.4448
 6454TIP3   OH240852   3.684   3.052  15.170 -0.2857 -0.1099 -0.0579
 6454TIP3    H140853   3.757   3.108  15.196 -0.5862 -0.2756  1.2212
 6454TIP3    H240854   3.609   3.112  15.164 -0.1841 -0.0458 -0.7258
 6455TIP3   OH240855   2.054   3.801   1.131  0.1496 -0.0756  0.0022
 6455TIP3    H140856   2.057   3.824   1.038  0.5038 -0.4015 -0.0680
 6455TIP3    H240857   1.987   3.733   1.136  0.6572 -0.5869 -0.1307
 6456TIP3   OH240858   0.661   2.901   5.541  0.2686  0.5337 -0.7465
 6456TIP3    H140859   0.591   2.922   5.603 -0.3965 -0.7334 -1.0226
 6456TIP3    H240860   0.644   2.810   5.516  1.3785  0.5552 -1.6751
 6457TIP3   OH240861   3.714   0.553  16.094  0.2832  0.2132 -0.5072
 6457TIP3    H140862   3.775   0.484  16.119  1.3458  1.2956 -0.0288
 6457TIP3    H240863   3.714   0.614  16.168  3.4106  3.4209 -2.7840
 6458TIP3   OH240864   4.896   4.467  12.929 -0.3978 -0.3055 -0.1487
 6458TIP3    H140865   4.879   4.379  12.963  0.3577 -0.6086 -0.5361
 6458TIP3    H240866   4.978   4.459  12.882 -1.7283 -0.0926 -2.6991
 6459TIP3   OH240867   3.399   2.095   2.086  0.9502  0.1129  0.2399
 6459TIP3    H140868   3.408   2.173   2.031 -0.7661  0.4458  0.3705
 6459TIP3    H240869   3.437   2.121   2.170  1.9420  0.2124 -0.2205
 6460TIP3   OH240870   0.611   3.167  13.608 -0.3119 -0.3276 -0.5088
 6460TIP3    H140871   0.637   3.207  13.691 -0.2105 -1.5530  0.0695
 6460TIP3    H240872   0.522   3.135  13.624  0.8657 -3.5666  0.3060
 6461TIP3   OH240873   0.275   0.031   4.967 -0.2438  0.0963 -0.0977
 6461TIP3    H140874   0.307   0.099   5.027 -0.1564  3.0898 -3.2252
 6461TIP3    H240875   0.351  -0.026   4.954  0.8432  1.4645 -0.0570
 6462TIP3   OH240876   5.751   4.296  13.669  0.0274  0.1266  0.7474
 6462TIP3    H140877   5.675   4.253  13.709  1.9724 -1.9601  2.5416
 6462TIP3    H240878   5.811   4.224  13.650  1.6434  1.7052 -0.4549
 6463TIP3   OH240879   0.030   2.690  14.092  0.7253 -0.0768 -0.1454
 6463TIP3    H140880   0.060   2.756  14.155  1.0480 -1.0706  0.7554
 6463TIP3    H240881  -0.064   2.704  14.087  0.8971  1.0887 -0.7240
 6464TIP3   OH240882   5.457   5.458   2.296  0.1539  0.5150 -0.0410
 6464TIP3    H140883   5.452   5.389   2.363 -0.0072 -1.0687 -1.6094
 6464TIP3    H240884   5.551   5.474   2.286  0.2523 -0.2465 -0.3966
 6465TIP3   OH240885   4.394   4.617  14.106  0.0062 -0.3993 -0.1113
 6465TIP3    H140886   4.487   4.595  14.105  0.2926  0.6956  0.4906
 6465TIP3    H240887   4.350   4.539  14.071  1.1590 -0.8369 -0.6266
 6466TIP3   OH240888   4.210   3.398  16.611 -0.3753 -0.8560 -0.0668
 6466TIP3    H140889   4.289   3.358  16.648 -0.6478 -1.3960 -0.0560
 6466TIP3    H240890   4.241   3.453  16.540  0.1072 -0.2502  0.5951
 6467TIP3   OH240891   5.109   2.279   4.586 -0.6763  0.0699  0.4356
 6467TIP3    H140892   5.016   2.287   4.608 -0.2867  0.2514  2.2030
 6467TIP3    H240893   5.135   2.365   4.555 -1.0510  0.0679  0.1152
 6468TIP3   OH240894   3.443   3.397  11.912  0.8060 -0.2814 -0.0310
 6468TIP3    H140895   3.367   3.346  11.883  0.7764 -1.0278  1.2966
 6468TIP3    H240896   3.444   3.474  11.854 -0.3367 -0.7794 -0.7447
 6469TIP3   OH240897   0.424   3.912  11.772  0.3915  0.1727 -0.0541
 6469TIP3    H140898   0.359   3.978  11.753  0.4401 -0.0714 -1.1064
 6469TIP3    H240899   0.486   3.916  11.699  0.0799 -1.4119 -0.4481
 6470TIP3   OH240900   3.428   4.468   3.514  0.1229 -0.3913  0.4735
 6470TIP3    H140901   3.344   4.513   3.506  0.1574 -0.2510  0.8610
 6470TIP3    H240902   3.471   4.483   3.431  2.0785  4.2315  1.9820
 6471TIP3   OH240903   5.048   4.029  16.868 -0.3864  0.5265  0.0149
 6471TIP3    H140904   5.089   4.031  16.955  1.1392 -1.1973 -0.5782
 6471TIP3    H240905   4.955   4.038  16.885 -0.0751  0.7549  1.7924
 6472TIP3   OH240906   2.898   4.757   1.389 -0.2495  0.3116  0.1728
 6472TIP3    H140907   2.902   4.853   1.390  1.8515  0.3509 -1.7969
 6472TIP3    H240908   2.847   4.736   1.311  1.0997 -0.1114 -0.6294
 6473TIP3   OH240909   5.718   1.628   5.513  0.4661 -0.8033 -0.0885
 6473TIP3    H140910   5.794   1.605   5.566 -0.8037  0.6320  2.5560
 6473TIP3    H240911   5.645   1.578   5.552 -0.7703  1.3652  0.5433
 6474TIP3   OH240912   2.141   4.879   4.547 -0.9288 -0.5929  0.2654
 6474TIP3    H140913   2.219   4.915   4.504 -0.4335 -1.3170  0.5563
 6474TIP3    H240914   2.068   4.928   4.507 -0.4113 -0.6210 -0.7559
 6475TIP3   OH240915   3.997   2.938   4.081  0.3170 -0.1983 -0.3980
 6475TIP3    H140916   4.068   2.989   4.041  0.4066 -0.9512 -1.2220
 6475TIP3    H240917   4.010   2.950   4.175  0.7633  0.7100 -0.5598
 6476TIP3   OH240918   4.418   0.303  13.493  0.1819 -0.0328 -0.1554
 6476TIP3    H140919   4.439   0.223  13.445 -0.5656 -0.6976  0.5842
 6476TIP3    H240920   4.495   0.319  13.548  0.5039 -0.0046 -0.6134
 6477TIP3   OH240921   3.953   6.093  13.864  0.8276 -0.4370 -0.1745
 6477TIP3    H140922   3.970   6.045  13.945  0.6752 -2.3289 -1.2113
 6477TIP3    H240923   3.864   6.126  13.874  0.3409 -1.7464 -0.0683
 6478TIP3   OH240924   6.763   1.753  11.187  0.6603  0.1260 -0.4838
 6478TIP3    H140925   6.764   1.770  11.282 -0.0774 -1.1973 -0.2138
 6478TIP3    H240926   6.676   1.780  11.159  0.2535 -1.1244 -0.4479
 6479TIP3   OH240927   4.493   6.050  10.858 -0.3971  0.1052 -0.3828
 6479TIP3    H140928   4.479   5.958  10.834  1.1058 -0.0017 -1.0180
 6479TIP3    H240929   4.414   6.095  10.828 -0.9603 -0.9113 -0.4816
 6480TIP3   OH240930   2.514   5.468  12.687 -0.4026 -0.5609 -0.0803
 6480TIP3    H140931   2.538   5.497  12.775  2.7396 -0.2323 -0.9221
 6480TIP3    H240932   2.555   5.382  12.678 -2.0666 -1.3308 -0.7148
 6481TIP3   OH240933   4.621   4.757   4.185  0.0625  0.5661  0.2041
 6481TIP3    H140934   4.595   4.699   4.114  2.6515  0.2592 -0.6223
 6481TIP3    H240935   4.579   4.722   4.263  0.0338 -1.2913 -0.6042
 6482TIP3   OH240936   0.118   3.937   4.948 -0.1565  0.4594  0.4237
 6482TIP3    H140937   0.064   3.860   4.930 -0.8544  1.0908 -0.2372
 6482TIP3    H240938   0.188   3.904   5.005 -0.1030 -0.7831 -0.3189
 6483TIP3   OH240939   0.685   0.065   5.153  0.0087  0.2324 -0.3019
 6483TIP3    H140940   0.699   0.036   5.063  1.4630  1.7918 -0.6433
 6483TIP3    H240941   0.658   0.156   5.145  0.6004  0.5306  0.8429
 6484TIP3   OH240942   0.324   5.596  16.742 -0.3835 -0.1608 -0.5309
 6484TIP3    H140943   0.238   5.556  16.734  0.1055 -1.6926  1.2071
 6484TIP3    H240944   0.306   5.685  16.774 -1.3171 -0.6142  0.2447
 6485TIP3   OH240945   2.034   0.759  15.929  0.0006  0.1566 -0.0671
 6485TIP3    H140946   2.021   0.852  15.943 -1.2521 -0.2119  1.5445
 6485TIP3    H240947   1.962   0.732  15.872  0.6039  0.2277 -0.8840
 6486TIP3   OH240948   3.766   0.900  12.834  0.3856  0.1221 -0.4294
 6486TIP3    H140949   3.841   0.908  12.775  0.3797 -0.6391 -0.5437
 6486TIP3    H240950   3.744   0.807  12.833 -0.6617  0.3531 -0.5278
 6487TIP3   OH240951   2.357   6.296  11.255 -0.4311  0.2424 -0.0239
 6487TIP3    H140952   2.268   6.303  11.290  0.3473  0.7314  2.0192
 6487TIP3    H240953   2.347   6.305  11.160 -2.5272  0.4724  0.1830
 6488TIP3   OH240954   6.426   0.145   0.984  0.0666 -0.2494  0.7019
 6488TIP3    H140955   6.357   0.212   0.981 -1.0337 -1.2704 -3.0640
 6488TIP3    H240956   6.378   0.063   0.995  0.6657 -0.8895 -1.0466
 6489TIP3   OH240957   2.226   2.605  16.180 -0.1796  0.2049  0.6734
 6489TIP3    H140958   2.319   2.581  16.185 -0.4431 -0.8917  0.4694
 6489TIP3    H240959   2.205   2.638  16.267  0.2483 -0.1361  0.9086
 6490TIP3   OH240960   1.038   0.921  15.671 -0.6257  0.1956 -0.1812
 6490TIP3    H140961   0.995   0.841  15.702  2.2150 -0.1770  3.5012
 6490TIP3    H240962   1.125   0.893  15.643 -0.9262  1.5496 -2.7105
 6491TIP3   OH240963   3.528   2.524   1.679 -0.5062  0.2846  0.3290
 6491TIP3    H140964   3.459   2.589   1.664  0.8369  1.5679 -0.5111
 6491TIP3    H240965   3.484   2.440   1.665 -2.3777  0.9523  1.8466
 6492TIP3   OH240966   4.373   1.164   3.283 -0.1891  0.1482 -0.2848
 6492TIP3    H140967   4.422   1.168   3.201  2.8584  2.6793  1.4685
 6492TIP3    H240968   4.428   1.113   3.342 -1.2147  0.3233  0.8798
 6493TIP3   OH240969   4.116   4.707  15.228  0.1649 -0.4308 -0.0140
 6493TIP3    H140970   4.089   4.617  15.247  1.0927 -0.6470  0.3579
 6493TIP3    H240971   4.130   4.709  15.133 -1.7546 -0.1221 -0.3291
 6494TIP3   OH240972   3.175   0.321   4.372 -0.2998  0.1134  0.1457
 6494TIP3    H140973   3.191   0.254   4.438  2.1649  2.0223  1.6469
 6494TIP3    H240974   3.101   0.372   4.406 -0.6933 -0.4257  0.1154
 6495TIP3   OH240975   2.940   3.857  13.780  0.4299 -0.3528 -0.7640
 6495TIP3    H140976   2.998   3.928  13.752  0.3395  0.1104  0.1893
 6495TIP3    H240977   2.915   3.814  13.698  1.4511 -0.0473 -1.2575
 6496TIP3   OH240978   0.702   0.646  11.681  0.3848  0.1290  0.3982
 6496TIP3    H140979   0.638   0.576  11.666 -1.4403  1.4338  1.6678
 6496TIP3    H240980   0.662   0.700  11.749  1.7981  2.3359 -0.4437
 6497TIP3   OH240981   0.761   6.425   3.168  0.2767  0.2110 -0.2820
 6497TIP3    H140982   0.738   6.492   3.104  0.1211 -0.0733 -0.5260
 6497TIP3    H240983   0.766   6.344   3.117 -1.4693 -0.3234  0.3260
 6498TIP3   OH240984   0.039   3.384  16.903 -0.0879  0.1388 -0.2442
 6498TIP3    H140985   0.055   3.435  16.824 -0.2167  0.8681  0.1861
 6498TIP3    H240986  -0.003   3.446  16.963  1.1818 -0.0272  0.8709
 6499TIP3   OH240987   3.593   5.622  16.703  0.4883  0.0843 -0.6333
 6499TIP3    H140988   3.654   5.549  16.695  0.9844  0.3097  0.7938
 6499TIP3    H240989   3.606   5.655  16.792 -1.8817 -0.0122 -0.1704
 6500TIP3   OH240990   2.762   3.819  14.848  0.0335  0.3145  0.4030
 6500TIP3    H140991   2.789   3.738  14.804 -1.3676 -0.7358  1.3601
 6500TIP3    H240992   2.759   3.885  14.778  0.7174 -0.5846 -0.5028
 6501TIP3   OH240993   6.714   4.290  10.819 -0.0536 -0.1341 -0.4038
 6501TIP3    H140994   6.807   4.298  10.797  0.1227  1.5703  0.8149
 6501TIP3    H240995   6.710   4.216  10.880  0.5697  0.0493 -0.1330
 6502TIP3   OH240996   3.903   0.303   4.970 -0.1379  0.2226 -0.1309
 6502TIP3    H140997   3.813   0.332   4.958 -0.0767  1.4191  1.8668
 6502TIP3    H240998   3.900   0.244   5.045  0.5930 -0.6633 -0.7682
 6503TIP3   OH240999   4.680   4.504   4.643 -0.7195  0.0903 -0.4684
 6503TIP3    H141000   4.653   4.595   4.650  0.4572  0.3825  0.7066
 6503TIP3    H241001   4.721   4.498   4.557 -0.9462  0.6234 -0.6155
 6504TIP3   OH241002   1.329   6.519   5.085 -0.3003  0.3890  0.4716
 6504TIP3    H141003   1.324   6.568   5.167  0.5247  1.4989 -0.1286
 6504TIP3    H241004   1.321   6.427   5.112  0.1186  0.7211  1.8087
 6505TIP3   OH241005   5.548   6.034   0.385  0.0994  0.7087  0.0481
 6505TIP3    H141006   5.581   5.995   0.466  0.5875 -0.1908 -0.5717
 6505TIP3    H241007   5.454   6.045   0.401  0.3701  1.6544  1.1627
 6506TIP3   OH241008   6.118   3.261  15.558  0.6992  0.1024 -0.2799
 6506TIP3    H141009   6.199   3.310  15.544 -0.5713  2.2923 -0.4801
 6506TIP3    H241010   6.064   3.282  15.482 -0.1828 -1.0974 -0.0237
 6507TIP3   OH241011   3.453   2.739  10.761 -0.6031  0.2906 -0.6576
 6507TIP3    H141012   3.365   2.710  10.735 -0.2047  0.4041 -2.2046
 6507TIP3    H241013   3.449   2.743  10.856 -1.4107 -2.5180 -0.4844
 6508TIP3   OH241014   0.726   1.093   3.177 -0.1221  0.5872  0.4664
 6508TIP3    H141015   0.728   1.087   3.272  0.8961 -0.6917  0.4010
 6508TIP3    H241016   0.808   1.051   3.149 -0.3875  0.9791 -0.9616
 6509TIP3   OH241017   1.024   3.281   3.555 -0.1587  0.0764  0.7412
 6509TIP3    H141018   0.937   3.257   3.523 -0.6565  0.3625  1.8284
 6509TIP3    H241019   1.013   3.370   3.589  1.3183  1.4177 -1.9938
 6510TIP3   OH241020   4.975   0.404  13.974 -0.0563  0.3185 -0.5525
 6510TIP3    H141021   4.916   0.336  14.007  0.1399  0.0025 -0.8528
 6510TIP3    H241022   4.920   0.458  13.917 -0.0877  0.1061 -0.7227
 6511TIP3   OH241023   1.074   2.498  16.845 -0.2833  0.1630 -0.5263
 6511TIP3    H141024   1.119   2.513  16.929  1.0778  1.9193 -1.4889
 6511TIP3    H241025   1.089   2.405  16.827  0.4386  0.0273  0.6089
 6512TIP3   OH241026   3.494   1.813   2.661  0.1605  0.2774  0.2698
 6512TIP3    H141027   3.508   1.774   2.747  2.8841  0.4460 -0.0165
 6512TIP3    H241028   3.503   1.907   2.675 -1.4666  0.4998  0.0959
 6513TIP3   OH241029   3.406   2.398  10.566 -0.7068 -0.3233  0.6920
 6513TIP3    H141030   3.343   2.343  10.521 -0.1319 -0.9901  0.6764
 6513TIP3    H241031   3.470   2.336  10.602  1.0966  0.4002 -1.0545
 6514TIP3   OH241032   3.952   0.411   3.422  0.4630 -0.0659  0.4639
 6514TIP3    H141033   4.046   0.420   3.405  0.1384  0.7358 -1.1141
 6514TIP3    H241034   3.922   0.352   3.352 -0.3247  0.2298  0.5519
 6515TIP3   OH241035   6.376   1.419   2.947  0.3419 -0.0889 -0.2545
 6515TIP3    H141036   6.373   1.501   2.997 -1.0363  0.4279 -1.1311
 6515TIP3    H241037   6.292   1.378   2.963  1.5666 -2.1545  1.4055
 6516TIP3   OH241038   1.708   5.026  16.277  0.3110 -0.2400 -0.6154
 6516TIP3    H141039   1.802   5.026  16.296 -0.0430 -0.0645  1.3623
 6516TIP3    H241040   1.690   4.939  16.244  1.1507 -0.3202 -0.8932
 6517TIP3   OH241041   5.642   4.419   6.319 -0.4758 -0.1810  0.3691
 6517TIP3    H141042   5.673   4.496   6.368  1.4878  0.5581 -1.8625
 6517TIP3    H241043   5.551   4.440   6.297 -0.3865  0.8879  0.9550
 6518TIP3   OH241044   2.918   3.028   3.682  0.0030 -0.1867 -0.5467
 6518TIP3    H141045   2.881   3.116   3.673 -0.5693 -0.4433 -0.7713
 6518TIP3    H241046   3.011   3.042   3.698 -0.4351  0.5573  1.7678
 6519TIP3   OH241047   2.871   4.726   4.645 -0.1683 -0.7352  0.3301
 6519TIP3    H141048   2.963   4.725   4.670  0.1579  0.4222 -0.7066
 6519TIP3    H241049   2.867   4.787   4.571 -2.1286  1.0505  1.7917
 6520TIP3   OH241050   6.786   0.185  11.539 -0.1121  0.5009  0.4113
 6520TIP3    H141051   6.848   0.154  11.606 -0.1769 -1.2862 -0.2988
 6520TIP3    H241052   6.702   0.148  11.565 -0.1114 -0.3425 -0.7073
 6521TIP3   OH241053   2.496   6.810   0.118 -0.5396 -0.0564 -0.3266
 6521TIP3    H141054   2.514   6.721   0.089  2.3461 -0.0375  0.9962
 6521TIP3    H241055   2.509   6.808   0.213  0.7453  1.9510 -0.3923
 6522TIP3   OH241056   4.792   2.423   4.935  0.2753  0.2523  0.2199
 6522TIP3    H141057   4.756   2.441   4.849 -0.1778  0.2031  0.3976
 6522TIP3    H241058   4.795   2.509   4.978  0.4834  0.2741  0.1640
 6523TIP3   OH241059   4.170   2.748   6.198 -0.0921 -0.0561  0.3753
 6523TIP3    H141060   4.153   2.656   6.217  0.4751 -0.3640 -0.5715
 6523TIP3    H241061   4.103   2.772   6.133  0.2006 -0.0011  0.0919
 6524TIP3   OH241062   6.226   4.790   4.561  0.0302 -0.2538 -0.5665
 6524TIP3    H141063   6.161   4.721   4.576 -0.1478 -0.0584 -0.4363
 6524TIP3    H241064   6.174   4.868   4.542  0.2215  0.0270  0.0593
 6525TIP3   OH241065   5.299   3.969   4.501  0.1410 -0.0036  0.0678
 6525TIP3    H141066   5.220   3.988   4.451 -0.5408  3.9706  2.2852
 6525TIP3    H241067   5.268   3.942   4.587  1.3233 -3.0389 -0.3233
 6526TIP3   OH241068   3.151   3.172   1.611 -0.2319 -0.2804  0.5872
 6526TIP3    H141069   3.115   3.166   1.522  0.3146  1.3559  0.2197
 6526TIP3    H241070   3.231   3.224   1.601 -0.9862  1.2964  2.2363
 6527TIP3   OH241071   6.252   1.150  15.985  0.2733  0.2308 -0.5796
 6527TIP3    H141072   6.237   1.160  16.079 -0.3225 -1.9931 -0.3986
 6527TIP3    H241073   6.219   1.232  15.947 -0.7234  0.6127  1.0117
 6528TIP3   OH241074   3.304   2.149  16.065  0.2653 -0.2646  0.3264
 6528TIP3    H141075   3.213   2.178  16.066 -0.5514 -2.5102 -1.2161
 6528TIP3    H241076   3.353   2.223  16.100 -1.7902  2.2699 -1.7284
 6529TIP3   OH241077   2.587   2.055   5.083  0.4904 -0.2568 -0.6795
 6529TIP3    H141078   2.503   2.074   5.041 -0.0503 -1.4114 -0.1685
 6529TIP3    H241079   2.628   2.140   5.095 -1.1138  0.4536  0.0858
 6530TIP3   OH241080   5.432   4.515  16.772 -0.4454 -0.7718 -0.3838
 6530TIP3    H141081   5.403   4.424  16.764  1.3780 -1.4944  0.6601
 6530TIP3    H241082   5.519   4.516  16.733  0.7651 -0.1744  2.1279
 6531TIP3   OH241083   5.708   0.244  15.442 -0.3299  0.6700 -0.2136
 6531TIP3    H141084   5.802   0.229  15.434  0.1265  1.5933  2.3827
 6531TIP3    H241085   5.668   0.177  15.386  1.8261 -1.2069  0.3544
 6532TIP3   OH241086   2.282   6.292   1.098 -0.1620 -0.0947  0.5233
 6532TIP3    H141087   2.324   6.377   1.114 -1.6838  0.2636  3.2606
 6532TIP3    H241088   2.275   6.286   1.003  1.7411  1.9355  0.1658
 6533TIP3   OH241089   6.497   4.446   2.591  0.3934  0.2235 -0.0957
 6533TIP3    H141090   6.408   4.479   2.606  1.5842  2.7485  2.4261
 6533TIP3    H241091   6.550   4.524   2.581  2.3097 -1.2412 -2.2664
 6534TIP3   OH241092   1.232   0.136  10.795 -0.0839 -0.2348 -0.1174
 6534TIP3    H141093   1.314   0.090  10.808  0.0594 -0.0497 -0.3562
 6534TIP3    H241094   1.191   0.138  10.882 -0.3851 -1.3511 -0.2235
 6535TIP3   OH241095   4.598   0.538  15.740  0.2663 -0.3238  0.1850
 6535TIP3    H141096   4.532   0.592  15.784 -0.4583 -1.6109  0.7447
 6535TIP3    H241097   4.626   0.475  15.806  1.5724 -0.2294 -0.2553
 6536TIP3   OH241098   2.180   1.864   5.209 -0.5343 -0.7206  0.1849
 6536TIP3    H141099   2.171   1.774   5.241  1.5613 -0.5637  1.4020
 6536TIP3    H241100   2.218   1.854   5.122 -1.0279 -1.0087 -0.0063
 6537TIP3   OH241101   5.859   4.914  16.035 -0.3779 -0.0142 -0.3460
 6537TIP3    H141102   5.945   4.909  15.993  0.8976 -0.1258  2.1279
 6537TIP3    H241103   5.806   4.849  15.988  0.9044 -0.0583 -1.8090
 6538TIP3   OH241104   0.536   5.503  14.680 -0.2599 -0.4331 -0.4978
 6538TIP3    H141105   0.534   5.456  14.763  1.2270 -1.2247 -0.8700
 6538TIP3    H241106   0.607   5.567  14.689  0.2622 -0.8698 -1.3091
 6539TIP3   OH241107   0.076   2.957   0.959 -0.6262  0.4368 -0.5147
 6539TIP3    H141108   0.069   2.937   1.053 -0.3657  0.9520 -0.3770
 6539TIP3    H241109   0.001   2.913   0.919  0.6408 -1.9751 -0.4505
 6540TIP3   OH241110   4.923   0.837  12.657  0.2674 -0.0279 -0.2079
 6540TIP3    H141111   4.842   0.883  12.634 -0.7064 -1.0037  1.1274
 6540TIP3    H241112   4.920   0.756  12.607  2.1365  1.3710 -2.8039
 6541TIP3   OH241113   2.050   5.611  16.191 -0.2592 -0.0114 -0.4427
 6541TIP3    H141114   2.073   5.523  16.159 -0.3113 -0.2832  0.2565
 6541TIP3    H241115   1.959   5.622  16.163 -0.0705  0.0691 -1.0509
 6542TIP3   OH241116   1.522   1.707  13.271 -0.0292 -0.2396  0.4149
 6542TIP3    H141117   1.480   1.726  13.355  0.4902  0.5836  0.4916
 6542TIP3    H241118   1.475   1.629  13.239 -2.2481  1.1441  0.0697
 6543TIP3   OH241119   1.825   1.339   2.159  0.2695 -0.7911 -0.1240
 6543TIP3    H141120   1.852   1.296   2.241  0.3389 -0.8084 -0.1561
 6543TIP3    H241121   1.869   1.289   2.090  0.3976 -0.6313 -0.1580
 6544TIP3   OH241122   5.347   3.174  14.851 -0.7809 -0.3762  0.2497
 6544TIP3    H141123   5.389   3.156  14.935 -1.5185 -0.3652  0.6258
 6544TIP3    H241124   5.274   3.232  14.872  0.1246  1.1623 -0.6501
 6545TIP3   OH241125   3.916   3.190  16.186 -0.4762 -0.3988  0.6841
 6545TIP3    H141126   3.939   3.203  16.094  0.6661 -0.0924  1.0031
 6545TIP3    H241127   3.979   3.243  16.235 -2.5853  1.5189  1.5679
 6546TIP3   OH241128   0.094   5.633  11.688  0.2017 -0.1034  0.6422
 6546TIP3    H141129   0.024   5.582  11.728  0.3237 -1.3258 -0.6208
 6546TIP3    H241130   0.175   5.598  11.726  0.2300 -0.0624  0.6203
 6547TIP3   OH241131   2.411   1.426  11.384 -0.4731  0.5417 -0.4653
 6547TIP3    H141132   2.361   1.369  11.442  1.5711  0.1519  1.0041
 6547TIP3    H241133   2.401   1.387  11.297  0.5104 -1.8649  0.4206
 6548TIP3   OH241134   5.662   2.289   0.479 -0.0853 -0.3161  0.2259
 6548TIP3    H141135   5.747   2.261   0.514 -1.1428 -1.9075  1.6081
 6548TIP3    H241136   5.678   2.379   0.449  1.8854 -0.3023  1.1618
 6549TIP3   OH241137   3.844   6.595   6.558 -0.0705 -0.3044 -0.0302
 6549TIP3    H141138   3.903   6.529   6.520 -0.8043 -0.9169 -0.1381
 6549TIP3    H241139   3.758   6.574   6.520 -0.5475 -0.0421  0.8781
 6550TIP3   OH241140   0.773   3.346   0.448 -0.2314  0.3201 -0.5778
 6550TIP3    H141141   0.680   3.344   0.474 -0.0709 -2.2067  0.0996
 6550TIP3    H241142   0.794   3.254   0.429  2.7297  0.4009  1.5963
 6551TIP3   OH241143   1.917   2.977   2.568 -0.2870  0.3759 -0.1448
 6551TIP3    H141144   1.986   2.911   2.575 -0.2158  0.1088 -2.5364
 6551TIP3    H241145   1.913   3.017   2.655  1.7903 -0.6702  0.4950
 6552TIP3   OH241146   3.649   4.502  17.045 -0.0774 -0.4207 -0.2871
 6552TIP3    H141147   3.560   4.517  17.014 -0.4408 -0.1747  0.8164
 6552TIP3    H241148   3.688   4.444  16.980 -0.9511 -0.3156 -0.9226
 6553TIP3   OH241149   3.987   1.312   3.427  0.1700 -0.0435  0.3958
 6553TIP3    H141150   4.046   1.373   3.472 -0.4116 -0.0495  1.1898
 6553TIP3    H241151   4.024   1.226   3.445  0.8235  0.0469 -0.4732
 6554TIP3   OH241152   1.024   1.815   1.043 -0.7018  0.3858  0.2135
 6554TIP3    H141153   0.963   1.866   0.990  0.5730  0.4728 -1.2377
 6554TIP3    H241154   0.976   1.735   1.063 -1.9896  1.2590  0.7960
 6555TIP3   OH241155   4.864   3.205  16.047 -0.4027 -0.2202  0.6821
 6555TIP3    H141156   4.891   3.130  15.993  3.2350  0.8586  0.7315
 6555TIP3    H241157   4.837   3.271  15.983 -0.3650 -0.4254  0.4504
 6556TIP3   OH241158   1.626   3.607   5.585  0.0221 -0.1296  0.0685
 6556TIP3    H141159   1.613   3.635   5.675 -1.0510  0.2709 -0.1928
 6556TIP3    H241160   1.573   3.528   5.576 -2.0829  1.3168 -0.9191
 6557TIP3   OH241161   1.043   5.980  15.308  0.1884  0.5496  0.0410
 6557TIP3    H141162   1.014   6.000  15.219  0.0733  0.2003 -0.0032
 6557TIP3    H241163   1.097   5.902  15.299  0.1633  0.5031  0.2795
 6558TIP3   OH241164   5.993   6.696   4.836 -0.8325 -0.8437  0.4864
 6558TIP3    H141165   6.044   6.777   4.846 -0.2696 -1.3003  1.4711
 6558TIP3    H241166   5.930   6.699   4.908 -0.6695 -1.3786  0.6553
 6559TIP3   OH241167   1.021   1.082  17.047 -0.0516  0.2708  0.1691
 6559TIP3    H141168   1.115   1.090  17.063  0.1316 -1.5268  0.1360
 6559TIP3    H241169   0.980   1.118  17.126  0.7224 -1.2775  1.3175
 6560TIP3   OH241170   2.223   2.608  15.536  0.5311  0.6157  0.0257
 6560TIP3    H141171   2.276   2.540  15.495 -0.0879 -0.6544  1.2458
 6560TIP3    H241172   2.281   2.647  15.602  0.8525  1.2281 -0.6039
 6561TIP3   OH241173   0.329   4.137   6.369  0.8409  0.3589  0.0054
 6561TIP3    H141174   0.392   4.066   6.380  1.3342  0.2568 -2.7376
 6561TIP3    H241175   0.376   4.216   6.393  1.4988  0.1017 -0.4190
 6562TIP3   OH241176   4.199   6.839   1.653  0.1832 -0.2651 -0.3712
 6562TIP3    H141177   4.232   6.883   1.575 -0.8481  0.5383 -0.3854
 6562TIP3    H241178   4.137   6.901   1.691  0.1516 -0.9253  0.7122
 6563TIP3   OH241179   0.468   1.556   0.292  0.2772  0.2216  0.4725
 6563TIP3    H141180   0.446   1.484   0.232 -2.3481  0.6209  0.8029
 6563TIP3    H241181   0.563   1.562   0.290  0.3680 -0.5188 -2.8013
 6564TIP3   OH241182   6.397   5.424   1.543  0.3818 -0.1976  0.7608
 6564TIP3    H141183   6.410   5.406   1.450 -3.9288  0.0246 -0.1004
 6564TIP3    H241184   6.353   5.346   1.577 -1.7724  1.2668  1.5373
 6565TIP3   OH241185   4.520   3.025   4.785 -0.7551 -0.0715 -0.6533
 6565TIP3    H141186   4.496   3.117   4.776  2.5016  0.7514 -2.1986
 6565TIP3    H241187   4.555   3.017   4.874  1.8191  1.0314 -1.4897
 6566TIP3   OH241188   4.832   0.007  16.161  0.4209 -0.2205 -0.1378
 6566TIP3    H141189   4.885   0.045  16.092 -0.0679  0.0526 -0.3655
 6566TIP3    H241190   4.782  -0.063  16.119 -1.4090  1.2503 -0.5560
 6567TIP3   OH241191   1.225   5.083   5.562 -0.3164 -0.3934  0.0799
 6567TIP3    H141192   1.140   5.038   5.567 -0.3454 -0.5219 -1.2879
 6567TIP3    H241193   1.203   5.176   5.570 -0.3745 -0.5171  1.6893
 6568TIP3   OH241194   3.234   2.661   5.136 -0.2882 -0.5998  0.3030
 6568TIP3    H141195   3.237   2.570   5.164 -0.0996 -0.9295 -0.7640
 6568TIP3    H241196   3.325   2.692   5.145 -0.1129 -0.8772 -0.4979
 6569TIP3   OH241197   6.791   6.137   1.083 -0.8417  0.7993  0.3072
 6569TIP3    H141198   6.823   6.227   1.092  1.5262  0.1441 -0.7065
 6569TIP3    H241199   6.868   6.087   1.055 -1.5275 -1.9518  2.7844
 6570TIP3   OH241200   2.068   3.525  15.631  0.1074  0.2817  0.1685
 6570TIP3    H141201   2.092   3.517  15.724  0.1470 -0.0813  0.1300
 6570TIP3    H241202   2.051   3.435  15.603 -0.8625  0.4825  0.0713
 6571TIP3   OH241203   2.384   3.890  11.556  0.4245  0.1845 -0.0125
 6571TIP3    H141204   2.413   3.879  11.647 -0.9356  0.0205  0.4270
 6571TIP3    H241205   2.378   3.800  11.522 -0.6020  0.1320  0.2621
 6572TIP3   OH241206   1.971   2.826  12.781 -0.2891 -0.2244 -0.1018
 6572TIP3    H141207   1.971   2.801  12.689 -0.3842 -0.3719 -0.0630
 6572TIP3    H241208   1.986   2.920  12.781  2.6265 -0.6128 -0.1601
 6573TIP3   OH241209   0.190   3.309   3.050 -0.1471 -0.2738  0.1175
 6573TIP3    H141210   0.281   3.286   3.035 -0.6616 -1.9179 -0.7740
 6573TIP3    H241211   0.179   3.395   3.009  1.0869  0.1324  0.6150
 6574TIP3   OH241212   5.595   1.534   3.461  0.2462 -0.6112 -0.0025
 6574TIP3    H141213   5.629   1.520   3.372 -0.0995  0.1833 -0.2678
 6574TIP3    H241214   5.671   1.559   3.512  0.4173 -0.8996 -0.1116
 6575TIP3   OH241215   5.974   1.963   6.060  0.0145  0.1807 -1.0704
 6575TIP3    H141216   6.053   1.937   6.014  0.4647  1.1902 -0.8766
 6575TIP3    H241217   5.976   1.912   6.141  0.3146 -0.0105 -1.1976
 6576TIP3   OH241218   6.026   5.491   3.092 -0.0144  0.0174 -1.1274
 6576TIP3    H141219   6.033   5.557   3.024 -1.7791 -0.4418 -1.8016
 6576TIP3    H241220   5.943   5.510   3.137  0.7668 -0.1154  0.4503
 6577TIP3   OH241221   3.803   0.284   5.252  0.2057 -0.2912 -0.1075
 6577TIP3    H141222   3.743   0.214   5.227  0.0697 -0.3516  0.3705
 6577TIP3    H241223   3.888   0.241   5.257  0.5169  0.0369 -1.9342
 6578TIP3   OH241224   0.855   5.293  13.740  0.1923 -0.3436 -0.0760
 6578TIP3    H141225   0.940   5.258  13.715  1.2319 -1.1233  3.8620
 6578TIP3    H241226   0.875   5.377  13.782 -1.6556  2.1494 -3.5997
 6579TIP3   OH241227   3.548   1.904   5.658  0.3232 -0.1135 -0.5444
 6579TIP3    H141228   3.626   1.857   5.686  0.2567 -0.0807 -0.2978
 6579TIP3    H241229   3.495   1.839   5.612 -0.1281 -0.4781  0.4783
 6580TIP3   OH241230   3.144   5.439  11.736  0.2111  0.1096 -0.4682
 6580TIP3    H141231   3.053   5.466  11.725  0.8113  1.8730 -1.5178
 6580TIP3    H241232   3.165   5.389  11.657  0.5198  0.8481 -0.8628
 6581TIP3   OH241233   3.342   4.961   3.028  0.4313  0.1357 -0.6580
 6581TIP3    H141234   3.411   4.963   3.094  1.2419  0.5159 -1.4972
 6581TIP3    H241235   3.302   4.874   3.037  0.5328  0.1811  0.3145
 6582TIP3   OH241236   3.043   1.255   5.382 -0.0764 -0.2465  0.3488
 6582TIP3    H141237   3.092   1.336   5.393  1.2770 -0.3606 -3.3456
 6582TIP3    H241238   3.108   1.191   5.354 -1.7899 -1.2160 -1.7906
 6583TIP3   OH241239   5.514   3.992  15.451  0.2049 -0.2025  0.4743
 6583TIP3    H141240   5.474   4.013  15.367  1.7705  0.7869 -0.0781
 6583TIP3    H241241   5.592   3.941  15.429 -0.8023 -2.2962  1.5245
 6584TIP3   OH241242   0.073   5.052  16.645 -0.2422  0.1025  0.1422
 6584TIP3    H141243   0.162   5.055  16.612 -0.7704  1.5515 -1.3161
 6584TIP3    H241244   0.074   4.987  16.715  2.4520  1.6129  1.6545
 6585TIP3   OH241245   6.756   5.498  11.822 -0.3183 -0.4717  0.1781
 6585TIP3    H141246   6.666   5.528  11.817 -0.5273 -1.1916 -0.4537
 6585TIP3    H241247   6.759   5.443  11.901 -0.8431 -1.7622 -0.6735
 6586TIP3   OH241248   6.241   6.518   1.142  0.4511 -0.2002  0.0821
 6586TIP3    H141249   6.272   6.516   1.233 -1.4088  0.3460  0.7721
 6586TIP3    H241250   6.269   6.603   1.109 -0.4857  0.4029  0.7840
 6587TIP3   OH241251   0.974   5.388   5.496 -0.2141 -0.2149 -0.5231
 6587TIP3    H141252   0.944   5.307   5.456  0.9347 -0.4181 -1.0333
 6587TIP3    H241253   0.980   5.369   5.589 -0.3547 -0.5871 -0.5888
 6588TIP3   OH241254   5.066   5.763   6.147  0.0454  0.7356  0.6523
 6588TIP3    H141255   4.989   5.741   6.198  1.1750  1.0328  2.6224
 6588TIP3    H241256   5.032   5.799   6.065 -1.8494 -0.4511  0.8628
 6589TIP3   OH241257   1.150   2.121  16.260 -0.2526 -0.1622 -0.0768
 6589TIP3    H141258   1.112   2.186  16.320  1.0252 -0.1509  0.7527
 6589TIP3    H241259   1.188   2.055  16.317  1.1415 -0.0742 -0.8633
 6590TIP3   OH241260   2.608   0.197  15.188 -0.1184 -0.5631 -0.5129
 6590TIP3    H141261   2.588   0.153  15.105 -0.0529 -0.2664 -0.6900
 6590TIP3    H241262   2.637   0.285  15.161  0.0619 -0.5215 -0.1833
 6591TIP3   OH241263   1.964   5.184  12.450 -0.0651 -0.0537 -0.2602
 6591TIP3    H141264   1.918   5.254  12.403 -4.8079 -1.8719  1.1002
 6591TIP3    H241265   1.954   5.207  12.543  2.4183 -0.3774  0.1706
 6592TIP3   OH241266   2.036   4.756   2.583  0.9706 -0.1129  0.5388
 6592TIP3    H141267   2.103   4.694   2.556  0.9539 -1.9716  4.2099
 6592TIP3    H241268   2.049   4.768   2.677 -1.0814  3.0149  0.6070
 6593TIP3   OH241269   5.683   5.073   6.345  0.2726 -0.0191 -0.3630
 6593TIP3    H141270   5.644   5.159   6.330  1.5457  0.4980 -0.8938
 6593TIP3    H241271   5.712   5.076   6.437  0.1494  0.0448 -0.3263
 6594TIP3   OH241272   2.208   3.200  17.083 -0.0303 -0.0815  0.2101
 6594TIP3    H141273   2.128   3.159  17.049  0.5072 -0.4068 -0.7118
 6594TIP3    H241274   2.241   3.137  17.147 -1.2208  0.6798  1.6100
 6595TIP3   OH241275   2.886   1.346  16.935 -0.0821  0.3002  0.2551
 6595TIP3    H141276   2.841   1.298  17.004  0.4596 -0.2327  0.2460
 6595TIP3    H241277   2.911   1.280  16.871  0.1035  0.6836 -0.0762
 6596TIP3   OH241278   4.414   1.903  12.769 -0.2036  0.2679  0.8918
 6596TIP3    H141279   4.498   1.913  12.724 -0.7257  0.3317 -0.0675
 6596TIP3    H241280   4.374   1.990  12.766  0.1353  0.5020  2.2737
 6597TIP3   OH241281   1.009   1.878   5.671 -0.5073 -0.3762  0.0213
 6597TIP3    H141282   0.990   1.939   5.600 -1.8613 -0.5715  0.1806
 6597TIP3    H241283   1.085   1.915   5.715 -1.5352  1.4324  0.3723
 6598TIP3   OH241284   3.791   2.160  12.377  0.0606  0.2348 -0.4738
 6598TIP3    H141285   3.768   2.067  12.381 -1.5502  0.4659 -2.4669
 6598TIP3    H241286   3.721   2.204  12.425  0.5583  0.4543  0.0568
 6599TIP3   OH241287   0.431   2.872  12.762  0.7594  0.0046 -0.3229
 6599TIP3    H141288   0.520   2.885  12.730  0.9629 -0.0889  0.1994
 6599TIP3    H241289   0.440   2.866  12.857  0.0143  1.5974 -0.1124
 6600TIP3   OH241290   6.097   3.371   0.845 -0.1823 -0.2310  0.3530
 6600TIP3    H141291   6.072   3.437   0.780  0.7753  0.4709  0.6825
 6600TIP3    H241292   6.192   3.375   0.848 -0.2359  0.7558  2.7908
 6601TIP3   OH241293   1.648   0.099  11.307 -0.2520  0.4519  0.2085
 6601TIP3    H141294   1.572   0.081  11.363  1.3318 -2.0732  1.7600
 6601TIP3    H241295   1.621   0.173  11.253 -4.1038 -0.8078  0.0907
 6602TIP3   OH241296   1.642   2.461   2.241  0.1394  0.3886  0.6775
 6602TIP3    H141297   1.564   2.414   2.211 -0.8837  2.5648 -0.2460
 6602TIP3    H241298   1.709   2.439   2.176  0.3230 -1.3541  1.3831
 6603TIP3   OH241299   4.481   0.136   5.701  0.8111  0.2914 -0.1052
 6603TIP3    H141300   4.452   0.051   5.735  0.7277  0.1969 -0.4125
 6603TIP3    H241301   4.438   0.144   5.616  2.9259 -0.5812 -1.3314
 6604TIP3   OH241302   3.989   3.522   6.365 -0.4968 -0.4492 -0.2976
 6604TIP3    H141303   4.040   3.555   6.439  0.8015  0.9282 -1.7327
 6604TIP3    H241304   3.992   3.427   6.374 -0.5926 -0.3176  1.5392
 6605TIP3   OH241305   0.047   4.600  15.775 -0.1783 -0.3094  0.1801
 6605TIP3    H141306   0.038   4.517  15.728 -0.9133 -0.9706  1.4238
 6605TIP3    H241307   0.119   4.585  15.836  0.8861  0.5978 -0.8103
 6606TIP3   OH241308   2.767   6.335  16.466  0.2036  0.3193 -0.4381
 6606TIP3    H141309   2.750   6.429  16.460  0.9034  0.6397  1.5686
 6606TIP3    H241310   2.720   6.297  16.393 -1.5650  2.0550 -0.2893
 6607TIP3   OH241311   2.760   3.160  11.309 -0.0160 -0.0274 -0.1180
 6607TIP3    H141312   2.815   3.211  11.250 -0.6301 -0.9675 -1.5654
 6607TIP3    H241313   2.821   3.118  11.369  0.4982  2.4514  1.2269
 6608TIP3   OH241314   2.855   2.465   1.805 -0.5005  0.0468  0.4351
 6608TIP3    H141315   2.802   2.437   1.880  0.0850 -3.4543 -0.2702
 6608TIP3    H241316   2.810   2.542   1.771 -1.2719  1.2369  3.8034
 6609TIP3   OH241317   6.156   1.466  16.935 -0.3297 -0.2312  0.4646
 6609TIP3    H141318   6.166   1.371  16.938  2.7023 -0.0994 -1.5299
 6609TIP3    H241319   6.189   1.496  17.020 -2.1835 -0.9248  1.4889
 6610TIP3   OH241320   3.214   5.562   6.698 -0.1311 -0.0960 -0.0420
 6610TIP3    H141321   3.299   5.596   6.726  0.6208 -0.1334 -2.0546
 6610TIP3    H241322   3.202   5.482   6.748  1.9551 -1.0979 -1.0304
 6611TIP3   OH241323   0.267   3.519   5.653 -0.0956  0.4350 -0.8350
 6611TIP3    H141324   0.356   3.543   5.679 -0.7105  0.6640  1.1766
 6611TIP3    H241325   0.268   3.423   5.650 -0.4183  0.2768  1.8517
 6612TIP3   OH241326   0.188   4.856  16.330 -0.1065 -0.1914 -0.1242
 6612TIP3    H141327   0.106   4.869  16.377 -1.4913 -2.5824 -1.6103
 6612TIP3    H241328   0.160   4.820  16.245  2.3512  1.9282 -1.9634
 6613TIP3   OH241329   2.171   1.632  12.789  0.9363 -0.4104 -0.1819
 6613TIP3    H141330   2.239   1.692  12.821  0.9780 -0.9678  0.8117
 6613TIP3    H241331   2.101   1.689  12.757  0.6483  0.1951  1.4327
 6614TIP3   OH241332   2.848   0.485   4.350 -0.1905 -0.4138  0.0022
 6614TIP3    H141333   2.772   0.446   4.307 -0.4017  1.1505 -1.1485
 6614TIP3    H241334   2.839   0.461   4.442 -1.1143 -1.7247 -0.3996
 6615TIP3   OH241335   3.534   4.296   5.032 -0.0090 -0.1109  0.0998
 6615TIP3    H141336   3.483   4.220   5.004 -0.4628  0.4327 -0.5768
 6615TIP3    H241337   3.626   4.268   5.025 -0.1399 -0.2741 -1.1198
 6616TIP3   OH241338   0.880   2.413  11.976 -0.4827  0.1344 -0.3735
 6616TIP3    H141339   0.913   2.336  11.929  1.6686  1.3121 -0.9701
 6616TIP3    H241340   0.891   2.485  11.913  0.6203  1.4271  1.2190
 6617TIP3   OH241341   3.287   0.099  15.944 -0.1302  0.1093  0.5789
 6617TIP3    H141342   3.321   0.170  15.889 -2.3052  0.2721 -0.6951
 6617TIP3    H241343   3.204   0.133  15.977 -2.1052 -2.3559 -1.4582
 6618TIP3   OH241344   2.567   0.010   4.909 -0.0863  0.4046 -0.1816
 6618TIP3    H141345   2.639   0.054   4.954  0.4113 -0.4561 -0.0961
 6618TIP3    H241346   2.522  -0.040   4.977  0.0904 -0.1544 -0.4620
 6619TIP3   OH241347   1.479   4.902  16.879 -0.0702 -0.0399  0.2059
 6619TIP3    H141348   1.484   4.878  16.786  1.0134  0.3233  0.1558
 6619TIP3    H241349   1.452   4.994  16.879 -1.3930 -0.4106  0.3087
 6620TIP3   OH241350   0.506   6.381   3.823  0.1791 -0.4488 -0.9612
 6620TIP3    H141351   0.451   6.429   3.761  0.7064 -0.2408 -1.2746
 6620TIP3    H241352   0.444   6.342   3.885 -0.2388  0.8217 -0.5647
 6621TIP3   OH241353   5.998   5.918  12.438  0.0293  0.1379  0.1333
 6621TIP3    H141354   5.965   5.841  12.484 -1.4024  1.2542  1.0837
 6621TIP3    H241355   5.960   5.992  12.486  1.8328  1.4574 -0.3673
 6622TIP3   OH241356   3.872   1.515   2.131 -0.0501  0.2410  0.4331
 6622TIP3    H141357   3.813   1.565   2.187 -0.8984 -1.7089  1.3738
 6622TIP3    H241358   3.947   1.496   2.188 -0.9218 -1.7611  1.0043
 6623TIP3   OH241359   3.186   0.041   5.792  0.0412  0.1631 -0.5820
 6623TIP3    H141360   3.269   0.088   5.786  0.2169 -0.2570 -1.8119
 6623TIP3    H241361   3.207  -0.048   5.763 -0.8021  0.0048 -0.7264
 6624TIP3   OH241362   4.363   2.591  15.060  0.1358 -0.6913  0.0415
 6624TIP3    H141363   4.331   2.597  14.970  0.5165 -0.2369 -0.0652
 6624TIP3    H241364   4.289   2.554  15.109 -0.0337 -1.0495 -0.4754
 6625TIP3   OH241365   0.991   4.015  12.279 -0.3735 -0.3504  0.3732
 6625TIP3    H141366   0.981   4.050  12.191  2.6269 -1.4875 -0.5305
 6625TIP3    H241367   0.947   3.930  12.276 -0.8722 -0.0896  0.2068
 6626TIP3   OH241368   6.039   4.245   1.956  0.0956 -0.3420 -0.0783
 6626TIP3    H141369   6.123   4.236   1.911  0.8450  2.4220  0.5973
 6626TIP3    H241370   6.043   4.180   2.026  0.5557 -1.9623 -1.5199
 6627TIP3   OH241371   1.420   2.206   5.314  0.1424  0.0161 -0.4461
 6627TIP3    H141372   1.440   2.207   5.220 -0.3182 -1.0505 -0.5638
 6627TIP3    H241373   1.461   2.286   5.347  1.4069 -0.2388 -1.3270
 6628TIP3   OH241374   1.536   5.572  13.991 -0.3816 -0.3194  0.1618
 6628TIP3    H141375   1.621   5.595  14.029 -0.2167  2.4328 -1.5994
 6628TIP3    H241376   1.542   5.598  13.900 -3.0911 -0.1002 -0.0493
 6629TIP3   OH241377   6.092   4.707  11.799  0.2271  0.6258  0.3159
 6629TIP3    H141378   6.095   4.614  11.819 -1.7171  0.5397  0.3245
 6629TIP3    H241379   6.091   4.712  11.704  2.0807  0.7491  0.2623
 6630TIP3   OH241380   1.198   0.191   6.113  0.7730  0.5225 -0.1890
 6630TIP3    H141381   1.178   0.101   6.141  1.9439 -0.3361 -1.9236
 6630TIP3    H241382   1.113   0.229   6.091  0.2208 -0.0179  0.9515
 6631TIP3   OH241383   1.569   4.044   4.316 -0.2014 -0.0930 -0.1781
 6631TIP3    H141384   1.540   4.105   4.248 -0.9330  1.5005  1.4774
 6631TIP3    H241385   1.588   3.963   4.269  0.2526  1.2214 -2.3891
 6632TIP3   OH241386   4.103   6.294   3.420 -0.5234 -0.1038 -0.0084
 6632TIP3    H141387   4.158   6.217   3.405 -1.0197 -0.6569  0.9502
 6632TIP3    H241388   4.030   6.283   3.360 -0.8704 -0.6667  0.5087
 6633TIP3   OH241389   2.481   5.566  10.765 -0.5416 -0.0455 -0.6131
 6633TIP3    H141390   2.555   5.614  10.803 -1.4382  0.1560  0.9917
 6633TIP3    H241391   2.520   5.509  10.698  1.1829 -0.5618  0.7598
 6634TIP3   OH241392   0.540   3.811   1.236  0.4272  0.3729 -0.5661
 6634TIP3    H141393   0.576   3.857   1.312 -1.0763 -0.1186  0.5012
 6634TIP3    H241394   0.500   3.880   1.184 -0.9721  0.4483  0.5406
 6635TIP3   OH241395   1.861   4.916   8.638  0.5375  0.1698 -0.0846
 6635TIP3    H141396   1.807   4.879   8.568  0.0388 -0.5582  0.6638
 6635TIP3    H241397   1.949   4.884   8.619  1.2305  3.1210 -2.5408
 6636TIP3   OH241398   4.953   1.582   6.145  0.7123  0.5489  0.3937
 6636TIP3    H141399   4.949   1.647   6.214 -2.8725 -0.6868  1.5578
 6636TIP3    H241400   4.995   1.506   6.185 -1.1208 -0.0720  1.2318
 6637TIP3   OH241401   0.516   2.253   5.150  0.7923  0.0965  0.5560
 6637TIP3    H141402   0.524   2.348   5.143 -0.4251  0.1543 -0.2542
 6637TIP3    H241403   0.600   2.220   5.118  0.6590  0.8599 -0.6693
 6638TIP3   OH241404   0.281   1.515   1.519  0.0818  0.3074 -0.3986
 6638TIP3    H141405   0.374   1.495   1.520  0.3598  1.5760 -0.5870
 6638TIP3    H241406   0.259   1.532   1.611 -0.3995 -1.8116 -0.0595
 6639TIP3   OH241407   1.600   1.116  13.888 -0.1817  0.0117  0.1874
 6639TIP3    H141408   1.552   1.077  13.961 -0.2586 -0.1851  0.0338
 6639TIP3    H241409   1.632   1.200  13.922  1.9139 -1.1439  1.2740
 6640TIP3   OH241410   4.837   4.844   4.426 -0.3975 -0.1973 -0.5536
 6640TIP3    H141411   4.920   4.857   4.380 -0.1916  0.2510 -0.0595
 6640TIP3    H241412   4.838   4.908   4.497 -1.1619 -0.1948 -0.5324
 6641TIP3   OH241413   5.381   4.285   1.275 -0.4451 -0.6291  0.2377
 6641TIP3    H141414   5.426   4.290   1.191  0.9796 -1.1628  0.9314
 6641TIP3    H241415   5.308   4.346   1.267  0.5703  0.5003 -0.8397
 6642TIP3   OH241416   4.549   3.057   0.407 -0.4459  0.4014  0.0176
 6642TIP3    H141417   4.618   3.101   0.358 -0.1108 -2.6089 -2.4803
 6642TIP3    H241418   4.476   3.119   0.406  1.1264  2.3426 -0.0611
 6643TIP3   OH241419   5.730   0.127   4.771 -0.5690  0.4867  0.1398
 6643TIP3    H141420   5.709   0.034   4.763  2.5216 -0.2537 -0.7950
 6643TIP3    H241421   5.658   0.172   4.727 -0.5620 -1.7050 -2.3531
 6644TIP3   OH241422   5.121   3.672  12.190  0.3765  0.8198 -0.3832
 6644TIP3    H141423   5.044   3.719  12.221 -0.7734  0.0164 -1.8871
 6644TIP3    H241424   5.096   3.637  12.105  2.5154  0.7559 -1.0564
 6645TIP3   OH241425   5.315   3.382   0.030 -0.3491 -0.1310 -0.0877
 6645TIP3    H141426   5.278   3.318   0.091 -1.3453  1.4502  1.0443
 6645TIP3    H241427   5.289   3.349  -0.056 -2.1321 -0.5082  0.5355
 6646TIP3   OH241428   4.826   5.909   5.777  0.0807 -0.2510 -0.1755
 6646TIP3    H141429   4.920   5.894   5.784 -0.0793 -1.3600 -0.0969
 6646TIP3    H241430   4.798   5.932   5.865  0.1350 -0.9312  0.0294
 6647TIP3   OH241431   1.788   0.259  14.059  0.3784 -0.0452  0.3449
 6647TIP3    H141432   1.721   0.191  14.058  0.6171 -0.2757  0.1552
 6647TIP3    H241433   1.851   0.231  14.126  0.1913  0.2667  0.6583
 6648TIP3   OH241434   0.637   6.652   4.638 -0.5533 -0.1861  0.2061
 6648TIP3    H141435   0.725   6.619   4.623  0.2305  2.2659 -1.2172
 6648TIP3    H241436   0.585   6.616   4.566 -0.6962 -1.4194  0.8989
 6649TIP3   OH241437   1.637   3.369  16.214  0.0472 -0.3638  0.2273
 6649TIP3    H141438   1.685   3.307  16.268  0.2738  1.5155  2.3282
 6649TIP3    H241439   1.700   3.439  16.196 -1.3573  1.4149  1.7623
 6650TIP3   OH241440   1.725   2.481   0.113 -0.3622 -0.3486 -0.1693
 6650TIP3    H141441   1.687   2.403   0.153 -0.2274  0.4174  1.4965
 6650TIP3    H241442   1.814   2.485   0.147 -0.2402  0.3335 -0.5467
 6651TIP3   OH241443   5.201   4.335   4.577 -0.1757  0.0782  0.4933
 6651TIP3    H141444   5.153   4.345   4.660  0.7795  2.0717  0.8534
 6651TIP3    H241445   5.172   4.408   4.523  1.9718  0.9998  0.5106
 6652TIP3   OH241446   3.693   4.138   1.341 -0.1072 -0.1871  0.4746
 6652TIP3    H141447   3.750   4.170   1.271 -0.9542 -2.2709 -1.2518
 6652TIP3    H241448   3.754   4.121   1.413  0.7855  1.9849  0.3476
 6653TIP3   OH241449   6.172   1.159  11.601  0.4405  0.1504 -0.2729
 6653TIP3    H141450   6.126   1.076  11.589  4.6107 -2.4660 -0.3804
 6653TIP3    H241451   6.242   1.156  11.536  1.2229  3.4591  0.2616
 6654TIP3   OH241452   1.837   2.921  16.192 -0.7112  0.0082  0.0609
 6654TIP3    H141453   1.868   2.977  16.121  1.0589 -1.1281 -0.1253
 6654TIP3    H241454   1.863   2.833  16.165 -1.7285 -0.6752  1.2398
 6655TIP3   OH241455   3.966   1.908   3.231 -0.6825 -0.3441  0.5374
 6655TIP3    H141456   3.992   1.817   3.246 -1.2691 -0.4611  0.8555
 6655TIP3    H241457   4.010   1.958   3.300 -0.7490 -0.4477  0.6540
 6656TIP3   OH241458   5.666   3.175   5.745  0.5472 -0.0639  0.0811
 6656TIP3    H141459   5.733   3.196   5.810 -0.9084  0.1795  1.5784
 6656TIP3    H241460   5.652   3.257   5.698 -0.1482  0.4748  1.1802
 6657TIP3   OH241461   3.641   5.249   1.997 -0.0695 -0.1712 -0.9117
 6657TIP3    H141462   3.731   5.257   2.028 -0.0173  0.5702 -1.2343
 6657TIP3    H241463   3.587   5.271   2.073  0.0250 -0.5098 -0.7482
 6658TIP3   OH241464   6.581   4.129  15.871 -0.6287 -0.4774  0.1336
 6658TIP3    H141465   6.590   4.036  15.848 -0.8448 -0.3936 -0.2955
 6658TIP3    H241466   6.496   4.135  15.914 -0.4952 -0.5243  0.4076
 6659TIP3   OH241467   1.044   4.703   4.441  0.0261  0.7227 -0.0541
 6659TIP3    H141468   1.071   4.618   4.406 -1.9276 -0.2811  0.6934
 6659TIP3    H241469   1.102   4.718   4.516  1.0887  0.5877 -0.8330
 6660TIP3   OH241470   0.734   4.188   0.465  0.0101  0.5590  0.4897
 6660TIP3    H141471   0.750   4.209   0.373  1.4244 -0.3363  0.5028
 6660TIP3    H241472   0.639   4.177   0.471  0.0304 -1.1105 -1.2514
 6661TIP3   OH241473   3.854   3.496  11.645 -0.2361  0.1751  0.1560
 6661TIP3    H141474   3.944   3.488  11.614  0.0710  0.0006  1.0658
 6661TIP3    H241475   3.861   3.534  11.732 -1.0099 -0.2781  0.4333
 6662TIP3   OH241476   4.296   0.293  15.876 -0.1694  0.1627  0.5587
 6662TIP3    H141477   4.355   0.363  15.907  0.3199 -0.6863  1.6261
 6662TIP3    H241478   4.291   0.232  15.950 -0.7408 -0.8367 -0.2843
 6663TIP3   OH241479   3.237   6.555   0.785  0.0138  0.3821 -0.6221
 6663TIP3    H141480   3.142   6.551   0.790  0.0286  0.3347 -0.4046
 6663TIP3    H241481   3.268   6.523   0.869  0.2345 -0.2254 -0.9312
 6664TIP3   OH241482   3.817   3.692  13.826  0.6456  0.3482  0.1051
 6664TIP3    H141483   3.796   3.604  13.856  1.1836  0.0345 -0.4241
 6664TIP3    H241484   3.786   3.750  13.896  2.7664 -0.3989  1.7442
 6665TIP3   OH241485   4.280   0.266   0.546 -0.5520 -0.2995 -0.2620
 6665TIP3    H141486   4.277   0.192   0.485 -2.7526  0.6904 -1.4617
 6665TIP3    H241487   4.297   0.226   0.631 -0.1701 -2.0022 -1.0917
 6666TIP3   OH241488   0.947   5.218   3.389 -0.3536  0.4966  0.2511
 6666TIP3    H141489   0.928   5.252   3.301 -2.3912 -1.0774  0.0034
 6666TIP3    H241490   0.990   5.134   3.373 -0.3717  0.3916  0.7630
 6667TIP3   OH241491   4.181   3.360  10.603  0.6365 -0.0164  0.0309
 6667TIP3    H141492   4.125   3.346  10.680 -0.4377 -1.2475 -0.9192
 6667TIP3    H241493   4.206   3.272  10.576 -0.5633  0.2462 -2.1219
 6668TIP3   OH241494   0.205   3.774  15.127  0.2477  0.0262 -0.3490
 6668TIP3    H141495   0.109   3.770  15.127  0.2377 -0.3263  0.9322
 6668TIP3    H241496   0.233   3.690  15.091  0.0853  0.3052 -1.1435
 6669TIP3   OH241497   2.861   2.680   3.460  0.5328 -0.2447  0.3047
 6669TIP3    H141498   2.874   2.674   3.365 -2.2389  0.1482 -0.1774
 6669TIP3    H241499   2.923   2.616   3.496  0.5174 -1.6136 -1.8840
 6670TIP3   OH241500   3.859   1.530   3.728 -0.3067  0.0050  0.5281
 6670TIP3    H141501   3.940   1.503   3.684 -0.6780  1.7619 -1.4068
 6670TIP3    H241502   3.800   1.455   3.716 -0.0479  0.0217 -1.1624
 6671TIP3   OH241503   4.350   1.229  15.093 -0.1968 -0.0616  0.4380
 6671TIP3    H141504   4.435   1.208  15.132 -0.0457 -1.7800 -0.7363
 6671TIP3    H241505   4.367   1.304  15.036  0.6834 -0.8215 -0.3098
 6672TIP3   OH241506   6.014   3.574  13.691 -0.4276 -0.6396 -0.1304
 6672TIP3    H141507   6.053   3.565  13.778 -1.1263 -2.5623  0.0541
 6672TIP3    H241508   6.042   3.495  13.645  1.6983  1.3167 -2.4621
 6673TIP3   OH241509   4.900   6.759   0.029 -0.2011 -0.4463  0.3749
 6673TIP3    H141510   4.948   6.698   0.086  0.7714 -1.7467 -1.6887
 6673TIP3    H241511   4.858   6.820   0.089  1.4516 -1.2011  2.4361
 6674TIP3   OH241512   3.739   3.886   5.671 -0.3363  0.2458  0.3884
 6674TIP3    H141513   3.725   3.849   5.584  0.6103  2.1067 -0.6191
 6674TIP3    H241514   3.794   3.823   5.716  0.2996 -0.1099 -0.8572
 6675TIP3   OH241515   1.749   6.660  17.008  0.0769 -0.2195 -0.0824
 6675TIP3    H141516   1.760   6.577  16.962  1.5107 -0.4035  0.5485
 6675TIP3    H241517   1.838   6.691  17.024 -0.3970  0.4562  1.4537
 6676TIP3   OH241518   2.123   1.723  12.156  0.0435 -0.4462  0.3977
 6676TIP3    H141519   2.182   1.649  12.141  0.2075 -0.2931  0.2697
 6676TIP3    H241520   2.182   1.796  12.174 -0.1100 -0.2831  0.2348
 6677TIP3   OH241521   5.357   2.420   0.131  0.6468 -0.6778  0.0615
 6677TIP3    H141522   5.442   2.393   0.096  2.1246  1.0130  2.0558
 6677TIP3    H241523   5.379   2.469   0.210 -2.0827  1.5099 -0.3856
 6678TIP3   OH241524   3.803   2.293   1.098  0.1278  0.8134 -0.6598
 6678TIP3    H141525   3.855   2.331   1.026 -0.4280 -2.5034 -3.0449
 6678TIP3    H241526   3.717   2.333   1.088  1.1650  3.9201  1.3104
 6679TIP3   OH241527   2.758   4.798   1.155  0.2900 -0.1963 -0.0894
 6679TIP3    H141528   2.797   4.819   1.070  0.8085  1.5619  0.5551
 6679TIP3    H241529   2.669   4.769   1.133  0.4640  0.0810 -1.2435
 6680TIP3   OH241530   3.566   0.365   0.595 -0.0736  0.0773  0.3905
 6680TIP3    H141531   3.623   0.367   0.518  0.7018 -3.0610  0.7604
 6680TIP3    H241532   3.563   0.273   0.621 -3.4134  0.4517  1.8577
 6681TIP3   OH241533   1.079   2.317   5.640 -0.4048 -0.0367  0.2124
 6681TIP3    H141534   1.175   2.310   5.647 -0.2754  0.9201 -0.3761
 6681TIP3    H241535   1.062   2.306   5.547 -0.9051 -0.4966  0.3568
 6682TIP3   OH241536   2.306   2.490   4.021 -0.4752 -0.0772 -0.6116
 6682TIP3    H141537   2.366   2.564   4.013  0.7376 -0.8881  0.4272
 6682TIP3    H241538   2.362   2.413   4.010 -2.0822 -0.9408 -4.3815
 6683TIP3   OH241539   0.269   5.930  15.108 -0.4949 -0.5209 -0.2126
 6683TIP3    H141540   0.209   5.921  15.182  0.3139 -0.1806  0.5101
 6683TIP3    H241541   0.334   5.995  15.138 -0.0769 -0.4822 -1.1690
 6684TIP3   OH241542   1.175   4.790  11.544  1.0160 -0.5856 -0.2271
 6684TIP3    H141543   1.084   4.816  11.527  1.0732 -0.4920 -0.3981
 6684TIP3    H241544   1.227   4.866  11.516  1.2610 -1.2416 -1.6760
 6685TIP3   OH241545   4.815   3.186  13.679  0.0227 -0.4054  0.4584
 6685TIP3    H141546   4.829   3.276  13.708 -1.5811 -0.5775  1.9364
 6685TIP3    H241547   4.854   3.131  13.747 -0.3365 -0.8189  0.3443
 6686TIP3   OH241548   2.626   1.705  10.916  0.3848 -0.0123  0.4055
 6686TIP3    H141549   2.550   1.751  10.882 -0.1608 -0.1288  1.4535
 6686TIP3    H241550   2.699   1.736  10.862  0.0371  2.0747  1.0554
 6687TIP3   OH241551   1.472   5.920  10.721 -0.4702  0.0350 -0.4315
 6687TIP3    H141552   1.435   5.838  10.755  0.7900 -0.6193 -0.5475
 6687TIP3    H241553   1.532   5.891  10.652 -1.3509  1.1988 -1.7345
 6688TIP3   OH241554   2.593   1.364  16.744 -0.4740 -0.3703  0.0002
 6688TIP3    H141555   2.632   1.315  16.817 -0.7143  0.0713  0.4307
 6688TIP3    H241556   2.636   1.329  16.666  1.8647  1.0291  0.5418
 6689TIP3   OH241557   0.439   3.177  12.290 -0.0543  0.3533 -0.0135
 6689TIP3    H141558   0.476   3.223  12.366  1.5891 -0.8251 -0.0474
 6689TIP3    H241559   0.352   3.150  12.318 -0.0868  1.3171  0.8735
 6690TIP3   OH241560   2.507   1.822  11.630 -0.0846 -0.5392  0.0535
 6690TIP3    H141561   2.580   1.863  11.583  1.3617 -0.7845  1.9883
 6690TIP3    H241562   2.513   1.729  11.608  1.3919 -0.8644  1.6410
 6691TIP3   OH241563   3.581   6.768   5.875  0.4938 -0.1015  0.3154
 6691TIP3    H141564   3.588   6.702   5.944 -0.1691 -0.7341 -0.2122
 6691TIP3    H241565   3.614   6.724   5.796  2.1815  0.9227  0.3921
 6692TIP3   OH241566   1.152   4.743  14.634  0.2658  0.6208 -0.0204
 6692TIP3    H141567   1.229   4.725  14.580  0.0381 -0.2274 -0.0763
 6692TIP3    H241568   1.144   4.666  14.690 -0.4412  0.7853  0.1061
 6693TIP3   OH241569   5.790   1.667   4.499 -0.0892  0.5360  0.1203
 6693TIP3    H141570   5.717   1.606   4.501  0.4412 -0.0841  1.3886
 6693TIP3    H241571   5.841   1.641   4.422 -1.0416  0.8244 -0.6337
 6694TIP3   OH241572   1.635   2.216   0.155 -0.3756 -0.5977 -0.2923
 6694TIP3    H141573   1.706   2.156   0.178  1.4472  1.4937 -0.2304
 6694TIP3    H241574   1.584   2.167   0.090 -0.9688 -3.4781  2.0873
 6695TIP3   OH241575   0.878   3.132  14.916 -0.3957 -0.0834  0.6300
 6695TIP3    H141576   0.783   3.118  14.911 -0.5102  0.1251  1.8295
 6695TIP3    H241577   0.915   3.065  14.858 -1.1876 -1.6319  1.8218
 6696TIP3   OH241578   0.952   0.612  13.572 -0.6918  0.8580  0.6257
 6696TIP3    H141579   0.909   0.595  13.655 -1.2529  2.6375  0.7503
 6696TIP3    H241580   1.029   0.665  13.595  0.8124 -1.0570  0.2558
 6697TIP3   OH241581   5.120   2.956  13.270  0.1722  0.0856  0.4844
 6697TIP3    H141582   5.054   2.929  13.206  0.2422 -0.9309  0.8267
 6697TIP3    H241583   5.080   3.031  13.315 -0.6088 -0.2997  0.4497
 6698TIP3   OH241584   6.688   3.813  11.756 -0.1191 -0.0532 -0.3903
 6698TIP3    H141585   6.604   3.848  11.728 -0.0215  0.6980  0.2151
 6698TIP3    H241586   6.667   3.733  11.805 -0.7598  1.6004  2.2472
 6699TIP3   OH241587   5.964   0.594  10.255  0.0328 -0.6510  0.5748
 6699TIP3    H141588   5.897   0.622  10.316 -1.1176  0.3588 -1.0589
 6699TIP3    H241589   6.024   0.668  10.249  1.1248 -1.4050  1.7380
 6700TIP3   OH241590   3.842   0.538  13.375  0.1093 -0.1970  0.0619
 6700TIP3    H141591   3.909   0.583  13.427 -0.5172 -1.8206  2.4357
 6700TIP3    H241592   3.768   0.599  13.373 -0.0273 -0.2574  1.5715
 6701TIP3   OH241593   2.112   6.073  11.499  0.1289 -0.3540  0.5771
 6701TIP3    H141594   2.145   5.993  11.539 -0.9589 -0.7442  0.7307
 6701TIP3    H241595   2.017   6.059  11.492  0.0293  0.5855 -0.1475
 6702TIP3   OH241596   1.673   2.686   0.558 -0.3224  0.2310 -0.2449
 6702TIP3    H141597   1.768   2.684   0.558 -0.2868  0.7749  1.3713
 6702TIP3    H241598   1.650   2.763   0.505  0.0928 -0.3313 -1.2650
 6703TIP3   OH241599   6.300   5.925   3.115  0.3133 -0.1199  0.3655
 6703TIP3    H141600   6.288   5.949   3.023  0.3693 -1.7462 -0.0931
 6703TIP3    H241601   6.218   5.951   3.157  1.1253  2.7923  0.4056
 6704TIP3   OH241602   4.833   3.342   0.587  0.4933  0.7610  0.2842
 6704TIP3    H141603   4.754   3.313   0.632  0.2060  2.1744  0.7400
 6704TIP3    H241604   4.852   3.428   0.624  1.4849  1.0257 -0.7688
 6705TIP3   OH241605   2.001   1.394  13.290  0.4512 -0.6953  0.6400
 6705TIP3    H141606   1.952   1.325  13.244 -0.0648 -2.0531  3.0563
 6705TIP3    H241607   2.080   1.351  13.320 -0.3217 -0.5805  3.0245
 6706TIP3   OH241608   3.164   1.577  13.699 -0.1842 -0.4387 -0.1020
 6706TIP3    H141609   3.174   1.599  13.607  1.1265 -0.5468 -0.0045
 6706TIP3    H241610   3.070   1.563  13.710 -0.2099 -1.9353 -1.7709
 6707TIP3   OH241611   0.830   6.240  14.654  0.2996 -0.5383 -0.3552
 6707TIP3    H141612   0.873   6.178  14.713  0.3709 -2.2022 -2.0612
 6707TIP3    H241613   0.899   6.302  14.631  1.2799 -1.9484 -1.3980
 6708TIP3   OH241614   2.675   1.553   5.152 -0.2056  0.3375 -0.1486
 6708TIP3    H141615   2.759   1.529   5.189  1.2799  1.8615 -2.3060
 6708TIP3    H241616   2.643   1.624   5.208  0.5056  0.5283  0.0286
 6709TIP3   OH241617   4.326   2.216   4.131  0.2579  0.2000 -0.2723
 6709TIP3    H141618   4.245   2.201   4.082  0.4372  1.1628 -0.9134
 6709TIP3    H241619   4.388   2.244   4.064  0.7020  0.8909  0.4149
 6710TIP3   OH241620   5.835   0.916  13.746  0.3869  0.4003 -0.2080
 6710TIP3    H141621   5.918   0.918  13.795 -0.2069 -3.3781  1.3190
 6710TIP3    H241622   5.838   0.832  13.699 -2.0181  0.8024 -1.1978
 6711TIP3   OH241623   4.798   4.894  13.533  0.1123  0.0368 -0.1143
 6711TIP3    H141624   4.834   4.837  13.601  1.0468  1.2770  0.4637
 6711TIP3    H241625   4.715   4.925  13.570  0.0918 -0.1562  0.0016
 6712TIP3   OH241626   4.100   4.301  15.028 -0.6526 -0.0227  0.2273
 6712TIP3    H141627   4.046   4.246  15.086 -2.3955 -0.8076 -2.0069
 6712TIP3    H241628   4.041   4.370  14.998  0.3471  0.6355 -0.2962
 6713TIP3   OH241629   4.173   6.173  15.001 -0.0706 -0.4532 -0.9438
 6713TIP3    H141630   4.156   6.229  14.925  2.1962  0.0692 -1.1512
 6713TIP3    H241631   4.261   6.137  14.985 -0.9475 -3.1517 -0.2337
 6714TIP3   OH241632   1.699   2.306   1.147  0.2125  0.4190  0.0258
 6714TIP3    H141633   1.775   2.294   1.204  0.5372 -2.7041 -0.8578
 6714TIP3    H241634   1.626   2.269   1.197  0.2169 -0.8928 -0.8636
 6715TIP3   OH241635   6.207   4.324  14.488 -0.0716 -0.1032 -0.1725
 6715TIP3    H141636   6.160   4.290  14.412 -0.6357 -0.0493  0.1415
 6715TIP3    H241637   6.220   4.248  14.545  0.2055 -0.1133 -0.2475
 6716TIP3   OH241638   1.785   1.814   4.555 -0.0331 -0.0230 -0.0383
 6716TIP3    H141639   1.866   1.775   4.586  1.8582  2.5208 -1.3375
 6716TIP3    H241640   1.768   1.771   4.471 -0.0614 -0.5861  0.2528
 6717TIP3   OH241641   0.481   5.837   5.244 -0.1537  0.4396  0.0642
 6717TIP3    H141642   0.387   5.849   5.226 -0.2175 -0.7999 -0.5362
 6717TIP3    H241643   0.489   5.744   5.267  1.2695 -0.1061 -2.3331
 6718TIP3   OH241644   4.937   2.825  15.737 -0.3142  0.4838  0.7067
 6718TIP3    H141645   4.975   2.777  15.810  3.1915  0.7545 -0.7135
 6718TIP3    H241646   4.954   2.769  15.661 -0.1623  1.9747 -0.3997
 6719TIP3   OH241647   2.399   5.444  16.489  0.6510 -0.1297 -0.0480
 6719TIP3    H141648   2.310   5.436  16.455  0.5670 -1.4944  0.4136
 6719TIP3    H241649   2.442   5.507  16.431 -0.4273  0.0589 -0.6609
 6720TIP3   OH241650   0.962   5.686   4.162 -0.3649  0.2040  0.1507
 6720TIP3    H141651   0.898   5.654   4.226 -0.6798 -0.3671 -0.4430
 6720TIP3    H241652   1.028   5.731   4.215 -0.7508 -0.0444  0.8545
 6721TIP3   OH241653   2.918   3.355   1.687  0.4976 -0.1205  0.0620
 6721TIP3    H141654   2.930   3.366   1.593  0.1061 -0.8018 -0.0780
 6721TIP3    H241655   2.980   3.415   1.727  2.1728 -1.3366 -0.6120
 6722TIP3   OH241656   5.738   3.089   5.070  0.7060  0.3762 -0.4219
 6722TIP3    H141657   5.762   3.147   4.997 -0.4300 -0.7048 -1.7107
 6722TIP3    H241658   5.794   3.013   5.060  0.0634 -0.0822 -0.5938
 6723TIP3   OH241659   4.490   3.339  14.361  0.5312 -0.2372 -0.9074
 6723TIP3    H141660   4.463   3.429  14.383 -0.9233 -1.2468  1.9088
 6723TIP3    H241661   4.582   3.335  14.383  0.4304  0.3781 -0.3503
 6724TIP3   OH241662   1.061   5.422  16.617 -0.1063  0.1797 -0.2216
 6724TIP3    H141663   1.032   5.513  16.607 -0.0544  0.0925 -1.2247
 6724TIP3    H241664   1.150   5.429  16.651 -0.4367  0.4806  0.6145
 6725TIP3   OH241665   1.075   5.370  15.247 -0.9187  0.2426 -0.0679
 6725TIP3    H141666   1.152   5.423  15.265 -0.8620 -0.4511  1.9012
 6725TIP3    H241667   1.053   5.390  15.156  1.9186  0.0366 -0.8852
 6726TIP3   OH241668   6.439   1.992   1.563  0.1381 -0.3258 -0.4129
 6726TIP3    H141669   6.404   1.951   1.485  1.2243 -0.7698 -0.6936
 6726TIP3    H241670   6.517   1.939   1.585  1.3598  1.3274 -0.5602
 6727TIP3   OH241671   2.568   0.556  14.490  0.0308 -0.1748 -0.3285
 6727TIP3    H141672   2.534   0.472  14.523 -0.1928  0.2366  0.5164
 6727TIP3    H241673   2.514   0.622  14.534  0.6798  0.4308 -0.4376
 6728TIP3   OH241674   1.140   2.317  16.484  0.3315  0.0642  0.5683
 6728TIP3    H141675   1.074   2.382  16.509  0.8437  1.2709 -0.9827
 6728TIP3    H241676   1.205   2.368  16.435  1.7066 -1.3345  0.8690
 6729TIP3   OH241677   4.725   0.655  16.377 -0.1246  0.0104 -0.4463
 6729TIP3    H141678   4.808   0.703  16.381  0.1713 -0.5447  1.0961
 6729TIP3    H241679   4.731   0.593  16.450 -1.7854 -0.2249 -0.4840
 6730TIP3   OH241680   5.738   5.459  12.424  0.0734 -1.0079 -0.8871
 6730TIP3    H141681   5.728   5.364  12.419 -1.7428 -0.8514 -0.6768
 6730TIP3    H241682   5.822   5.472  12.469  0.9112 -2.4893 -1.9690
 6731TIP3   OH241683   2.980   4.525  14.247  0.0633  0.3280 -0.3090
 6731TIP3    H141684   2.991   4.483  14.162 -0.8008  0.6532 -0.5896
 6731TIP3    H241685   2.993   4.455  14.310  1.2668  0.1959 -0.6773
 6732TIP3   OH241686   4.739   2.303   0.179  0.3180  0.1411 -0.2263
 6732TIP3    H141687   4.649   2.287   0.207  0.1169 -1.2740 -1.5379
 6732TIP3    H241688   4.744   2.398   0.169 -0.1586  0.5412  2.5045
 6733TIP3   OH241689   6.617   0.276   3.283 -0.1388  0.6150  0.1940
 6733TIP3    H141690   6.563   0.212   3.331 -0.9173  1.4234  0.4230
 6733TIP3    H241691   6.646   0.229   3.205 -2.0453  0.4468 -0.4648
 6734TIP3   OH241692   5.657   4.675  15.924  0.4468  0.2609  0.5251
 6734TIP3    H141693   5.645   4.596  15.872  0.2714  0.8402 -0.3257
 6734TIP3    H241694   5.583   4.731  15.901  1.2621  1.2122  0.1181
 6735TIP3   OH241695   2.167   0.273  11.633  0.7825 -0.1562  0.0034
 6735TIP3    H141696   2.115   0.250  11.556  1.7649  1.5082 -1.2281
 6735TIP3    H241697   2.103   0.279  11.704 -0.4228 -0.1083 -1.0434
 6736TIP3   OH241698   6.204   3.034  14.043 -0.7842 -0.1622 -0.4023
 6736TIP3    H141699   6.244   2.987  13.970 -0.5722  0.1990 -0.5255
 6736TIP3    H241700   6.206   2.973  14.116  1.2591  0.2870 -0.0200
 6737TIP3   OH241701   5.811   3.022   6.494 -0.2864 -0.4293  0.0672
 6737TIP3    H141702   5.730   3.054   6.455  0.3967 -0.4454 -1.4553
 6737TIP3    H241703   5.878   3.040   6.428  0.9383 -0.5148  1.2345
 6738TIP3   OH241704   1.412   0.720   4.465 -0.2011 -0.0052 -0.1447
 6738TIP3    H141705   1.476   0.775   4.421 -0.3104 -0.3593 -0.7600
 6738TIP3    H241706   1.395   0.764   4.548  1.8456 -0.5947  0.6615
 6739TIP3   OH241707   4.699   6.274  10.877  0.0658  0.0882 -0.4478
 6739TIP3    H141708   4.691   6.285  10.783  0.6360  2.5172 -0.2746
 6739TIP3    H241709   4.612   6.294  10.912  0.1287  0.2513 -0.3841
 6740TIP3   OH241710   5.552   5.072   2.223 -0.4979 -0.4406 -0.0389
 6740TIP3    H141711   5.610   5.121   2.281 -1.5433  0.8529 -0.0360
 6740TIP3    H241712   5.555   4.983   2.257 -0.1174  0.0336  1.2381
 6741TIP3   OH241713   4.057   0.147  15.482  0.3550  0.5553 -0.0261
 6741TIP3    H141714   3.983   0.124  15.540  0.0456  0.2862 -0.5189
 6741TIP3    H241715   4.129   0.166  15.542 -0.4405  2.0587  0.5199
 6742TIP3   OH241716   4.525   2.759   0.417  0.0681 -0.5517 -0.2173
 6742TIP3    H141717   4.512   2.727   0.328 -0.4074 -1.5230  0.1893
 6742TIP3    H241718   4.555   2.850   0.406 -0.4691 -0.4972 -1.3464
 6743TIP3   OH241719   5.952   0.723   5.329 -0.3638 -0.0928 -0.5627
 6743TIP3    H141720   6.034   0.757   5.366 -0.3066 -1.1991  0.3522
 6743TIP3    H241721   5.934   0.644   5.379 -0.9126 -0.9928 -2.1422
 6744TIP3   OH241722   3.225   0.438  11.598  0.0295  0.9331 -0.3447
 6744TIP3    H141723   3.139   0.433  11.640  0.6097 -1.4710  0.7278
 6744TIP3    H241724   3.220   0.374  11.527  1.6127 -1.1006  1.2380
 6745TIP3   OH241725   6.146   2.269   4.090 -0.2095 -0.5392 -0.5342
 6745TIP3    H141726   6.230   2.314   4.092 -0.1104 -0.7300 -0.3162
 6745TIP3    H241727   6.102   2.303   4.012 -0.4129  0.4199 -0.0119
 6746TIP3   OH241728   5.910   2.270   5.067  0.3385  0.5919  0.9085
 6746TIP3    H141729   5.817   2.257   5.047  0.9328 -1.9059 -0.8536
 6746TIP3    H241730   5.930   2.203   5.133  1.5731 -1.6351 -1.5202
 6747TIP3   OH241731   1.708   4.109   5.200 -0.2960  0.6864 -0.0567
 6747TIP3    H141732   1.614   4.097   5.212 -0.2555 -1.4579 -1.3246
 6747TIP3    H241733   1.748   4.069   5.277 -0.3852 -0.1173 -0.4230
 6748TIP3   OH241734   4.022   3.477  16.814  0.0583  0.2224 -0.1709
 6748TIP3    H141735   4.082   3.443  16.747  0.0566  1.8560 -1.0539
 6748TIP3    H241736   4.068   3.553  16.850 -0.4050 -0.0183  0.9798
 6749TIP3   OH241737   1.207   1.857  11.419  0.2797 -0.1482  0.8236
 6749TIP3    H141738   1.125   1.899  11.393  0.9425 -0.3164 -1.8137
 6749TIP3    H241739   1.180   1.794  11.487 -1.5075  0.8512  1.1155
 6750TIP3   OH241740   3.124   0.739  11.654  0.1012 -0.2782  0.3775
 6750TIP3    H141741   3.187   0.667  11.645  2.2139  1.2991  1.7878
 6750TIP3    H241742   3.100   0.761  11.564 -0.8228 -2.8250 -0.1089
 6751TIP3   OH241743   3.519   0.791  17.125 -0.2427  0.5110  0.1877
 6751TIP3    H141744   3.596   0.848  17.122 -0.2215  0.5196  0.8570
 6751TIP3    H241745   3.548   0.710  17.084  0.0342  0.6205  0.1675
 6752TIP3   OH241746   2.969   6.514   0.739 -0.2111 -0.1277  0.0829
 6752TIP3    H141747   2.953   6.481   0.650 -1.4995 -1.4525  0.7518
 6752TIP3    H241748   2.970   6.609   0.730 -1.2087 -0.2098 -1.2393
 6753TIP3   OH241749   3.212   3.579  12.137 -0.2143 -0.2286  0.3333
 6753TIP3    H141750   3.146   3.644  12.160 -0.4755 -0.1619 -0.5927
 6753TIP3    H241751   3.293   3.629  12.127  0.0187 -0.3257  1.5833
 6754TIP3   OH241752   4.715   0.966  12.943  0.0806  0.1627  0.2332
 6754TIP3    H141753   4.663   0.900  12.897 -0.2241  2.2171 -2.6486
 6754TIP3    H241754   4.652   1.035  12.964  0.9593  1.0065  0.1355
 6755TIP3   OH241755   2.838   0.670   5.209  0.0108 -0.3868 -0.3085
 6755TIP3    H141756   2.880   0.711   5.133 -0.2768  2.9802  1.1842
 6755TIP3    H241757   2.754   0.716   5.217 -0.4286 -1.4082  1.4298
 6756TIP3   OH241758   6.389   5.248   5.237 -0.0985  0.3947 -0.3581
 6756TIP3    H141759   6.470   5.277   5.278 -0.1644  1.2822 -0.8316
 6756TIP3    H241760   6.402   5.265   5.144 -1.0540  1.1158 -0.3741
 6757TIP3   OH241761   3.958   4.737  13.980  0.4922 -0.1382  0.3108
 6757TIP3    H141762   3.900   4.689  13.921  2.3968 -1.2019 -0.7923
 6757TIP3    H241763   3.932   4.709  14.068  0.6364 -2.1617 -0.2490
 6758TIP3   OH241764   0.890   4.121  12.721 -0.0402  0.0713  0.1550
 6758TIP3    H141765   0.960   4.156  12.775 -0.4798  0.0055  0.7675
 6758TIP3    H241766   0.884   4.029  12.746 -0.0274 -0.0425 -0.2437
 6759TIP3   OH241767   5.000   4.240   2.512 -0.0944  0.3506  0.1305
 6759TIP3    H141768   4.997   4.328   2.475  0.5055 -0.5850 -2.3814
 6759TIP3    H241769   4.914   4.203   2.492  0.6271 -0.5523 -1.5119
 6760TIP3   OH241770   0.391   1.726   5.050 -0.1768 -0.3435  0.0691
 6760TIP3    H141771   0.357   1.652   5.101  0.4521 -0.8491 -0.2309
 6760TIP3    H241772   0.467   1.757   5.100  0.1664 -0.5490 -0.3231
 6761TIP3   OH241773   1.777   5.768   4.930 -0.2028 -0.3834  0.1602
 6761TIP3    H141774   1.848   5.731   4.878  1.5459  2.4850  0.3268
 6761TIP3    H241775   1.818   5.797   5.011 -1.5344  1.3024  0.3028
 6762TIP3   OH241776   0.882   4.241   6.378  0.7361  0.1284 -0.5904
 6762TIP3    H141777   0.886   4.145   6.385 -0.2081  0.1876  1.8095
 6762TIP3    H241778   0.788   4.260   6.374  0.7778  1.0041  1.4557
 6763TIP3   OH241779   5.426   3.130   3.232 -0.3274  0.3114 -0.3968
 6763TIP3    H141780   5.521   3.119   3.236 -0.3209  0.4088 -0.2905
 6763TIP3    H241781   5.408   3.202   3.292 -0.5308 -0.0442 -0.0344
 6764TIP3   OH241782   6.211   3.345  15.967  0.8050 -0.1162 -0.4006
 6764TIP3    H141783   6.136   3.286  15.975  1.4313 -1.3442 -2.6176
 6764TIP3    H241784   6.282   3.289  15.933  1.6620  1.7090 -1.7987
 6765TIP3   OH241785   4.220   6.783   0.483  0.7490 -0.5743 -0.1863
 6765TIP3    H141786   4.238   6.732   0.562 -0.5604 -1.4199 -0.4125
 6765TIP3    H241787   4.298   6.772   0.428  2.3742  1.2563  1.5557
 6766TIP3   OH241788   4.261   5.696   4.971 -0.1399  0.0395 -0.2005
 6766TIP3    H141789   4.217   5.674   4.889  0.9511 -1.2182 -0.4718
 6766TIP3    H241790   4.227   5.633   5.035  0.5112 -0.2824 -0.1689
 6767TIP3   OH241791   4.981   2.524   2.644 -0.4393 -0.1653  0.5379
 6767TIP3    H141792   4.888   2.542   2.630 -0.4163 -0.7951 -0.5270
 6767TIP3    H241793   5.001   2.453   2.583  0.7456 -0.0224  0.7376
 6768TIP3   OH241794   5.972   2.206  13.980  0.2948  0.2447  0.2053
 6768TIP3    H141795   5.981   2.274  13.913  0.5362 -1.1663 -1.2666
 6768TIP3    H241796   6.051   2.153  13.970 -0.3851 -0.8710  0.5731
 6769TIP3   OH241797   0.619   2.930  14.106 -0.1152 -0.7534 -1.3371
 6769TIP3    H141798   0.634   2.960  14.016 -0.2188 -0.2663 -1.1965
 6769TIP3    H241799   0.700   2.951  14.152 -0.3908 -0.1819 -1.1071
 6770TIP3   OH241800   0.671   0.206   4.234 -0.1224  0.2756 -0.2822
 6770TIP3    H141801   0.731   0.148   4.280  0.4578  2.7592  2.4615
 6770TIP3    H241802   0.713   0.292   4.239 -2.5671  1.5964 -0.8110
 6771TIP3   OH241803   1.182   3.154  12.965 -0.1451 -0.4190 -0.3712
 6771TIP3    H141804   1.114   3.111  12.914 -0.7692  0.6098 -0.4278
 6771TIP3    H241805   1.144   3.165  13.052  0.7022 -1.6421  0.1964
 6772TIP3   OH241806   2.156   5.940  14.432 -0.7250  0.1056 -0.3021
 6772TIP3    H141807   2.239   5.892  14.437 -1.4416 -1.3144 -1.3463
 6772TIP3    H241808   2.177   6.026  14.468  0.6164 -0.9483  1.6871
 6773TIP3   OH241809   5.337   0.479  12.033 -0.7272 -0.3373 -0.3051
 6773TIP3    H141810   5.357   0.509  11.944 -0.8474  0.7286  0.0141
 6773TIP3    H241811   5.291   0.552  12.073 -0.8731 -0.8935  0.5734
 6774TIP3   OH241812   3.133   1.215  15.668  0.0931  0.1402 -0.6331
 6774TIP3    H141813   3.185   1.153  15.616  0.8211 -0.3109  0.5817
 6774TIP3    H241814   3.183   1.225  15.749 -2.5008 -1.6784  1.3914
 6775TIP3   OH241815   3.632   3.919  12.405 -0.4115 -0.0775 -0.4042
 6775TIP3    H141816   3.566   3.852  12.386 -1.8737  1.4310 -0.8942
 6775TIP3    H241817   3.581   3.995  12.432  1.2107  0.8387  0.1746
 6776TIP3   OH241818   4.947   1.553   5.748  0.3783  0.6438 -0.0712
 6776TIP3    H141819   4.952   1.513   5.661  1.2173  1.8395 -0.5991
 6776TIP3    H241820   4.907   1.638   5.734 -1.7176 -0.0599  1.0976
 6777TIP3   OH241821   2.876   0.876  15.683 -1.2601  0.6144  0.2977
 6777TIP3    H141822   2.957   0.839  15.648 -0.2798 -0.0665  3.0188
 6777TIP3    H241823   2.905   0.951  15.735 -2.3737  0.3696  1.3084
 6778TIP3   OH241824   5.361   4.314   0.705 -0.1810  0.2192 -0.2906
 6778TIP3    H141825   5.455   4.301   0.714 -0.4733 -1.7375  0.2962
 6778TIP3    H241826   5.350   4.409   0.704  1.7443  0.4832  0.1902
 6779TIP3   OH241827   2.236   1.301  13.742 -0.7222 -0.2949 -0.1305
 6779TIP3    H141828   2.156   1.270  13.785 -0.3236  1.3273  1.9123
 6779TIP3    H241829   2.307   1.267  13.797  0.0525 -1.5919 -1.8416
 6780TIP3   OH241830   2.810   2.581  13.060 -0.2338  0.1502 -0.2560
 6780TIP3    H141831   2.747   2.551  12.995 -1.0919  0.0379  0.6029
 6780TIP3    H241832   2.894   2.547  13.030 -0.6197  0.0604 -1.2654
 6781TIP3   OH241833   2.103   3.482  15.268 -0.5772  0.4623 -0.1543
 6781TIP3    H141834   2.076   3.450  15.183  1.5765 -1.2302 -0.2832
 6781TIP3    H241835   2.078   3.414  15.330 -0.5471  0.8750  0.3268
 6782TIP3   OH241836   2.604   1.391  12.722 -0.1566  0.8070 -0.3460
 6782TIP3    H141837   2.576   1.365  12.634  1.2943  2.1301 -1.2747
 6782TIP3    H241838   2.658   1.318  12.752  1.2604  1.2925 -1.5746
 6783TIP3   OH241839   6.410   0.537   5.916  0.0681 -0.6108 -0.2829
 6783TIP3    H141840   6.429   0.563   6.006  0.8008 -0.9194 -0.3392
 6783TIP3    H241841   6.465   0.461   5.901 -0.6730 -1.0660 -0.7273
 6784TIP3   OH241842   6.132   3.551  16.600 -0.3721  0.2969  0.5961
 6784TIP3    H141843   6.169   3.599  16.673 -1.2447  1.0562  0.5614
 6784TIP3    H241844   6.170   3.591  16.522 -2.9524  2.7103  0.4330
 6785TIP3   OH241845   2.201   0.155   4.565  0.8153 -0.2428  0.3662
 6785TIP3    H141846   2.168   0.184   4.479  1.5547  0.5483  0.3391
 6785TIP3    H241847   2.265   0.088   4.544  2.7006  1.5402  0.1304
 6786TIP3   OH241848   3.128   3.057   2.921 -0.5257 -0.1345  0.4733
 6786TIP3    H141849   3.043   3.050   2.876 -0.4569 -0.3937  0.3855
 6786TIP3    H241850   3.118   3.134   2.977 -0.5704  0.2594 -0.0739
 6787TIP3   OH241851   1.620   4.997   1.182  0.0610 -0.1362 -0.4142
 6787TIP3    H141852   1.656   5.030   1.099 -1.2084 -1.7696 -1.6661
 6787TIP3    H241853   1.607   4.903   1.168  1.2794 -0.7952  2.2036
 6788TIP3   OH241854   2.590   1.569  15.890 -0.2168  0.5107  0.3395
 6788TIP3    H141855   2.629   1.609  15.813 -3.0849  1.9122 -0.5470
 6788TIP3    H241856   2.547   1.490  15.857  0.8652 -0.4302  1.0873
 6789TIP3   OH241857   3.842   5.880   3.339 -0.3597 -0.6202 -0.2221
 6789TIP3    H141858   3.858   5.890   3.433 -1.8705 -0.8653  0.0879
 6789TIP3    H241859   3.749   5.858   3.333 -0.0781 -1.5130 -1.7271
 6790TIP3   OH241860   5.744   6.366   4.373 -0.5113  0.4659  0.2916
 6790TIP3    H141861   5.700   6.404   4.297 -0.0735  0.3749 -0.0096
 6790TIP3    H241862   5.778   6.283   4.342 -0.4265  0.3756  0.6213
 6791TIP3   OH241863   2.949   0.592  13.998 -0.3297  0.8572  0.2437
 6791TIP3    H141864   2.883   0.566  13.935 -0.4532  1.1964  0.2343
 6791TIP3    H241865   3.030   0.600  13.947 -0.1619 -0.0547  0.3432
 6792TIP3   OH241866   2.694   1.867  11.431  0.2525  0.1744 -0.2120
 6792TIP3    H141867   2.677   1.921  11.353  3.2056 -0.0828 -1.1619
 6792TIP3    H241868   2.680   1.777  11.401  0.3830  0.1259 -0.1256
 6793TIP3   OH241869   0.787   3.426  12.257 -0.1766  0.1926  0.0018
 6793TIP3    H141870   0.822   3.350  12.303 -2.0550 -1.4509 -1.1113
 6793TIP3    H241871   0.862   3.485  12.246  1.3126 -1.4244  1.0186
 6794TIP3   OH241872   6.024   3.743   1.380 -0.7441 -0.6689  0.3251
 6794TIP3    H141873   6.004   3.653   1.407 -1.7656 -0.7516 -0.6169
 6794TIP3    H241874   5.999   3.746   1.287  2.0183 -0.2281 -0.5012
 6795TIP3   OH241875   3.031   3.039   1.118  0.1574  0.2757 -0.7300
 6795TIP3    H141876   3.011   2.966   1.059  3.6099 -0.9007 -0.6533
 6795TIP3    H241877   3.053   3.112   1.059 -0.1007  0.2503 -0.8579
 6796TIP3   OH241878   4.075   2.852  11.573 -0.1153  0.1157  0.2309
 6796TIP3    H141879   3.980   2.846  11.569 -0.2392 -0.2385  2.5062
 6796TIP3    H241880   4.104   2.760  11.579  0.2305  0.2759  1.2267
 6797TIP3   OH241881   0.339   3.588  15.725  0.5104 -0.0385  0.1085
 6797TIP3    H141882   0.425   3.621  15.753  0.4134  0.4067 -0.1068
 6797TIP3    H241883   0.342   3.494  15.744  0.7095  0.1302  0.9407
 6798TIP3   OH241884   3.943   0.399  11.276  0.0389  0.1091 -0.0162
 6798TIP3    H141885   3.992   0.318  11.263 -1.0841 -0.5449 -0.3176
 6798TIP3    H241886   3.967   0.428  11.364 -0.7794 -1.4509  0.7755
 6799TIP3   OH241887   2.859   0.643   2.793 -0.0801 -0.5682  0.1777
 6799TIP3    H141888   2.813   0.692   2.726  0.6576 -0.2696 -0.1263
 6799TIP3    H241889   2.843   0.692   2.874 -1.3405 -1.1763  0.3217
 6800TIP3   OH241890   3.799   4.214   2.131 -0.2521  0.5460 -0.4196
 6800TIP3    H141891   3.762   4.127   2.122 -0.1117  0.5803 -1.4547
 6800TIP3    H241892   3.889   4.199   2.159 -0.7063  0.4288  1.0436
 6801TIP3   OH241893   6.232   3.165   5.968  0.3887  0.5023  0.6242
 6801TIP3    H141894   6.217   3.138   6.059 -0.9175  3.1044  1.2954
 6801TIP3    H241895   6.307   3.224   5.972  1.6757 -0.9892 -0.3937
 6802TIP3   OH241896   1.562   2.304  15.968 -0.2322 -0.6700 -0.0274
 6802TIP3    H141897   1.526   2.262  16.046  0.5270 -1.4553 -0.0873
 6802TIP3    H241898   1.609   2.234  15.922 -0.1083 -0.0687 -0.8464
 6803TIP3   OH241899   1.245   4.782   1.126 -0.0969 -0.3384  0.0587
 6803TIP3    H141900   1.213   4.712   1.069  0.2142 -0.1519 -0.3530
 6803TIP3    H241901   1.200   4.861   1.094 -1.1716 -0.4788  1.1157
 6804TIP3   OH241902   4.258   1.807  14.383 -0.3262 -0.4115 -0.0852
 6804TIP3    H141903   4.248   1.901  14.396 -1.9365 -0.7786  1.6939
 6804TIP3    H241904   4.322   1.799  14.312  1.4218  1.9812  1.0918
 6805TIP3   OH241905   1.116   0.477   5.545  0.2604  0.3898  0.4464
 6805TIP3    H141906   1.051   0.546   5.557  1.3442  1.4836  0.2279
 6805TIP3    H241907   1.106   0.420   5.621 -0.6488  0.7884  0.6335
 6806TIP3   OH241908   0.608   3.716  14.569 -0.2814 -0.1332  0.7465
 6806TIP3    H141909   0.687   3.675  14.534  0.8236  3.7665 -2.0156
 6806TIP3    H241910   0.542   3.647  14.566  2.1614 -2.6124 -0.1635
 6807TIP3   OH241911   4.225   4.627  12.931 -0.0867  0.0121 -0.3016
 6807TIP3    H141912   4.151   4.606  12.987 -1.0982  0.5836 -1.3635
 6807TIP3    H241913   4.186   4.641  12.844  1.2849  0.1653 -0.9214
 6808TIP3   OH241914   1.363   1.281  11.308  0.7559 -0.8432 -0.0097
 6808TIP3    H141915   1.429   1.332  11.262 -0.3813  0.5490 -0.1559
 6808TIP3    H241916   1.297   1.259  11.242  0.9408 -2.0388  0.1743
 6809TIP3   OH241917   1.170   1.907  14.314 -0.5222  0.3953  0.4083
 6809TIP3    H141918   1.090   1.881  14.360 -0.3990  0.1510  0.4892
 6809TIP3    H241919   1.188   1.996  14.345 -1.5708  1.0196 -0.7180
 6810TIP3   OH241920   6.173   5.862  13.767 -0.0376 -0.0627 -0.1645
 6810TIP3    H141921   6.252   5.809  13.757 -0.5540 -0.7182 -0.9545
 6810TIP3    H241922   6.139   5.839  13.853  1.1133  0.9257  0.5931
 6811TIP3   OH241923   1.665   1.146  16.661 -0.8828  0.8557 -0.0465
 6811TIP3    H141924   1.677   1.052  16.651 -1.9023  0.8679 -1.7681
 6811TIP3    H241925   1.753   1.183  16.654 -0.5589  0.0906 -0.1277
 6812TIP3   OH241926   0.262   6.087  13.930 -0.3407  0.2115  0.0703
 6812TIP3    H141927   0.329   6.155  13.932  0.6820 -0.6930 -1.3651
 6812TIP3    H241928   0.287   6.031  13.857 -0.1009 -2.7671  2.2301
 6813TIP3   OH241929   3.482   5.011   2.810  0.4243 -0.2778 -0.3801
 6813TIP3    H141930   3.537   5.072   2.858 -1.8427  2.4532 -0.9412
 6813TIP3    H241931   3.418   4.980   2.875  1.4284 -1.9825 -0.1513
 6814TIP3   OH241932   0.291   5.691   2.748  0.3021  0.6475 -0.3001
 6814TIP3    H141933   0.213   5.637   2.753 -0.7103  1.6204 -3.1707
 6814TIP3    H241934   0.351   5.643   2.691  2.3457 -0.5360  2.6006
 6815TIP3   OH241935   5.986   2.436  14.833  0.2166 -0.2567  0.1969
 6815TIP3    H141936   6.014   2.512  14.782  0.1260 -0.0534  0.4471
 6815TIP3    H241937   5.919   2.394  14.779 -0.0815  0.1151  0.2681
 6816TIP3   OH241938   4.916   1.612  13.117  0.2986 -0.4369 -0.0473
 6816TIP3    H141939   4.936   1.557  13.192  0.4785  1.0814  1.0726
 6816TIP3    H241940   5.002   1.637  13.082  0.2395 -0.2614 -0.0694
 6817TIP3   OH241941   2.504   0.516   1.450 -0.2962  0.0461 -0.0559
 6817TIP3    H141942   2.441   0.461   1.496  0.7873  0.7252  2.4181
 6817TIP3    H241943   2.491   0.603   1.487  1.4947  0.3718 -0.0992
 6818TIP3   OH241944   5.872   1.571  15.797  0.2112 -0.3730 -0.0132
 6818TIP3    H141945   5.780   1.546  15.786 -0.3241  1.6249 -0.4708
 6818TIP3    H241946   5.917   1.529  15.723 -0.5121 -0.5249 -0.3801
 6819TIP3   OH241947   6.078   2.417   3.190  0.2526 -0.0945  0.1604
 6819TIP3    H141948   6.086   2.323   3.206  1.1772 -0.1172 -0.4045
 6819TIP3    H241949   6.080   2.456   3.277 -0.9370 -0.6382  0.4546
 6820TIP3   OH241950   0.583   6.419   1.040 -0.4996  0.1726 -0.3298
 6820TIP3    H141951   0.559   6.326   1.040  1.1418 -0.2774 -0.6391
 6820TIP3    H241952   0.583   6.444   0.948  1.6918 -0.2761 -0.4969
 6821TIP3   OH241953   2.986   3.356  17.057  0.6875 -0.6714  0.2923
 6821TIP3    H141954   3.080   3.340  17.056  0.8950 -0.5143  3.8982
 6821TIP3    H241955   2.948   3.276  17.093 -0.5907 -0.6502 -0.9100
 6822TIP3   OH241956   3.820   0.068   4.624 -0.3739 -0.1564  0.6977
 6822TIP3    H141957   3.908   0.036   4.603 -0.6669  0.0461 -0.9773
 6822TIP3    H241958   3.779  -0.003   4.673  0.5136 -0.4892  0.9761
 6823TIP3   OH241959   5.543   5.467   5.858 -0.3720 -0.1405  0.2791
 6823TIP3    H141960   5.459   5.447   5.901 -0.3280  1.5595  1.2530
 6823TIP3    H241961   5.583   5.532   5.915  0.8543  0.3284 -1.0821
 6824TIP3   OH241962   4.200   3.981   5.929  0.0913  0.0285 -0.0238
 6824TIP3    H141963   4.160   4.060   5.965  0.4670 -0.3671  1.3284
 6824TIP3    H241964   4.285   4.011   5.897 -0.3564  0.4385 -0.8736
 6825TIP3   OH241965   0.717   5.846  13.386 -0.1233 -0.0119 -0.2305
 6825TIP3    H141966   0.709   5.781  13.316  0.6471 -1.0623  0.6256
 6825TIP3    H241967   0.627   5.878  13.399 -0.3592 -0.1902 -1.3164
 6826TIP3   OH241968   4.696   3.350  16.733 -0.2482 -0.5916  0.1796
 6826TIP3    H141969   4.704   3.285  16.663  1.1636 -0.2783  0.0279
 6826TIP3    H241970   4.601   3.361  16.745 -0.5154 -0.6527 -1.6747
 6827TIP3   OH241971   4.197   4.741  11.889  0.1887 -0.7152  0.4494
 6827TIP3    H141972   4.104   4.717  11.887  0.6193 -2.4265 -0.9961
 6827TIP3    H241973   4.228   4.725  11.800  1.1008  3.3244 -0.1548
 6828TIP3   OH241974   5.929   2.136   4.529  0.3958  0.0029  0.3842
 6828TIP3    H141975   5.946   2.110   4.438 -3.1961 -1.0882 -0.1069
 6828TIP3    H241976   5.929   2.231   4.527 -0.3732 -0.0115 -0.9311
 6829TIP3   OH241977   4.541   2.681   1.343  0.4197  0.7104  0.5537
 6829TIP3    H141978   4.483   2.608   1.324  0.5298  1.2641 -2.3162
 6829TIP3    H241979   4.622   2.641   1.375 -0.0313 -0.3086  0.4474
 6830TIP3   OH241980   0.780   2.791  11.719  0.0180 -0.0774 -0.5478
 6830TIP3    H141981   0.714   2.849  11.756  0.8673  1.2280 -0.9847
 6830TIP3    H241982   0.771   2.801  11.625 -0.9785 -2.0456 -0.7019
 6831TIP3   OH241983   1.313   4.624  13.361 -0.0786 -0.4731 -0.2528
 6831TIP3    H141984   1.286   4.535  13.381  0.3118 -0.7159 -0.8020
 6831TIP3    H241985   1.302   4.632  13.266 -1.2866  0.4521 -0.0634
 6832TIP3   OH241986   5.022   5.987  16.243  0.6743 -0.0878 -0.2018
 6832TIP3    H141987   5.039   5.921  16.311  1.6488  0.8299  0.4701
 6832TIP3    H241988   5.049   6.070  16.282 -2.7696  1.1662 -0.0937
 6833TIP3   OH241989   0.753   0.783   5.785 -0.5356 -0.3176 -0.1362
 6833TIP3    H141990   0.751   0.754   5.876 -0.5314 -0.5172 -0.1984
 6833TIP3    H241991   0.671   0.831   5.773  0.6043  2.0277  0.7122
 6834TIP3   OH241992   5.833   3.936   1.944  0.5544  0.3908  0.2541
 6834TIP3    H141993   5.770   3.890   1.889 -0.9440  0.7634  1.5854
 6834TIP3    H241994   5.910   3.947   1.888  0.2267 -1.8905 -0.7715
 6835TIP3   OH241995   5.048   4.125  16.608  0.3452  0.0735 -0.0652
 6835TIP3    H141996   4.998   4.061  16.558 -0.5303  0.2778  0.5281
 6835TIP3    H241997   5.066   4.082  16.692 -0.4577  0.6668  0.4298
 6836TIP3   OH241998   2.620   4.537  13.300 -0.7686 -0.4471 -0.6182
 6836TIP3    H141999   2.618   4.565  13.208 -1.7691  0.1627 -0.4259
 6836TIP3    H242000   2.578   4.609  13.347  0.9519 -0.1296  0.4959
 6837TIP3   OH242001   6.390   1.608  16.858  0.3021  0.0221  0.0272
 6837TIP3    H142002   6.314   1.581  16.910 -0.2300  1.0586 -0.1786
 6837TIP3    H242003   6.353   1.669  16.793  1.1390 -0.3144 -0.7878
 6838TIP3   OH242004   2.336   3.768   1.239 -0.4335  0.4206 -0.3261
 6838TIP3    H142005   2.274   3.749   1.310  0.6407 -2.5560 -0.0164
 6838TIP3    H242006   2.405   3.820   1.281  0.0208 -1.0201  0.8260
 6839TIP3   OH242007   0.418   2.144   5.796  0.8148  0.3923  0.0362
 6839TIP3    H142008   0.406   2.226   5.843  2.9084  0.9624 -0.3493
 6839TIP3    H242009   0.366   2.080   5.846 -0.5227  1.8271  0.5709
 6840TIP3   OH242010   2.905   0.665   0.223 -0.0750 -0.0530 -0.3484
 6840TIP3    H142011   2.832   0.653   0.284 -0.1796 -0.0445 -0.4730
 6840TIP3    H242012   2.982   0.635   0.273 -0.0808  0.4685 -0.0195
 6841TIP3   OH242013   0.166   0.598   0.211 -0.2265  0.0429 -0.8358
 6841TIP3    H142014   0.131   0.584   0.123 -0.4760  2.8003 -1.2456
 6841TIP3    H242015   0.153   0.514   0.255 -0.9122 -1.1429 -3.1357
 6842TIP3   OH242016   3.458   0.905  13.889 -0.0440 -0.3632  0.2618
 6842TIP3    H142017   3.383   0.905  13.830  0.4224 -2.7035 -0.4228
 6842TIP3    H242018   3.519   0.967  13.850 -1.0838  0.6195  0.1403
 6843TIP3   OH242019   1.621   3.682   3.075 -0.1073  0.2563  0.7432
 6843TIP3    H142020   1.698   3.651   3.124 -0.6090 -0.9524  0.8058
 6843TIP3    H242021   1.575   3.739   3.137 -0.0166 -0.1780  1.2206
 6844TIP3   OH242022   1.932   5.633  11.470 -0.6370  0.0163  0.0679
 6844TIP3    H142023   1.974   5.620  11.385  1.0260 -0.5282  0.9223
 6844TIP3    H242024   1.910   5.726  11.472  1.6235  0.6122  0.0077
 6845TIP3   OH242025   6.602   0.782   2.184  0.3232 -0.3918 -0.1030
 6845TIP3    H142026   6.626   0.861   2.232 -0.9057  2.0008 -3.1167
 6845TIP3    H242027   6.685   0.735   2.173  1.3289  1.1126  0.7012
 6846TIP3   OH242028   5.162   1.525  11.751  0.0144  0.0122 -0.2410
 6846TIP3    H142029   5.086   1.566  11.791  0.8246  0.9952  0.3416
 6846TIP3    H242030   5.162   1.558  11.661 -0.5374 -0.4121 -0.4010
 6847TIP3   OH242031   3.131   5.665   0.696  0.2111 -0.6539 -0.3811
 6847TIP3    H142032   3.183   5.588   0.672 -0.9425 -1.2818 -0.9459
 6847TIP3    H242033   3.040   5.637   0.689 -0.2575 -0.0653  2.1761
 6848TIP3   OH242034   6.692   5.430  13.899 -0.2470 -0.2583  0.2091
 6848TIP3    H142035   6.607   5.392  13.878 -0.6259  1.0323 -0.6992
 6848TIP3    H242036   6.731   5.369  13.961 -2.0472 -0.6190  1.0429
 6849TIP3   OH242037   5.399   2.410  15.363  0.0399  0.5073  0.0277
 6849TIP3    H142038   5.402   2.501  15.393 -1.4792  0.6805 -0.2685
 6849TIP3    H242039   5.319   2.375  15.402  0.3684 -0.5803 -0.2434
 6850TIP3   OH242040   5.380   0.077   5.944  0.3504 -0.7245 -0.6316
 6850TIP3    H142041   5.318   0.016   5.985  0.8748 -1.1727 -0.4881
 6850TIP3    H242042   5.387   0.149   6.006 -2.1747  0.7495 -1.8982
 6851TIP3   OH242043   1.926   4.449   4.608  0.0320 -0.4779  0.1746
 6851TIP3    H142044   1.953   4.508   4.538  0.5278  0.2489  0.9643
 6851TIP3    H242045   1.931   4.361   4.568 -0.5927 -0.0221 -0.9691
 6852TIP3   OH242046   3.938   6.842   3.752 -0.8656 -0.8731  0.2086
 6852TIP3    H142047   3.978   6.854   3.666 -0.5871  1.2696  0.5719
 6852TIP3    H242048   3.846   6.865   3.739 -1.2446 -2.3896  0.1075
 6853TIP3   OH242049   2.460   5.719  16.070 -0.0822 -0.0015 -0.2185
 6853TIP3    H142050   2.504   5.647  16.024  0.1888  1.3224 -2.1430
 6853TIP3    H242051   2.520   5.793  16.061 -0.7587  0.7125  0.9610
 6854TIP3   OH242052   4.369   5.658  14.892 -0.1456  0.3241 -0.9488
 6854TIP3    H142053   4.306   5.730  14.895 -1.1711 -0.5629 -0.6360
 6854TIP3    H242054   4.319   5.585  14.856  0.7049 -0.4098 -0.6565
 6855TIP3   OH242055   4.680   0.956   2.800  0.3770  0.4078 -0.0918
 6855TIP3    H142056   4.687   1.050   2.815 -0.6505  0.3032  1.1624
 6855TIP3    H242057   4.592   0.944   2.764  0.9685  0.0492 -1.5020
 6856TIP3   OH242058   1.725   3.310  10.559  0.7554  0.2424  0.0814
 6856TIP3    H142059   1.641   3.355  10.572  0.9036  0.8507 -1.0037
 6856TIP3    H242060   1.788   3.363  10.608  0.6669  0.3214  0.1113
 6857TIP3   OH242061   4.655   2.928  12.018 -0.3502  0.2424  0.2600
 6857TIP3    H142062   4.674   2.847  11.971 -1.3571  0.5340 -0.6836
 6857TIP3    H242063   4.593   2.902  12.087  1.1975 -0.2009  1.5607
 6858TIP3   OH242064   0.852   1.269  16.577  0.4651  0.2998 -0.4875
 6858TIP3    H142065   0.884   1.248  16.665  0.4202  1.3399 -0.2041
 6858TIP3    H242066   0.927   1.309  16.533 -0.0329  1.5172 -0.2687
 6859TIP3   OH242067   6.443   1.960  13.600 -0.2118 -0.1040 -0.2887
 6859TIP3    H142068   6.505   1.906  13.550  0.5387 -0.0424  0.5421
 6859TIP3    H242069   6.357   1.924  13.579 -0.1681  1.1404 -3.1665
 6860TIP3   OH242070   4.729   6.401   4.772 -0.7742 -0.1477  0.0261
 6860TIP3    H142071   4.782   6.341   4.825 -0.0481  1.2533  0.9679
 6860TIP3    H242072   4.641   6.393   4.809 -0.6202 -0.4125  0.3471
 6861TIP3   OH242073   1.175   3.102   1.084  0.1393  0.0964 -0.1897
 6861TIP3    H142074   1.224   3.146   1.015 -0.6896 -1.6329 -1.9444
 6861TIP3    H242075   1.083   3.127   1.069  0.0043  0.2152  0.7161
 6862TIP3   OH242076   1.204   3.976   0.497 -0.5156  0.1662  0.1915
 6862TIP3    H142077   1.176   4.066   0.482  0.7634  0.2488 -2.1354
 6862TIP3    H242078   1.285   3.984   0.547 -1.0172  0.2197  1.0200
 6863TIP3   OH242079   6.343   0.548  12.177  0.2356 -0.0420  0.0192
 6863TIP3    H142080   6.401   0.495  12.231  0.5776  0.2698 -0.0423
 6863TIP3    H242081   6.336   0.499  12.095  0.2742 -0.1631  0.0886
 6864TIP3   OH242082   5.752   4.730   2.158  0.2404  0.0252 -0.4381
 6864TIP3    H142083   5.794   4.645   2.143 -0.1626 -0.3667  0.5530
 6864TIP3    H242084   5.813   4.778   2.213  0.3924  0.3232 -0.8606
 6865TIP3   OH242085   1.780   5.722   3.435 -0.6378  0.4407 -0.2896
 6865TIP3    H142086   1.808   5.716   3.527  1.7221  0.2681 -0.9438
 6865TIP3    H242087   1.777   5.816   3.417 -0.6227  0.4632 -0.1769
 6866TIP3   OH242088   4.851   5.151  12.400 -0.2909  0.5093  0.7822
 6866TIP3    H142089   4.772   5.128  12.450 -0.0854 -0.1540  0.8042
 6866TIP3    H242090   4.853   5.247  12.403 -0.9279  0.5232  1.0438
 6867TIP3   OH242091   1.326   1.932   0.649 -0.0961 -1.2069  0.8628
 6867TIP3    H142092   1.252   1.988   0.674 -2.0385 -1.9641 -2.4611
 6867TIP3    H242093   1.324   1.860   0.712 -1.2088 -0.4300  1.7676
 6868TIP3   OH242094   2.436   2.032  13.619  0.1010 -0.4387  0.2691
 6868TIP3    H142095   2.422   2.124  13.598 -0.5098 -0.6359 -0.2267
 6868TIP3    H242096   2.518   2.010  13.574 -0.9910 -0.7524 -1.6778
 6869TIP3   OH242097   6.040   1.453   2.375  0.2704 -0.2772  0.0721
 6869TIP3    H142098   5.966   1.471   2.432  0.4412  0.0998  0.1804
 6869TIP3    H242099   6.059   1.360   2.388  0.0460 -0.2890  0.3156
 6870TIP3   OH242100   4.367   0.527   4.602  0.5577  0.4754  0.1139
 6870TIP3    H142101   4.410   0.466   4.661  1.3452  0.5813 -0.3357
 6870TIP3    H242102   4.279   0.538   4.639  0.7730 -0.0628  0.8153
 6871TIP3   OH242103   4.943   6.728   2.812  0.4245  0.1432  0.3251
 6871TIP3    H142104   4.919   6.674   2.736 -2.1023 -0.0871  1.1936
 6871TIP3    H242105   5.025   6.690   2.843 -0.1092 -1.7848 -0.4386
 6872TIP3   OH242106   0.355   3.573   3.449  0.6255 -0.1304  0.0037
 6872TIP3    H142107   0.379   3.617   3.368 -2.9195  1.1549 -0.5273
 6872TIP3    H242108   0.333   3.483   3.422  0.7814 -0.0971 -0.2310
 6873TIP3   OH242109   5.470   2.226   5.848  0.9596 -0.5732 -0.2058
 6873TIP3    H142110   5.493   2.313   5.881  1.9447 -0.0448 -2.1292
 6873TIP3    H242111   5.381   2.211   5.880  0.0622  1.9258 -1.2613
 6874TIP3   OH242112   3.307   1.651   0.574 -0.0565  0.3382  0.1313
 6874TIP3    H142113   3.368   1.677   0.505  0.4481 -1.9679 -0.3771
 6874TIP3    H242114   3.228   1.625   0.527  0.1949 -0.9931  0.4040
 6875TIP3   OH242115   3.343   3.991   6.515 -0.1607 -0.7987 -0.1203
 6875TIP3    H142116   3.396   3.935   6.572 -0.0374  0.6252  1.1963
 6875TIP3    H242117   3.401   4.062   6.490 -1.3170  0.6415  1.1194
 6876TIP3   OH242118   3.773   1.979  17.013  0.2974  0.6589  0.1507
 6876TIP3    H142119   3.860   2.012  17.033 -0.5409  3.9932 -1.1125
 6876TIP3    H242120   3.723   1.994  17.094  0.5186  0.0914  0.3992
 6877TIP3   OH242121   1.210   5.693   2.664  0.2785 -0.2838  0.2690
 6877TIP3    H142122   1.306   5.696   2.658  0.3091  2.5965  0.5430
 6877TIP3    H242123   1.182   5.662   2.579  1.4635 -0.2093 -0.1758
 6878TIP3   OH242124   6.686   2.348  14.204  0.2216  0.3029  0.4180
 6878TIP3    H142125   6.738   2.388  14.273 -0.6860  0.8671  0.7995
 6878TIP3    H242126   6.709   2.396  14.124  0.9216 -0.0398  0.4035
 6879TIP3   OH242127   0.865   2.196  12.579 -0.3138  0.2570 -0.2378
 6879TIP3    H142128   0.939   2.250  12.550 -1.0165  1.8796  0.8484
 6879TIP3    H242129   0.809   2.191  12.501 -0.0048  0.6997 -0.4997
 6880TIP3   OH242130   0.727   3.919   4.832 -0.5726  0.5271 -0.2551
 6880TIP3    H142131   0.767   3.842   4.792 -0.2357 -0.8072  2.4633
 6880TIP3    H242132   0.768   3.993   4.786  2.9036 -0.8096  0.3833
 6881TIP3   OH242133   4.363   1.990   3.559 -0.4053 -0.6324  0.0151
 6881TIP3    H142134   4.370   1.904   3.600  1.2231 -0.7600 -0.4653
 6881TIP3    H242135   4.402   2.051   3.622 -0.3314 -0.4446 -0.2089
 6882TIP3   OH242136   0.283   1.837  15.801  0.2851  0.0863 -0.3770
 6882TIP3    H142137   0.312   1.884  15.723  1.8473 -0.1876  0.0003
 6882TIP3    H242138   0.293   1.900  15.872 -1.9917  0.6306 -0.4847
 6883TIP3   OH242139   4.149   0.206   2.554 -0.7365  0.9110  0.3966
 6883TIP3    H142140   4.206   0.216   2.478  0.7587  0.9436  1.4707
 6883TIP3    H242141   4.171   0.281   2.610  1.8862 -1.6252  3.1046
 6884TIP3   OH242142   3.911   6.744  11.860  0.0499  0.5974 -0.5128
 6884TIP3    H142143   3.998   6.764  11.825 -0.7162 -1.0423 -3.8096
 6884TIP3    H242144   3.853   6.755  11.785 -1.8651 -2.8968  0.2460
 6885TIP3   OH242145   2.358   6.180  15.866 -0.2416  0.1844  0.2720
 6885TIP3    H142146   2.366   6.088  15.838 -0.5116 -0.0243  0.8740
 6885TIP3    H242147   2.268   6.189  15.896 -0.1345  0.5722  0.4875
 6886TIP3   OH242148   3.731   1.893   0.739 -0.6071 -0.1338 -0.1689
 6886TIP3    H142149   3.662   1.925   0.682 -0.4696  0.4840  0.0111
 6886TIP3    H242150   3.697   1.810   0.773 -1.9513  0.9047  1.1663
 6887TIP3   OH242151   6.146   0.331  15.598 -0.3582  0.5476  0.6818
 6887TIP3    H142152   6.222   0.384  15.622 -0.4722  0.8108  0.4599
 6887TIP3    H242153   6.160   0.309  15.506 -0.3660  0.2835  0.7417
 6888TIP3   OH242154   0.622   1.322  16.961  0.7763  0.4147 -0.6189
 6888TIP3    H142155   0.693   1.358  16.908  1.6486 -1.7521 -1.0532
 6888TIP3    H242156   0.570   1.271  16.900  0.5979 -0.4470  0.2266
 6889TIP3   OH242157   0.106   1.176  13.612  0.1169  0.2822 -0.3237
 6889TIP3    H142158   0.150   1.259  13.630 -0.1753  0.4346 -0.3049
 6889TIP3    H242159   0.138   1.116  13.679 -0.5600  0.6980  0.3878
 6890TIP3   OH242160   6.577   2.029  14.784 -0.0776  0.0858 -0.1377
 6890TIP3    H142161   6.669   2.032  14.813 -0.5162 -0.7249  1.4914
 6890TIP3    H242162   6.552   2.121  14.774  0.2799  0.4429  1.6999
 6891TIP3   OH242163   0.048   6.246  13.712 -0.5390  0.2146 -0.7046
 6891TIP3    H142164   0.098   6.273  13.635  1.4917  0.9752  0.7972
 6891TIP3    H242165   0.060   6.151  13.717  0.7039  0.3691 -0.4420
 6892TIP3   OH242166   0.978   3.032   4.049 -0.2482 -0.2782 -0.2547
 6892TIP3    H142167   1.057   2.978   4.047 -0.6290 -0.8705  0.3776
 6892TIP3    H242168   0.985   3.088   3.971  0.3588 -0.9386 -0.6838
 6893TIP3   OH242169   2.135   0.923   4.654  0.1816  0.0423 -0.1462
 6893TIP3    H142170   2.216   0.955   4.693 -0.3579 -0.4746  1.4465
 6893TIP3    H242171   2.070   0.990   4.675 -0.1409 -0.2933 -0.0594
 6894TIP3   OH242172   3.843   0.767  14.688 -0.0292 -0.1450  0.2519
 6894TIP3    H142173   3.914   0.768  14.624  1.2120  0.4975  1.5709
 6894TIP3    H242174   3.792   0.846  14.669  1.3062  0.9556  1.0407
 6895TIP3   OH242175   4.765   6.204   5.513 -0.1553  0.7024 -0.0807
 6895TIP3    H142176   4.856   6.211   5.485 -0.1157 -0.2654 -0.2278
 6895TIP3    H242177   4.721   6.278   5.472  0.3810  0.6570 -0.7493
 6896TIP3   OH242178   0.205   5.117  15.833 -0.4863 -0.1032  0.7008
 6896TIP3    H142179   0.264   5.069  15.775  1.2700 -0.0457  2.3512
 6896TIP3    H242180   0.198   5.204  15.792 -1.0246 -0.6981 -0.5325
 6897TIP3   OH242181   1.847   4.593   3.070  0.4082 -0.1800 -0.3316
 6897TIP3    H142182   1.934   4.606   3.107  0.4004 -0.3883 -0.2416
 6897TIP3    H242183   1.862   4.555   2.984  0.3472 -2.3578  0.5699
 6898TIP3   OH242184   6.392   6.419   1.701  0.0018  0.3643 -0.5335
 6898TIP3    H142185   6.484   6.397   1.716 -0.2271  0.9703  2.3243
 6898TIP3    H242186   6.344   6.366   1.765 -1.3720  2.0701 -0.0962
 6899TIP3   OH242187   3.597   0.724  10.778  0.6485  0.0241 -0.0765
 6899TIP3    H142188   3.661   0.668  10.733  1.3281  0.2100  0.6447
 6899TIP3    H242189   3.514   0.677  10.770  0.4195  0.7017 -2.7775
 6900TIP3   OH242190   4.975   3.437  14.691  0.3574  0.2150  0.2606
 6900TIP3    H142191   4.999   3.377  14.762 -0.0273  0.0665  0.2699
 6900TIP3    H242192   4.973   3.523  14.732 -0.3386  0.0679  0.5449
 6901TIP3   OH242193   5.718   6.218  17.046 -0.3550 -0.8886  0.1900
 6901TIP3    H142194   5.630   6.181  17.045 -0.8907  0.2984 -0.8464
 6901TIP3    H242195   5.758   6.186  17.126 -1.5869 -1.7931  0.4637
 6902TIP3   OH242196   5.952   0.079   4.953 -0.6638  0.1118  0.1767
 6902TIP3    H142197   5.926   0.064   5.044 -1.7688  0.6025 -0.0437
 6902TIP3    H242198   5.869   0.085   4.905 -0.1392  1.4799 -0.6024
 6903TIP3   OH242199   4.378   2.421  15.728 -0.3909 -0.0250  0.5763
 6903TIP3    H142200   4.397   2.331  15.752  0.5493 -0.4589 -1.5832
 6903TIP3    H242201   4.454   2.471  15.759  0.5560 -0.4923 -0.8901
 6904TIP3   OH242202   3.281   0.710  16.181  0.2861  0.9755 -0.1474
 6904TIP3    H142203   3.334   0.766  16.238  0.9678 -0.2826  0.4941
 6904TIP3    H242204   3.343   0.678  16.115  0.4118 -0.6261  0.6961
 6905TIP3   OH242205   6.488   3.909   3.971 -0.2648 -0.2012 -0.1029
 6905TIP3    H142206   6.431   3.909   4.048 -1.2811 -2.1033 -0.7744
 6905TIP3    H242207   6.431   3.937   3.899  0.8589  2.2826 -0.1281
 6906TIP3   OH242208   3.785   2.634   0.287  0.4552 -0.1783 -0.2652
 6906TIP3    H142209   3.741   2.717   0.306 -1.0732 -0.8050 -0.9266
 6906TIP3    H242210   3.802   2.636   0.193 -1.2991 -1.3453 -0.6675
 6907TIP3   OH242211   0.125   0.578  16.662 -0.0152  0.0492  0.2842
 6907TIP3    H142212   0.204   0.621  16.693  0.6548 -0.3860 -0.7522
 6907TIP3    H242213   0.081   0.644  16.609  0.2108 -0.0331 -0.0132
 6908TIP3   OH242214   2.670   4.146  13.884  0.0935  0.3497 -0.0357
 6908TIP3    H142215   2.721   4.192  13.951 -1.6026  1.7008  0.4042
 6908TIP3    H242216   2.723   4.154  13.805  2.5160 -1.9608  1.2051
 6909TIP3   OH242217   5.163   5.316   4.651 -0.0483  0.2235  0.0264
 6909TIP3    H142218   5.220   5.391   4.667 -0.5507  0.5022  0.5300
 6909TIP3    H242219   5.100   5.347   4.585  0.2100 -0.0005 -0.3319
 6910TIP3   OH242220   5.833   1.167  17.057 -0.0344 -0.3899 -0.3420
 6910TIP3    H142221   5.873   1.091  17.100 -0.2276  0.3242  1.1567
 6910TIP3    H242222   5.739   1.148  17.059  0.0870 -2.1100 -3.9441
 6911TIP3   OH242223   2.506   1.193   0.033 -0.2933  0.4585 -0.8953
 6911TIP3    H142224   2.513   1.173  -0.060  0.6052 -1.3103 -0.4797
 6911TIP3    H242225   2.595   1.216   0.059 -0.3461 -0.0531 -0.2570
 6912TIP3   OH242226   6.040   4.983   3.231 -0.9216 -0.3061  0.2071
 6912TIP3    H142227   6.008   5.062   3.276 -1.0840 -0.0515 -0.3477
 6912TIP3    H242228   6.008   4.910   3.285 -0.2683  0.0116  1.0530
 6913TIP3   OH242229   6.284   4.210  15.698  0.3866 -0.0223  0.1828
 6913TIP3    H142230   6.286   4.288  15.642  1.5753 -0.1294  0.0536
 6913TIP3    H242231   6.265   4.244  15.785  2.6259  0.6759  0.4711
 6914TIP3   OH242232   0.883   5.873  15.058 -0.3961 -0.1238  0.3115
 6914TIP3    H142233   0.826   5.827  15.120  1.7018 -1.8857  1.0474
 6914TIP3    H242234   0.902   5.808  14.990  1.9197 -0.1459  0.8970
 6915TIP3   OH242235   1.406   4.151  13.327 -0.0586  0.6371 -0.3138
 6915TIP3    H142236   1.469   4.190  13.387  0.1447 -0.2189  0.0516
 6915TIP3    H242237   1.428   4.188  13.241  1.1744  0.0915 -0.2533
 6916TIP3   OH242238   0.143   5.611  12.008  0.3356 -0.0258 -0.0993
 6916TIP3    H142239   0.227   5.571  11.983  0.6990 -0.0017  1.0319
 6916TIP3    H242240   0.121   5.569  12.091 -1.1642 -0.5789 -0.7512
 6917TIP3   OH242241   4.769   6.051  13.417  0.3708  0.1915  0.3150
 6917TIP3    H142242   4.780   5.957  13.430 -1.1248 -0.1921 -0.9354
 6917TIP3    H242243   4.683   6.060  13.377  0.1080  2.1800  1.1840
 6918TIP3   OH242244   3.999   2.439   0.898 -0.3584 -0.3413  0.0233
 6918TIP3    H142245   4.006   2.535   0.898  2.1203 -0.3872 -2.3895
 6918TIP3    H242246   3.979   2.417   0.808 -0.9486 -2.1218  0.5658
 6919TIP3   OH242247   1.692   2.371  16.332  0.3946 -0.7721  0.0185
 6919TIP3    H142248   1.635   2.446  16.317  0.7914 -0.4457  0.1299
 6919TIP3    H242249   1.637   2.295  16.312 -0.2240 -0.4811  0.5981
 6920TIP3   OH242250   3.966   2.831   4.551  0.1246  0.4500 -0.2106
 6920TIP3    H142251   3.972   2.882   4.631 -0.5926  1.5902 -0.8498
 6920TIP3    H242252   3.882   2.785   4.557 -0.7573  1.8837 -1.0333
 6921TIP3   OH242253   6.573   1.630  15.090  0.2116  0.2641  0.0263
 6921TIP3    H142254   6.505   1.588  15.144  0.7077  0.6065  0.9460
 6921TIP3    H242255   6.526   1.666  15.015 -0.4797 -0.3605  0.1463
 6922TIP3   OH242256   2.550   5.661   5.762  0.3238 -0.4355 -0.0679
 6922TIP3    H142257   2.463   5.691   5.789 -0.2435 -0.7683 -1.4278
 6922TIP3    H242258   2.533   5.592   5.698  1.5878 -0.2117 -0.6755
 6923TIP3   OH242259   4.822   5.269  11.364  0.3201  0.1142 -0.7294
 6923TIP3    H142260   4.789   5.179  11.366 -1.9480  0.8132 -2.5421
 6923TIP3    H242261   4.863   5.278  11.278  2.0885  0.3793  0.0897
 6924TIP3   OH242262   3.641   5.356   1.574  0.5617 -0.5939 -0.7029
 6924TIP3    H142263   3.703   5.429   1.570  2.4440 -2.0957 -0.8679
 6924TIP3    H242264   3.568   5.383   1.518  0.3152  1.8713  0.6993
 6925TIP3   OH242265   3.161   5.579   5.864 -0.4421 -0.4971  0.4020
 6925TIP3    H142266   3.106   5.619   5.931 -0.5779 -0.9393  0.5584
 6925TIP3    H242267   3.168   5.645   5.795  0.3737  0.2939  1.2078
 6926TIP3   OH242268   3.287   2.059   3.271 -0.3690  0.1005  0.2535
 6926TIP3    H142269   3.241   2.005   3.207 -0.4097  0.0600  0.3175
 6926TIP3    H242270   3.222   2.124   3.299 -0.0919  0.6810 -0.4127
 6927TIP3   OH242271   2.120   1.646  11.858 -0.6710  0.0354 -0.3851
 6927TIP3    H142272   2.074   1.586  11.917 -1.3445  0.1675 -0.7698
 6927TIP3    H242273   2.051   1.697  11.816 -0.1808  0.1848 -1.0349
 6928TIP3   OH242274   5.903   2.696   1.862  0.2175  0.1111  0.2894
 6928TIP3    H142275   5.890   2.638   1.787 -0.5583  0.2735  0.2908
 6928TIP3    H242276   5.993   2.678   1.890  1.1723  1.3547 -1.7579
 6929TIP3   OH242277   5.944   1.167   6.569  0.1051 -0.4424  0.7382
 6929TIP3    H142278   5.943   1.263   6.561 -0.6346 -0.4688  0.3980
 6929TIP3    H242279   5.860   1.146   6.610 -1.3154 -1.1590 -2.2495
 6930TIP3   OH242280   1.772   5.327   1.921  0.1212  0.2922  0.6470
 6930TIP3    H142281   1.746   5.280   1.842 -0.9802 -1.4568  1.9844
 6930TIP3    H242282   1.690   5.349   1.965  0.7168  1.1055  1.3910
 6931TIP3   OH242283   2.156   4.291  16.373 -0.4214  0.0806  0.1467
 6931TIP3    H142284   2.070   4.258  16.346 -0.0569 -1.0987  0.3662
 6931TIP3    H242285   2.142   4.321  16.463 -0.1029 -2.4648  1.1590
 6932TIP3   OH242286   4.103   1.756   3.617  0.0183  0.2536 -0.5495
 6932TIP3    H142287   4.008   1.760   3.624  0.0645  0.5688 -0.0563
 6932TIP3    H242288   4.126   1.668   3.646  0.0375  0.8586  1.4477
 6933TIP3   OH242289   6.086   6.149  16.393 -0.3425 -0.0347  0.2842
 6933TIP3    H142290   6.021   6.206  16.435 -2.1102 -0.8607 -1.1944
 6933TIP3    H242291   6.039   6.067  16.378  0.7468 -0.3499 -1.6614
 6934TIP3   OH242292   6.014   6.159   4.896 -0.1493 -0.0335 -0.5070
 6934TIP3    H142293   6.102   6.190   4.874  0.7391  0.2094  2.8698
 6934TIP3    H242294   6.028   6.074   4.938 -1.6412 -0.3908 -0.6677
 6935TIP3   OH242295   4.497   0.783   0.386  0.7136 -0.1162  0.2514
 6935TIP3    H142296   4.481   0.856   0.326  0.6327  0.2850  0.7492
 6935TIP3    H242297   4.528   0.712   0.330 -0.6056 -0.1758 -0.4485
 6936TIP3   OH242298   2.862   1.694   1.275 -0.0845  0.0691  0.3769
 6936TIP3    H142299   2.862   1.767   1.213  0.6261  0.9345  1.3678
 6936TIP3    H242300   2.953   1.667   1.280 -0.3632 -0.9929 -0.0777
 6937TIP3   OH242301   5.952   2.120   4.239 -0.2665 -0.0664 -0.1581
 6937TIP3    H142302   5.990   2.202   4.208 -0.4392 -0.0282 -0.2752
 6937TIP3    H242303   5.896   2.091   4.166  1.0867 -1.1575 -0.8006
 6938TIP3   OH242304   3.019   3.032  16.594  0.4661 -0.4893 -0.4309
 6938TIP3    H142305   2.999   3.052  16.502  0.0731 -0.3613 -0.3206
 6938TIP3    H242306   2.977   3.103  16.643 -0.2665 -1.1389 -0.0809
 6939TIP3   OH242307   5.026   3.149  16.312 -0.1108  0.1096  0.0035
 6939TIP3    H142308   4.994   3.224  16.261 -1.4183  0.4646  1.2790
 6939TIP3    H242309   5.040   3.080  16.247 -2.2744  0.3587 -0.8123
 6940TIP3   OH242310   0.094   6.100   1.685 -0.4323  0.3907  0.0147
 6940TIP3    H142311   0.111   6.037   1.615 -0.8985  1.5306 -1.1458
 6940TIP3    H242312   0.179   6.141   1.702  0.1245 -1.2341  1.5288
 6941TIP3   OH242313   6.374   1.746   2.695  0.0432  0.4513 -0.6345
 6941TIP3    H142314   6.395   1.661   2.655 -0.5306  0.5665 -1.1960
 6941TIP3    H242315   6.279   1.744   2.708 -0.4414  2.0687 -3.2655
 6942TIP3   OH242316   3.579   6.574   2.992  0.0346 -0.0405 -0.4694
 6942TIP3    H142317   3.636   6.507   3.029  0.4676 -0.0514 -1.1501
 6942TIP3    H242318   3.551   6.539   2.908  1.1127  1.0670 -1.3127
 6943TIP3   OH242319   3.790   6.452   5.324 -0.8058  0.5372 -0.3780
 6943TIP3    H142320   3.705   6.492   5.341 -2.0174 -1.9413 -0.1337
 6943TIP3    H242321   3.815   6.411   5.407 -0.8736 -1.2898 -1.2105
 6944TIP3   OH242322   5.258   0.323  15.959 -0.2794 -0.0253 -0.2265
 6944TIP3    H142323   5.236   0.279  16.041 -0.6535 -0.3324 -0.4885
 6944TIP3    H242324   5.299   0.255  15.906  0.2926  0.2662 -0.1565
 6945TIP3   OH242325   5.262   1.191   0.261  0.1045 -0.3099 -0.2272
 6945TIP3    H142326   5.188   1.219   0.315  0.2873  1.4293 -0.8211
 6945TIP3    H242327   5.226   1.189   0.172  0.4037 -0.9216 -0.3392
 6946TIP3   OH242328   4.644   6.427  15.620  0.5975  0.2608  0.3594
 6946TIP3    H142329   4.689   6.482  15.683 -0.0435  0.4188  0.6951
 6946TIP3    H242330   4.573   6.481  15.586 -2.4344 -1.3928  3.4398
 6947TIP3   OH242331   0.081   5.856   1.485  0.1233  0.1934  0.7086
 6947TIP3    H142332   0.078   5.776   1.432  2.9406 -0.3488  1.2495
 6947TIP3    H242333   0.040   5.923   1.429  0.5244 -0.9424 -1.0329
 6948TIP3   OH242334   6.765   2.762  14.373 -0.2412 -0.2277  0.3083
 6948TIP3    H142335   6.728   2.810  14.447 -0.6263  0.5222 -0.3662
 6948TIP3    H242336   6.837   2.816  14.342 -1.1244  0.3069 -0.9070
 6949TIP3   OH242337   0.824   4.600  11.910 -0.3075  0.3413 -0.1674
 6949TIP3    H142338   0.761   4.619  11.841 -0.8940  0.6854  0.4512
 6949TIP3    H242339   0.778   4.620  11.991  0.3793 -0.0356  0.3266
 6950TIP3   OH242340   4.639   6.346  15.276  0.4508 -0.1117 -0.2106
 6950TIP3    H142341   4.567   6.324  15.336  1.3116 -0.9291  0.5508
 6950TIP3    H242342   4.596   6.393  15.204 -0.7262  0.1681  0.6336
 6951TIP3   OH242343   2.049   3.077  12.713  0.3025 -0.3111 -0.2624
 6951TIP3    H142344   2.135   3.075  12.670  0.4339 -2.2134 -0.0196
 6951TIP3    H242345   2.062   3.133  12.789  1.4894 -0.9130  0.0167
 6952TIP3   OH242346   6.781   4.303   2.584  0.2832  0.2094 -1.0222
 6952TIP3    H142347   6.831   4.329   2.662  1.0482  0.0418 -1.4398
 6952TIP3    H242348   6.795   4.375   2.522 -2.4091  1.6050 -0.1602
 6953TIP3   OH242349   4.456   5.878   1.181  0.6451  0.2602 -0.2103
 6953TIP3    H142350   4.436   5.971   1.170 -3.9107 -0.5590 -0.9165
 6953TIP3    H242351   4.501   5.854   1.100 -0.5465  1.3869 -1.2641
 6954TIP3   OH242352   3.236   5.100  11.428 -0.0937 -0.2494 -0.1033
 6954TIP3    H142353   3.190   5.183  11.434  1.6818  0.6717  2.1353
 6954TIP3    H242354   3.304   5.114  11.362  0.1775  0.0782  0.2426
 6955TIP3   OH242355   6.669   2.044  10.990  0.1790 -0.7792 -0.2356
 6955TIP3    H142356   6.600   2.030  11.055  1.6959  1.1676  1.9285
 6955TIP3    H242357   6.729   1.970  11.003  1.0669  0.1726  1.5056
 6956TIP3   OH242358   0.473   0.607  12.345 -0.3031 -0.0030 -0.6612
 6956TIP3    H142359   0.433   0.580  12.262  2.3677  1.5488 -2.5902
 6956TIP3    H242360   0.494   0.524  12.388  0.7646 -0.9545 -2.8551
 6957TIP3   OH242361   4.704   4.765  14.470 -0.0658 -0.3629 -0.6290
 6957TIP3    H142362   4.682   4.847  14.425  0.9842 -0.4458 -1.3326
 6957TIP3    H242363   4.626   4.711  14.460 -0.7818  0.5560 -0.1330
 6958TIP3   OH242364   5.838   4.123  12.818  0.3643 -0.7129 -0.4120
 6958TIP3    H142365   5.874   4.190  12.759 -2.0458 -0.1616 -1.3949
 6958TIP3    H242366   5.831   4.045  12.764 -0.1269 -0.7379 -0.3168
 6959TIP3   OH242367   0.509   3.337   2.606 -0.2537  0.0279  0.3399
 6959TIP3    H142368   0.551   3.252   2.597 -1.3327 -0.5399  0.4889
 6959TIP3    H242369   0.474   3.357   2.519  1.3981  1.1181 -0.1304
 6960TIP3   OH242370   6.500   6.730  13.269 -0.2014 -0.2037  0.4491
 6960TIP3    H142371   6.546   6.814  13.280 -1.4703  0.7783 -1.1953
 6960TIP3    H242372   6.533   6.696  13.186 -1.2640 -0.2545  0.0351
 6961TIP3   OH242373   5.338   0.451  13.751  0.2543  0.3387 -0.0029
 6961TIP3    H142374   5.278   0.432  13.679  1.0742  1.8288 -1.1356
 6961TIP3    H242375   5.398   0.377  13.752  0.7169  0.6563 -1.4154
 6962TIP3   OH242376   6.340   4.437   4.698  0.3271  0.3604 -0.3815
 6962TIP3    H142377   6.287   4.438   4.777  1.2943 -3.2447  0.4858
 6962TIP3    H242378   6.394   4.516   4.704 -2.0111  1.9821  0.6993
 6963TIP3   OH242379   4.135   4.788   3.901  0.1417  0.7963  0.3634
 6963TIP3    H142380   4.041   4.776   3.915 -0.4600  2.1881 -2.0415
 6963TIP3    H242381   4.141   4.855   3.834  2.8736  0.1880 -0.1042
 6964TIP3   OH242382   0.090   4.054  11.018  0.3106 -0.4087  0.2475
 6964TIP3    H142383   0.116   4.078  10.929  1.0033  0.1170  0.5830
 6964TIP3    H242384  -0.003   4.031  11.010 -0.2304  1.7528 -0.2291
 6965TIP3   OH242385   6.280   6.087  10.801 -0.7579  0.1435 -0.1327
 6965TIP3    H142386   6.342   6.084  10.728  0.5205 -3.5104  0.8815
 6965TIP3    H242387   6.228   6.007  10.791 -3.1888  1.5066  0.8707
 6966TIP3   OH242388   4.778   0.611  15.096 -0.5674  0.4170 -0.0841
 6966TIP3    H142389   4.797   0.696  15.136  0.1721  0.5135 -0.6121
 6966TIP3    H242390   4.682   0.607  15.091 -0.6925  0.4014  1.6640
 6967TIP3   OH242391   4.712   4.030   3.825 -0.2240  0.3294 -0.0157
 6967TIP3    H142392   4.674   4.115   3.802  0.6678  1.2466  1.7379
 6967TIP3    H242393   4.748   3.998   3.742  0.0408  1.9954 -0.5972
 6968TIP3   OH242394   1.772   5.156  11.602 -0.4904 -0.1679  0.3528
 6968TIP3    H142395   1.831   5.216  11.557 -0.3531 -0.2283  0.4507
 6968TIP3    H242396   1.764   5.081  11.543  2.1465 -1.6643  1.7251
 6969TIP3   OH242397   6.812   6.140   5.947 -0.2692 -0.3882  0.0218
 6969TIP3    H142398   6.897   6.107   5.975 -0.7487 -0.3730  1.6025
 6969TIP3    H242399   6.785   6.199   6.018 -1.1843  0.3349 -0.8971
 6970TIP3   OH242400   6.346   0.358   2.678  0.1088 -0.0514 -0.1270
 6970TIP3    H142401   6.321   0.410   2.754  0.1506 -1.7845  1.1262
 6970TIP3    H242402   6.268   0.359   2.622 -1.0172 -1.2034  1.3569
 6971TIP3   OH242403   5.371   6.742   6.356 -0.6723 -0.6961 -0.2203
 6971TIP3    H142404   5.339   6.753   6.267 -1.6136 -0.8966  0.0885
 6971TIP3    H242405   5.440   6.809   6.365  0.5513 -1.7085 -1.5975
 6972TIP3   OH242406   1.236   3.389   3.906  0.6364 -0.4082  0.1655
 6972TIP3    H142407   1.327   3.383   3.878  0.0134 -1.1794 -1.9267
 6972TIP3    H242408   1.223   3.481   3.929  1.2546  0.3669 -2.2769
 6973TIP3   OH242409   0.340   5.459   0.963  0.4984 -0.4447 -0.0309
 6973TIP3    H142410   0.277   5.389   0.980  0.9210 -1.3626 -1.9684
 6973TIP3    H242411   0.424   5.414   0.956  1.2134  0.6104  1.2081
 6974TIP3   OH242412   3.581   6.196   0.894 -0.5808 -0.2888  0.6100
 6974TIP3    H142413   3.672   6.190   0.864 -0.9482 -0.4835 -0.5450
 6974TIP3    H242414   3.584   6.257   0.968  0.6107 -0.9672  1.1549
 6975TIP3   OH242415   6.374   6.463   6.370 -0.0075 -0.2369 -0.2849
 6975TIP3    H142416   6.297   6.442   6.317 -1.5809  3.5193  0.2261
 6975TIP3    H242417   6.385   6.557   6.361  2.6003 -0.1446  2.2682
 6976TIP3   OH242418   3.243   2.400  11.753 -0.4239 -0.0787  0.8548
 6976TIP3    H142419   3.322   2.434  11.711 -1.1492 -1.0676 -1.5143
 6976TIP3    H242420   3.273   2.365  11.837  1.4364  0.5710  0.5124
 6977TIP3   OH242421   5.281   5.656   5.263 -0.2639 -0.0541 -0.0422
 6977TIP3    H142422   5.374   5.635   5.265  0.0108  1.0047 -1.1635
 6977TIP3    H242423   5.273   5.738   5.312 -1.1232 -1.7394  2.9544
 6978TIP3   OH242424   6.510   0.684  15.679  0.3476 -0.4556  0.1882
 6978TIP3    H142425   6.514   0.678  15.774 -1.7159  1.8158  0.5231
 6978TIP3    H242426   6.550   0.769  15.658 -0.8194 -0.0874 -0.7296
 6979TIP3   OH242427   1.767   2.943   5.737 -0.0895 -0.0490 -0.2507
 6979TIP3    H142428   1.706   2.874   5.712  1.4221 -1.4231 -0.3538
 6979TIP3    H242429   1.824   2.952   5.661 -0.3402  1.4394 -0.2841
 6980TIP3   OH242430   4.504   4.913   6.557  0.3924 -0.5056  0.0969
 6980TIP3    H142431   4.537   4.838   6.507  2.1537  0.0212  0.3894
 6980TIP3    H242432   4.580   4.944   6.606 -0.4626  1.0766  0.4853
 6981TIP3   OH242433   1.928   4.398   0.502  0.1199 -0.4680 -0.2078
 6981TIP3    H142434   1.955   4.474   0.450 -0.7887 -0.2513 -0.3760
 6981TIP3    H242435   1.996   4.332   0.485  1.4538  0.6124  0.7100
 6982TIP3   OH242436   6.181   1.259  16.632 -0.2807 -0.5413  0.0707
 6982TIP3    H142437   6.204   1.349  16.610 -2.2213 -0.1902 -0.7301
 6982TIP3    H242438   6.264   1.211  16.627  0.8284  1.2083  0.7024
 6983TIP3   OH242439   4.173   5.480  12.427 -0.3739 -0.2099 -0.6421
 6983TIP3    H142440   4.204   5.436  12.506  1.8501  2.7892  0.3424
 6983TIP3    H242441   4.241   5.464  12.362 -0.3881  0.3709 -0.8008
 6984TIP3   OH242442   5.177   2.009  16.516 -0.0885 -0.2575 -0.0219
 6984TIP3    H142443   5.235   1.967  16.452 -0.3313 -0.2759 -0.2352
 6984TIP3    H242444   5.230   2.079  16.555 -0.4624  0.9558 -1.5416
 6985TIP3   OH242445   2.157   0.638   4.922 -0.4384  0.7080  0.0066
 6985TIP3    H142446   2.231   0.686   4.884 -0.0959  1.5710  1.6555
 6985TIP3    H242447   2.197   0.562   4.964 -0.9210 -0.8090 -2.1063
 6986TIP3   OH242448   2.864   2.600   4.664  0.0656 -0.0433 -0.1368
 6986TIP3    H142449   2.793   2.540   4.645  1.0660 -1.6088  0.8190
 6986TIP3    H242450   2.877   2.592   4.759  0.0415  1.9211  0.0753
 6987TIP3   OH242451   2.036   5.984   0.542  0.3597  0.1418 -0.3821
 6987TIP3    H142452   2.050   5.930   0.620  0.2173  1.0055  0.2558
 6987TIP3    H242453   2.025   6.073   0.576  1.7788  0.7746 -1.4858
 6988TIP3   OH242454   3.633   0.276  15.745 -0.7373  0.3830 -0.4606
 6988TIP3    H142455   3.660   0.338  15.677 -1.4237  0.9296 -0.2461
 6988TIP3    H242456   3.675   0.194  15.721  1.5703  1.2959  0.1352
 6989TIP3   OH242457   3.306   4.392  17.027  0.2352  0.5907  0.7183
 6989TIP3    H142458   3.272   4.304  17.015  1.5715 -0.0145  1.1461
 6989TIP3    H242459   3.255   4.428  17.100 -2.2901  1.2906 -1.2539
 6990TIP3   OH242460   0.832   5.892  16.190  0.1049 -0.1447  0.5104
 6990TIP3    H142461   0.752   5.841  16.197  0.1049 -0.1821  0.2325
 6990TIP3    H242462   0.828   5.952  16.264  0.7788 -1.4782  1.6642
 6991TIP3   OH242463   2.534   3.466   2.485  0.1258  0.3497  0.3503
 6991TIP3    H142464   2.461   3.416   2.519  1.7475 -0.5480  2.7955
 6991TIP3    H242465   2.526   3.552   2.526  0.4650  0.2133  0.7152
 6992TIP3   OH242466   0.487   0.924   3.560  0.1542  0.1442 -0.4892
 6992TIP3    H142467   0.469   0.962   3.474 -1.0769 -0.4914 -0.5326
 6992TIP3    H242468   0.579   0.945   3.577 -0.1882  2.2860 -0.9370
 6993TIP3   OH242469   4.060   2.040   4.149  0.3465  0.7486 -0.0384
 6993TIP3    H142470   4.092   1.956   4.117 -0.8385 -0.6272  2.1431
 6993TIP3    H242471   4.036   2.089   4.070 -1.3308 -1.9420 -1.3217
 6994TIP3   OH242472   4.898   2.738   3.541  0.1961 -0.1529 -0.0638
 6994TIP3    H142473   4.936   2.658   3.505  0.4870  0.1193 -0.3732
 6994TIP3    H242474   4.866   2.712   3.628 -1.8649 -1.1803 -1.0565
 6995TIP3   OH242475   3.787   2.475  14.464  0.2917  0.2807 -1.0620
 6995TIP3    H142476   3.807   2.388  14.429  0.2640 -0.4115  0.5700
 6995TIP3    H242477   3.824   2.475  14.552 -0.8843  1.4546 -0.5338
 6996TIP3   OH242478   3.822   5.895  13.728 -0.4838  0.4189  0.2434
 6996TIP3    H142479   3.900   5.949  13.744 -0.1846  0.1165 -0.1885
 6996TIP3    H242480   3.851   5.805  13.745 -0.7777  0.3176  0.2186
 6997TIP3   OH242481   1.261   4.285   5.904 -0.2309  0.2092 -0.2221
 6997TIP3    H142482   1.343   4.260   5.947  0.1771  2.0513  0.1336
 6997TIP3    H242483   1.243   4.213   5.844  1.1083 -0.7060  0.4169
 6998TIP3   OH242484   0.818   2.768   1.554  0.2056 -0.6149 -0.3097
 6998TIP3    H142485   0.794   2.765   1.461 -1.4601  0.0733  0.0638
 6998TIP3    H242486   0.798   2.680   1.586 -0.2501 -0.5401 -0.3775
 6999TIP3   OH242487   0.622   1.397   3.833 -0.5123  0.2377  0.1271
 6999TIP3    H142488   0.651   1.312   3.802 -1.6383  0.1203 -0.6652
 6999TIP3    H242489   0.604   1.385   3.926  3.6383  0.7774  1.1973
 7000TIP3   OH242490   0.663   2.245   5.475 -0.2584  0.1361  0.2345
 7000TIP3    H142491   0.576   2.285   5.480 -1.0692 -1.2461 -1.4140
 7000TIP3    H242492   0.679   2.211   5.563 -0.3158  2.3999  1.1900
 7001TIP3   OH242493   1.096   1.995  13.735  0.0479 -0.2385 -0.1021
 7001TIP3    H142494   1.188   2.018  13.736  0.0460 -0.2331  1.0418
 7001TIP3    H242495   1.095   1.899  13.726  0.2124 -0.3736  1.1477
 7002TIP3   OH242496   5.740   0.436   2.354 -0.4823 -0.3457  0.4997
 7002TIP3    H142497   5.784   0.499   2.297 -0.5476 -1.6223 -1.0145
 7002TIP3    H242498   5.676   0.488   2.402  0.2116  0.9196  0.1087
 7003TIP3   OH242499   1.546   2.407  15.125  0.1516  0.5150  0.2083
 7003TIP3    H142500   1.593   2.369  15.051 -0.4710 -2.3145  1.1501
 7003TIP3    H242501   1.495   2.478  15.087 -0.2031 -0.9004 -2.1152
 7004TIP3   OH242502   6.687   3.113   4.577 -0.0490 -0.2548  0.5995
 7004TIP3    H142503   6.602   3.134   4.541 -0.1492  0.9788  1.4801
 7004TIP3    H242504   6.740   3.192   4.564  1.3305 -1.3493 -0.8982
 7005TIP3   OH242505   3.934   1.956  12.046 -0.4697  0.6788 -0.1189
 7005TIP3    H142506   3.871   2.027  12.035 -1.4772 -0.2800 -0.6540
 7005TIP3    H242507   3.881   1.879  12.067  0.5641 -0.0310 -0.0341
 7006TIP3   OH242508   3.952   4.297  13.713  0.9023 -0.3646  0.0947
 7006TIP3    H142509   3.956   4.205  13.687 -0.0540 -1.1128  2.3404
 7006TIP3    H242510   3.898   4.338  13.646 -3.6723 -2.7112  1.8758
 7007TIP3   OH242511   1.582   0.610  16.376  0.0286  0.4014 -0.5202
 7007TIP3    H142512   1.657   0.636  16.323 -0.5374 -0.4804 -1.7982
 7007TIP3    H242513   1.570   0.517  16.356 -0.8796  0.3203  0.3289
 7008TIP3   OH242514   6.656   0.419  10.911  0.3579  0.2414 -0.0498
 7008TIP3    H142515   6.603   0.439  10.987  0.9310  0.1180  0.3911
 7008TIP3    H242516   6.593   0.408  10.839 -0.1649  0.5748  0.3562
 7009TIP3   OH242517   1.867   2.834  12.220  0.0539 -0.2947 -0.2092
 7009TIP3    H142518   1.940   2.789  12.177 -0.4611 -1.7825  0.3879
 7009TIP3    H242519   1.789   2.790  12.185 -0.5866  1.2944 -0.8805
 7010TIP3   OH242520   0.828   4.413  14.125 -0.6535  0.2009 -0.2538
 7010TIP3    H142521   0.797   4.435  14.213 -2.4062  0.6392 -0.9403
 7010TIP3    H242522   0.859   4.497  14.089 -1.3715  0.3260 -0.5914
 7011TIP3   OH242523   1.405   0.291   0.926 -0.7097 -0.3712 -0.4279
 7011TIP3    H142524   1.320   0.332   0.917 -0.7470 -0.1858  0.6996
 7011TIP3    H242525   1.393   0.203   0.890 -2.0551 -1.1995  1.8492
 7012TIP3   OH242526   2.150   6.261   2.834 -1.1351  0.0801  0.0349
 7012TIP3    H142527   2.199   6.309   2.767 -0.7488  1.0006  0.9520
 7012TIP3    H242528   2.068   6.310   2.844 -1.1191  0.0471  0.3465
 7013TIP3   OH242529   4.844   3.782  15.324 -0.4186 -0.3780  0.4037
 7013TIP3    H142530   4.767   3.739  15.286 -0.5526 -0.4395  0.7429
 7013TIP3    H242531   4.817   3.806  15.412 -0.5258  0.8995  0.0344
 7014TIP3   OH242532   2.576   1.051  16.116 -0.6644  0.6387 -0.0237
 7014TIP3    H142533   2.631   0.977  16.089 -0.9938  0.2199  0.4501
 7014TIP3    H242534   2.613   1.126  16.069 -0.0725  0.2495 -0.1912
 7015TIP3   OH242535   6.138   6.426  13.725 -0.0919  0.6358  0.1130
 7015TIP3    H142536   6.112   6.458  13.639  0.5747 -1.4252 -0.9093
 7015TIP3    H242537   6.218   6.375  13.709 -0.8056 -1.0809  1.6866
 7016TIP3   OH242538   2.463   4.900  14.640 -0.3103  0.7627  0.2215
 7016TIP3    H142539   2.518   4.823  14.626  0.1310  0.6235  2.3676
 7016TIP3    H242540   2.391   4.890  14.577  0.9905 -0.1312 -1.1899
 7017TIP3   OH242541   6.639   0.465   6.069  0.1137 -0.2882 -0.5992
 7017TIP3    H142542   6.693   0.389   6.049  1.7606  0.4223  0.8063
 7017TIP3    H242543   6.702   0.532   6.097 -1.3575  1.2630 -0.8331
 7018TIP3   OH242544   1.233   0.472   1.806 -0.0362  0.0325  0.2215
 7018TIP3    H142545   1.227   0.565   1.785 -0.9347 -0.3898 -1.6429
 7018TIP3    H242546   1.160   0.455   1.865  0.1015  0.4950  0.5247
 7019TIP3   OH242547   5.693   2.114   6.588  0.2212  0.3505 -0.4225
 7019TIP3    H142548   5.675   2.207   6.603  0.4453  0.3766 -0.3126
 7019TIP3    H242549   5.628   2.088   6.522 -1.5317 -0.0455  1.3815
 7020TIP3   OH242550   3.832   5.123   1.567 -0.1659 -0.0841 -0.4133
 7020TIP3    H142551   3.758   5.178   1.540  0.7310  1.4260  0.0365
 7020TIP3    H242552   3.867   5.089   1.485 -0.2659  0.6930 -0.7957
 7021TIP3   OH242553   4.002   2.307  12.509 -0.4237  0.2155  0.2404
 7021TIP3    H142554   3.980   2.397  12.534  0.2306  0.3903  0.2231
 7021TIP3    H242555   3.920   2.269  12.480 -0.5302  1.1247 -0.7116
 7022TIP3   OH242556   6.811   0.765  15.144  0.0901 -0.0111 -0.5673
 7022TIP3    H142557   6.899   0.760  15.183  1.0168  1.1585 -2.3507
 7022TIP3    H242558   6.793   0.676  15.113 -0.3412 -0.7778  1.7139
 7023TIP3   OH242559   2.526   2.928  14.320 -0.6292  0.9205  0.8011
 7023TIP3    H142560   2.557   3.005  14.272 -2.0277  0.9009 -0.2168
 7023TIP3    H242561   2.506   2.961  14.408  1.5132  1.0604  1.2883
 7024TIP3   OH242562   1.851   2.060  11.573 -0.2331 -0.1423  0.4271
 7024TIP3    H142563   1.812   2.119  11.508  0.1680 -0.8883 -0.5176
 7024TIP3    H242564   1.785   2.055  11.643 -1.8677 -1.3206 -1.0998
 7025TIP3   OH242565   4.518   5.752   3.929  0.4330  0.5332  1.0886
 7025TIP3    H142566   4.465   5.832   3.936 -0.3390  0.0207  1.2797
 7025TIP3    H242567   4.475   5.701   3.860  1.5827  0.7620  0.1681
 7026TIP3   OH242568   6.651   0.128   0.232  0.3567 -0.3886  0.5714
 7026TIP3    H142569   6.688   0.079   0.305  0.1406 -0.3646  0.6970
 7026TIP3    H242570   6.707   0.106   0.158 -0.1138 -1.3487  0.4739
 7027TIP3   OH242571   2.402   5.090   0.383  0.1089 -0.0863  0.1562
 7027TIP3    H142572   2.454   5.135   0.316 -0.7946  0.6597 -0.0698
 7027TIP3    H242573   2.426   5.134   0.465  0.8678 -0.6898  0.2721
 7028TIP3   OH242574   0.262   0.523  14.271  0.6430  0.5993 -0.4444
 7028TIP3    H142575   0.211   0.596  14.307  2.5420  0.9437  1.7560
 7028TIP3    H242576   0.250   0.530  14.177 -1.6390  1.9079 -0.1421
 7029TIP3   OH242577   1.081   6.046  10.451  0.2090  0.1152 -0.1824
 7029TIP3    H142578   1.005   6.052  10.510 -0.8038  1.8951 -1.5322
 7029TIP3    H242579   1.157   6.054  10.509 -0.6758 -0.1156  1.0583
 7030TIP3   OH242580   4.997   0.788  13.961 -0.1661  0.2825 -0.3487
 7030TIP3    H142581   5.059   0.836  14.016 -0.7092  0.5703  0.0213
 7030TIP3    H242582   5.047   0.712  13.931 -0.1524 -0.4714  1.4246
 7031TIP3   OH242583   3.544   0.234   4.608  0.2369 -0.1918  0.0311
 7031TIP3    H142584   3.590   0.165   4.560 -1.5934 -0.9428 -0.7085
 7031TIP3    H242585   3.460   0.244   4.563  0.2273  2.1950  0.4127
 7032TIP3   OH242586   4.734   4.567   6.891 -0.4058 -0.1721 -0.4644
 7032TIP3    H142587   4.709   4.491   6.944  0.9454 -0.7438 -0.6140
 7032TIP3    H242588   4.802   4.611   6.943  1.2955 -1.0125 -1.8741
 7033TIP3   OH242589   2.820   1.859   4.221 -0.1520  0.1328 -0.0438
 7033TIP3    H142590   2.874   1.783   4.197  1.4128  1.3764 -0.6014
 7033TIP3    H242591   2.737   1.845   4.173  0.3690 -0.8659 -0.6978
 7034TIP3   OH242592   3.736   1.983   3.589 -0.1188 -0.4620  0.1596
 7034TIP3    H142593   3.710   1.899   3.551  1.3698 -0.3094 -1.2860
 7034TIP3    H242594   3.675   2.046   3.551 -0.7469 -0.7660  0.6446
 7035TIP3   OH242595   0.235   5.923   5.189  0.0174 -0.6596 -0.0268
 7035TIP3    H142596   0.180   5.999   5.172  1.1324  0.0964 -0.3952
 7035TIP3    H242597   0.266   5.897   5.102 -0.2066 -1.4192  0.1196
 7036TIP3   OH242598   2.168   4.354  15.392 -0.1192  0.3292  0.1076
 7036TIP3    H142599   2.256   4.328  15.418 -0.4760 -0.5965  0.4419
 7036TIP3    H242600   2.113   4.329  15.467 -0.6749  0.8232 -0.1299
 7037TIP3   OH242601   6.101   4.074  12.009 -0.6563  0.0066  0.4447
 7037TIP3    H142602   6.144   4.159  12.002 -1.9628  0.8815  2.1183
 7037TIP3    H242603   6.090   4.061  12.103  1.4874 -3.1153  0.4065
 7038TIP3   OH242604   3.573   2.628  17.082 -1.0923  0.8303  0.3898
 7038TIP3    H142605   3.617   2.665  17.006 -0.4802  0.3004  0.4797
 7038TIP3    H242606   3.480   2.636  17.062 -0.9652  2.0683  0.2512
 7039TIP3   OH242607   1.247   4.273  10.808 -0.1385  0.4774 -0.3241
 7039TIP3    H142608   1.276   4.182  10.814 -1.1445  0.2334  1.9562
 7039TIP3    H242609   1.206   4.279  10.722  0.5639 -1.0162 -0.8086
 7040TIP3   OH242610   4.842   3.909  15.579  0.2311 -0.2384  0.4562
 7040TIP3    H142611   4.795   3.891  15.661  1.8669  0.1042  1.5248
 7040TIP3    H242612   4.826   4.002  15.561  0.0013 -0.2742  0.4789
 7041TIP3   OH242613   0.985   4.067   4.959 -0.6348 -0.1439 -0.2590
 7041TIP3    H142614   1.016   4.055   4.869 -2.3350 -2.5075 -0.6264
 7041TIP3    H242615   1.055   4.030   5.013 -0.8699 -1.4955 -0.8284
 7042TIP3   OH242616   0.695   6.429   2.219 -0.3214  0.5944 -0.1370
 7042TIP3    H142617   0.735   6.463   2.138  1.2366  0.2622  0.4566
 7042TIP3    H242618   0.609   6.399   2.192 -0.4915  2.0320 -1.3394
 7043TIP3   OH242619   4.102   2.468   3.459 -0.3107 -0.2151 -0.0308
 7043TIP3    H142620   4.171   2.455   3.393  0.1604 -0.8821  0.5777
 7043TIP3    H242621   4.119   2.400   3.524 -1.1173  0.0804  0.4923
 7044TIP3   OH242622   5.496   5.277   4.601 -0.4898 -0.5188 -0.1953
 7044TIP3    H142623   5.423   5.231   4.643 -0.5276 -0.2372  0.0469
 7044TIP3    H242624   5.466   5.368   4.594  0.3462 -0.1378  1.0688
 7045TIP3   OH242625   4.086   4.024   5.476  0.0950  0.3817  0.5266
 7045TIP3    H142626   4.037   3.947   5.448  0.9428 -0.4099  1.1405
 7045TIP3    H242627   4.040   4.098   5.436  0.4961 -0.5680 -1.8639
 7046TIP3   OH242628   0.006   2.710   5.257  0.1565 -0.3298 -0.0436
 7046TIP3    H142629  -0.080   2.675   5.279 -0.0205  0.4349  0.5132
 7046TIP3    H242630   0.020   2.781   5.319  0.6413  0.3927 -0.9551
 7047TIP3   OH242631   6.318   1.286   4.345  0.0386 -0.1294  0.3507
 7047TIP3    H142632   6.261   1.343   4.397  0.6987  1.1207 -0.2468
 7047TIP3    H242633   6.259   1.226   4.300 -0.6271 -0.3792  1.5197
 7048TIP3   OH242634   6.460   2.171  12.798  0.1061  0.1896 -0.2336
 7048TIP3    H142635   6.398   2.184  12.727 -1.1613  0.0587  0.8060
 7048TIP3    H242636   6.542   2.147  12.755 -0.5198  0.4983 -1.6467
 7049TIP3   OH242637   0.474   5.568  16.518 -0.1445  0.2470  0.3861
 7049TIP3    H142638   0.418   5.590  16.592 -0.7403 -1.6695  0.5633
 7049TIP3    H242639   0.560   5.550  16.556 -0.2859 -0.0937  0.5540
 7050TIP3   OH242640   5.674   5.848   1.696 -0.5064  0.5317 -0.3285
 7050TIP3    H142641   5.643   5.909   1.629  0.4455 -0.7879 -2.0379
 7050TIP3    H242642   5.595   5.805   1.728 -0.9488  0.9934 -0.7871
 7051TIP3   OH242643   0.743   3.675   2.047 -0.5733  0.3616  0.2081
 7051TIP3    H142644   0.689   3.732   1.991  0.9421  1.0441 -0.6242
 7051TIP3    H242645   0.746   3.592   1.999 -1.0869  0.2290  0.3937
 7052TIP3   OH242646   4.232   1.730   2.020 -0.3365 -0.1973 -0.2241
 7052TIP3    H142647   4.246   1.727   1.925 -0.1479  1.9261 -0.2954
 7052TIP3    H242648   4.144   1.766   2.030 -0.7691 -1.3872  0.4181
 7053TIP3   OH242649   6.388   1.084   4.724 -0.2966 -0.3180  0.2308
 7053TIP3    H142650   6.459   1.136   4.761  0.0556  1.5538 -2.7260
 7053TIP3    H242651   6.319   1.148   4.704 -1.4196 -1.5687 -0.1143
 7054TIP3   OH242652   6.788   2.861  16.274  0.0551  0.2548  0.1306
 7054TIP3    H142653   6.717   2.872  16.338 -0.1238  2.7825 -0.3704
 7054TIP3    H242654   6.865   2.897  16.318 -0.2447  2.8598 -1.2408
 7055TIP3   OH242655   1.302   0.087  11.288 -0.5633 -0.1819  0.0856
 7055TIP3    H142656   1.259   0.031  11.223 -1.1612 -0.0641  0.3791
 7055TIP3    H242657   1.242   0.090  11.362 -0.7746  1.2370 -0.1137
 7056TIP3   OH242658   3.096   6.809   1.709 -0.5877  0.2579 -0.5460
 7056TIP3    H142659   3.172   6.795   1.765 -0.6742 -3.1015 -1.0474
 7056TIP3    H242660   3.031   6.849   1.767  0.5481  0.3805  0.7040
 7057TIP3   OH242661   4.593   5.030   4.701 -0.9270  0.1908  0.1345
 7057TIP3    H142662   4.569   5.008   4.791 -0.9748 -1.9048 -0.3195
 7057TIP3    H242663   4.686   5.051   4.706 -0.6679 -0.9648  0.5584
 7058TIP3   OH242664   3.348   2.489   1.165 -0.2012 -0.2243 -0.0722
 7058TIP3    H142665   3.322   2.508   1.075 -2.8389 -0.9658  0.4365
 7058TIP3    H242666   3.266   2.489   1.214  1.3591  2.9729  2.9545
 7059TIP3   OH242667   3.858   4.377   2.960  0.1730  0.2967 -0.4410
 7059TIP3    H142668   3.849   4.306   2.896  0.9666 -1.6499  1.4784
 7059TIP3    H242669   3.768   4.402   2.982 -0.1108  0.1461 -1.3883
 7060TIP3   OH242670   0.915   5.653  11.936 -0.2611  0.0016 -0.3651
 7060TIP3    H142671   0.919   5.748  11.927  0.1400 -0.0171 -0.4008
 7060TIP3    H242672   0.944   5.636  12.026 -1.8882  0.0183  0.1997
 7061TIP3   OH242673   2.415   1.324  12.401  0.1617  0.6180 -0.1489
 7061TIP3    H142674   2.345   1.277  12.354  0.0055  0.2826  0.4113
 7061TIP3    H242675   2.484   1.259  12.413  0.4923  0.8937 -0.5191
 7062TIP3   OH242676   0.629   3.738   3.228 -0.4273  0.6440 -0.1750
 7062TIP3    H142677   0.570   3.666   3.208 -0.9265  1.0388 -0.1500
 7062TIP3    H242678   0.705   3.697   3.268 -0.8376  0.1604  0.1192
 7063TIP3   OH242679   0.848   5.139   1.060  0.4191  0.3905  0.2313
 7063TIP3    H142680   0.879   5.230   1.063  3.4353 -0.5687  1.5020
 7063TIP3    H242681   0.777   5.136   1.124 -0.5329  2.0518 -0.6578
 7064TIP3   OH242682   6.757   4.355  14.274 -0.2935 -0.6213  0.0303
 7064TIP3    H142683   6.796   4.295  14.210  0.2363 -1.5086  1.1396
 7064TIP3    H242684   6.663   4.352  14.255 -0.2188 -1.4208 -0.2569
 7065TIP3   OH242685   2.647   5.594  17.050  0.5513 -0.2643 -0.1444
 7065TIP3    H142686   2.624   5.569  17.139  1.4764 -1.6648 -0.2707
 7065TIP3    H242687   2.626   5.518  16.997  1.6809 -0.1132 -0.8432
 7066TIP3   OH242688   2.643   6.004   1.731  0.3359  0.4419  0.4968
 7066TIP3    H142689   2.684   6.073   1.678  2.5584 -1.4210 -0.3937
 7066TIP3    H242690   2.664   5.923   1.684  1.6109 -1.2528  3.6840
 7067TIP3   OH242691   3.689   2.183  14.082 -0.5403  0.7698  0.3176
 7067TIP3    H142692   3.683   2.089  14.066  1.2722  0.7750 -0.6935
 7067TIP3    H242693   3.660   2.223  14.000  0.2975  1.0341  0.1412
 7068TIP3   OH242694   2.104   5.022   1.064  0.0747 -0.0007  0.6966
 7068TIP3    H142695   2.063   4.938   1.046 -0.1432  0.5684 -1.8960
 7068TIP3    H242696   2.043   5.066   1.123 -1.3814 -0.5081 -0.3564
 7069TIP3   OH242697   5.661   4.634   5.250  0.0889 -0.0633 -0.3761
 7069TIP3    H142698   5.685   4.725   5.236 -1.2629  0.3937  0.0971
 7069TIP3    H242699   5.567   4.631   5.232  0.0555 -1.2954 -0.0812
 7070TIP3   OH242700   5.634   5.845   5.962 -0.0155 -0.1211 -0.2242
 7070TIP3    H142701   5.702   5.912   5.958 -0.3761  0.2819  0.2829
 7070TIP3    H242702   5.679   5.768   5.998  0.5301 -0.3335 -1.3265
 7071TIP3   OH242703   4.021   4.743   5.409 -0.4539  0.2024 -0.0746
 7071TIP3    H142704   4.004   4.797   5.486 -1.7941 -1.9335  1.2525
 7071TIP3    H242705   4.117   4.737   5.404 -0.3072  1.8291  0.3024
 7072TIP3   OH242706   1.382   3.920  15.800 -0.4485 -0.1356 -0.9883
 7072TIP3    H142707   1.385   3.868  15.881 -0.2226  1.3191 -0.0285
 7072TIP3    H242708   1.468   3.910  15.761  0.2554  1.0261  0.1984
 7073TIP3   OH242709   0.483   5.906   6.072  0.0084  0.0987 -0.2383
 7073TIP3    H142710   0.571   5.890   6.039  0.9679  0.1304  2.0713
 7073TIP3    H242711   0.495   5.970   6.142 -1.6729 -0.8388  0.9979
 7074TIP3   OH242712   2.152   3.920  16.256  0.1522  0.6404  0.1279
 7074TIP3    H142713   2.148   3.889  16.347 -1.5508 -1.7475 -0.6846
 7074TIP3    H242714   2.061   3.930  16.230  0.6000  3.4213 -0.7335
 7075TIP3   OH242715   0.552   3.886  13.568 -0.2970 -0.3888 -0.7242
 7075TIP3    H142716   0.524   3.907  13.479  0.1652  0.3446 -0.7033
 7075TIP3    H242717   0.635   3.933  13.579 -0.4501 -0.3071  0.1654
 7076TIP3   OH242718   6.851   2.427   5.128  0.1300 -0.2817  0.2082
 7076TIP3    H142719   6.792   2.490   5.086 -0.9731 -0.1237  1.8876
 7076TIP3    H242720   6.928   2.479   5.153  0.1404 -0.0600 -0.2832
 7077TIP3   OH242721   3.210   0.628   6.367 -0.2521  0.0399 -0.1688
 7077TIP3    H142722   3.283   0.575   6.334  0.0677  2.5714 -4.3028
 7077TIP3    H242723   3.253   0.695   6.421  0.6450  1.2552 -2.2234
 7078TIP3   OH242724   1.581   2.979  15.432  0.3649 -0.7263 -0.6053
 7078TIP3    H142725   1.571   2.897  15.480 -0.7846 -0.2449  0.0272
 7078TIP3    H242726   1.669   2.975  15.395  0.7864 -1.6957  0.4463
 7079TIP3   OH242727   2.511   2.169  14.908  0.5816 -0.1399  0.0795
 7079TIP3    H142728   2.415   2.159  14.910  0.6391 -0.6838  1.4065
 7079TIP3    H242729   2.537   2.131  14.824 -0.3381 -0.3137 -0.1437
 7080TIP3   OH242730   6.626   4.024   2.484  0.3764 -0.3637 -0.6379
 7080TIP3    H142731   6.580   4.101   2.519 -0.9388 -0.3601 -2.2759
 7080TIP3    H242732   6.596   4.017   2.394  3.3158 -0.6291 -1.6952
 7081TIP3   OH242733   2.892   4.249   2.585 -0.5020  0.3582  0.0940
 7081TIP3    H142734   2.930   4.311   2.647  0.4673 -1.8747  1.8744
 7081TIP3    H242735   2.867   4.174   2.638 -3.0412 -0.2456 -1.7439
 7082TIP3   OH242736   3.028   5.773  13.907 -0.0213  0.1672 -0.1439
 7082TIP3    H142737   3.042   5.841  13.840 -1.1236 -0.3096 -0.8818
 7082TIP3    H242738   3.109   5.773  13.958  0.1914  1.7039 -0.4274
 7083TIP3   OH242739   6.488   6.825  15.113 -0.6694  0.3425 -0.3838
 7083TIP3    H142740   6.522   6.887  15.178 -0.6575  0.1403 -0.1919
 7083TIP3    H242741   6.484   6.742  15.161 -1.6596  0.4129 -0.3359
 7084TIP3   OH242742   4.605   6.501   3.179  0.2750  0.1467  0.4649
 7084TIP3    H142743   4.699   6.506   3.158  0.4227  2.3790  1.3446
 7084TIP3    H242744   4.602   6.471   3.269  0.2225  1.1404  0.8042
 7085TIP3   OH242745   0.156   4.997   4.876 -0.4946  0.3257  0.0357
 7085TIP3    H142746   0.193   4.961   4.795 -0.1365  1.2411 -0.2142
 7085TIP3    H242747   0.149   5.091   4.860  2.5475  1.0469  2.1744
 7086TIP3   OH242748   0.474   5.455  15.074  0.6576 -0.1154  0.0888
 7086TIP3    H142749   0.529   5.528  15.045  2.0628 -1.4955 -0.8984
 7086TIP3    H242750   0.536   5.393  15.113 -0.0975 -1.9746 -1.5296
 7087TIP3   OH242751   0.924   0.385  15.708  0.1532 -0.0812  0.5928
 7087TIP3    H142752   0.923   0.476  15.739  0.4114 -0.1489  0.7992
 7087TIP3    H242753   0.930   0.393  15.613 -1.8960  0.1462  0.4320
 7088TIP3   OH242754   2.478   5.203   4.111  0.3112 -0.1795 -0.3142
 7088TIP3    H142755   2.464   5.154   4.030  1.0763 -0.9837  0.0179
 7088TIP3    H242756   2.501   5.291   4.082 -0.0700 -0.2859 -0.9551
 7089TIP3   OH242757   1.914   2.268   4.375  0.5053  0.4233 -0.2536
 7089TIP3    H142758   1.871   2.232   4.453  1.9046 -0.6410  0.0753
 7089TIP3    H242759   1.972   2.197   4.345 -1.8910 -0.2802 -3.8771
 7090TIP3   OH242760   0.293   1.279  15.617  0.1138  0.3116 -0.2609
 7090TIP3    H142761   0.206   1.316  15.626  0.5799  1.5612 -0.6383
 7090TIP3    H242762   0.319   1.254  15.705  0.0985  1.6694  0.1438
 7091TIP3   OH242763   4.626   5.353   0.844  1.0007  1.0166 -0.0851
 7091TIP3    H142764   4.676   5.278   0.876  0.2453 -0.3361 -1.8352
 7091TIP3    H242765   4.549   5.357   0.901  0.0586 -0.8546 -1.1064
 7092TIP3   OH242766   5.848   4.373   4.843  0.4153  0.1442 -0.3213
 7092TIP3    H142767   5.778   4.437   4.845 -0.4551 -0.7948  1.0269
 7092TIP3    H242768   5.804   4.289   4.835  1.2924 -0.5214  1.2928
 7093TIP3   OH242769   2.179   3.438  14.048 -0.3942 -0.3003 -0.7539
 7093TIP3    H142770   2.232   3.516  14.035  0.4205 -0.5564  0.8009
 7093TIP3    H242771   2.090   3.470  14.054 -0.0327  0.5772  0.2566
 7094TIP3   OH242772   0.189   6.389   3.292  0.3588 -0.0941  0.0012
 7094TIP3    H142773   0.207   6.483   3.305 -1.5112  0.2497  0.3613
 7094TIP3    H242774   0.272   6.346   3.314  1.2283  1.4652 -0.0758
 7095TIP3   OH242775   3.101   3.930   3.412 -0.4922 -1.1158  0.1890
 7095TIP3    H142776   3.141   3.968   3.334  0.1430 -0.2607  0.9199
 7095TIP3    H242777   3.120   3.992   3.482  1.8368 -3.3644  1.7415
 7096TIP3   OH242778   2.924   4.629   0.895 -0.5011  0.2100  0.7386
 7096TIP3    H142779   2.918   4.715   0.853 -1.1737 -0.3150 -0.2764
 7096TIP3    H242780   2.855   4.577   0.854 -0.8121 -0.5072  2.1110
 7097TIP3   OH242781   2.000   6.758   0.486  0.1598  0.2171  0.1480
 7097TIP3    H142782   1.926   6.732   0.431 -0.4873 -0.1850  1.1761
 7097TIP3    H242783   1.974   6.844   0.520 -0.9978 -0.9672  2.4571
 7098TIP3   OH242784   5.362   5.834  12.377 -0.5017  0.2772 -0.0223
 7098TIP3    H142785   5.381   5.911  12.323 -0.0229  0.5857  0.5677
 7098TIP3    H242786   5.413   5.848  12.457  2.4328 -2.2995 -1.2463
 7099TIP3   OH242787   5.758   2.700  15.440 -0.3642  0.1618  0.1248
 7099TIP3    H142788   5.665   2.681  15.425 -0.4179  0.1211  0.5008
 7099TIP3    H242789   5.759   2.791  15.470 -0.2972  0.1086  0.2836
 7100TIP3   OH242790   2.821   2.261   4.435  0.2396  0.3548 -0.3268
 7100TIP3    H142791   2.849   2.289   4.348 -1.3461 -2.3071 -1.8406
 7100TIP3    H242792   2.749   2.321   4.457  0.6834  1.0791 -0.7905
 7101TIP3   OH242793   4.780   5.487   2.344 -0.1906  0.5260  0.4184
 7101TIP3    H142794   4.845   5.529   2.288  1.6897 -1.3391  1.0618
 7101TIP3    H242795   4.764   5.402   2.302  0.9169 -0.7153  2.3886
 7102TIP3   OH242796   1.036   6.642   2.088  0.1910  0.0420  0.2028
 7102TIP3    H142797   1.123   6.674   2.109  0.4378 -0.1731 -0.4742
 7102TIP3    H242798   0.977   6.706   2.127  0.6634  2.5322 -2.7335
 7103TIP3   OH242799   2.536   3.214   4.299 -0.6563  0.3366  0.2409
 7103TIP3    H142800   2.514   3.251   4.213  0.0745  1.0836  0.3542
 7103TIP3    H242801   2.627   3.184   4.289 -0.1054  1.6098  1.0996
 7104TIP3   OH242802   2.214   2.784   0.959  0.6005 -0.0381 -0.5585
 7104TIP3    H142803   2.131   2.791   0.911  0.3798  0.7790 -0.0850
 7104TIP3    H242804   2.267   2.857   0.925  1.0378 -0.4117 -0.6865
 7105TIP3   OH242805   4.937   6.240   5.735  0.8698 -0.1687 -0.7352
 7105TIP3    H142806   4.845   6.221   5.719 -0.0316  3.1097 -0.0533
 7105TIP3    H242807   4.980   6.218   5.652 -0.7840 -0.2644 -1.6159
 7106TIP3   OH242808   2.271   1.619   4.521  0.5936  0.3214  0.7756
 7106TIP3    H142809   2.361   1.636   4.493  0.2313  0.8522 -0.1249
 7106TIP3    H242810   2.252   1.531   4.488 -0.0387  1.1748 -1.3105
 7107TIP3   OH242811   3.419   2.027   3.511 -0.0299  0.2188 -0.1495
 7107TIP3    H142812   3.473   2.106   3.516 -3.2848  2.6058  3.5706
 7107TIP3    H242813   3.357   2.045   3.440  1.1096 -0.4910 -1.3695
 7108TIP3   OH242814   4.723   2.550   0.136  0.1556  0.0934  0.3126
 7108TIP3    H142815   4.783   2.624   0.140  0.4982  0.1552 -3.0764
 7108TIP3    H242816   4.637   2.590   0.119 -0.1829 -0.1884  1.2959
 7109TIP3   OH242817   0.018   2.054   5.717  0.3279  0.1356 -0.0962
 7109TIP3    H142818   0.012   1.960   5.729 -0.2830  0.0029 -1.3193
 7109TIP3    H242819   0.094   2.080   5.770 -0.7549 -0.7044  1.9867
 7110TIP3   OH242820   0.479   5.820  11.059  0.0908 -0.2321  0.5906
 7110TIP3    H142821   0.503   5.834  10.968  0.0186 -1.7526  0.3207
 7110TIP3    H242822   0.434   5.736  11.059 -0.5316  0.0766  1.9262
 7111TIP3   OH242823   2.225   4.481   0.632  0.0376  0.2726  0.6865
 7111TIP3    H142824   2.184   4.465   0.717 -1.3123  0.6655  0.1377
 7111TIP3    H242825   2.153   4.509   0.576  0.1614 -3.2598 -1.5516
 7112TIP3   OH242826   0.744   0.523   2.074 -0.4920 -0.4214  1.0968
 7112TIP3    H142827   0.727   0.566   2.158 -0.7438 -0.1432  0.9080
 7112TIP3    H242828   0.760   0.595   2.013  2.4285 -0.6723  1.4474
 7113TIP3   OH242829   0.292   6.495  14.343  0.7117  0.6414  0.1028
 7113TIP3    H142830   0.206   6.471  14.308  1.1013  0.6303 -0.8756
 7113TIP3    H242831   0.351   6.427  14.312  1.0729  0.6161  0.8164
 7114TIP3   OH242832   6.456   3.186  14.377  0.1896 -0.1421 -0.7081
 7114TIP3    H142833   6.381   3.230  14.337  0.9977  1.3793 -0.6483
 7114TIP3    H242834   6.446   3.094  14.354 -1.7079  0.0213 -0.6600
 7115TIP3   OH242835   3.401   6.421   2.253 -0.3755 -0.1021  0.0247
 7115TIP3    H142836   3.467   6.356   2.277 -0.3463  0.1998  0.7991
 7115TIP3    H242837   3.382   6.404   2.161  0.0090 -0.8709  0.0840
 7116TIP3   OH242838   1.926   6.489  10.948  0.7973  0.1856 -0.4871
 7116TIP3    H142839   1.842   6.487  10.993 -0.1005  0.5345 -2.0594
 7116TIP3    H242840   1.991   6.486  11.018 -0.5121  1.4992  0.8714
 7117TIP3   OH242841   2.942   1.500  12.541  0.0707  0.0223  0.2550
 7117TIP3    H142842   2.928   1.451  12.622  0.7759  0.5733  0.7317
 7117TIP3    H242843   2.949   1.433  12.473  2.3042 -0.6735  1.0704
 7118TIP3   OH242844   0.966   1.816  14.469 -0.5643  0.0662  0.8735
 7118TIP3    H142845   0.905   1.853  14.532  1.5103  1.1008  2.4239
 7118TIP3    H242846   1.007   1.743  14.516 -0.2976 -0.3260  0.0488
 7119TIP3   OH242847   6.424   0.780   2.748  0.3260  0.7114 -0.3529
 7119TIP3    H142848   6.489   0.762   2.815 -2.0206 -1.0144  1.6242
 7119TIP3    H242849   6.369   0.850   2.786 -1.8156 -1.1795  0.2413
 7120TIP3   OH242850   4.298   5.227  14.880 -0.6649  0.4040  0.1267
 7120TIP3    H142851   4.332   5.145  14.845 -1.0607  0.7509 -1.0932
 7120TIP3    H242852   4.356   5.295  14.844  1.0117  0.5712  2.8005
 7121TIP3   OH242853   1.696   0.656   0.763  0.0130  0.4682 -0.1141
 7121TIP3    H142854   1.624   0.594   0.756  0.1653  0.1675  0.8163
 7121TIP3    H242855   1.653   0.742   0.766 -0.3681  0.2539  1.1294
 7122TIP3   OH242856   6.680   5.951  12.967  0.0430  0.2436  0.4034
 7122TIP3    H142857   6.620   5.907  13.027  2.1539  0.7560  3.1012
 7122TIP3    H242858   6.665   6.044  12.983  1.5112  0.3789  1.1665
 7123TIP3   OH242859   5.644   3.300   0.377  0.0101  0.7716  0.4367
 7123TIP3    H142860   5.562   3.348   0.390  0.7071  1.6616  1.6944
 7123TIP3    H242861   5.692   3.353   0.313  0.2204  1.0587  0.8264
 7124TIP3   OH242862   1.312   6.345   3.571 -0.5542  0.2107 -1.4365
 7124TIP3    H142863   1.220   6.333   3.591 -0.3996 -1.3319 -1.5383
 7124TIP3    H242864   1.319   6.435   3.539 -1.4802  1.4996  1.6391
 7125TIP3   OH242865   0.018   4.670  13.554  0.2025  0.3747 -0.1526
 7125TIP3    H142866  -0.018   4.739  13.498  0.2536  1.0816  0.6679
 7125TIP3    H242867   0.099   4.708  13.590 -0.2261  0.2300  0.9933
 7126TIP3   OH242868   1.564   1.311   2.972 -0.2062  0.2016  0.6454
 7126TIP3    H142869   1.541   1.312   3.065  0.0751  2.1593  0.7328
 7126TIP3    H242870   1.548   1.221   2.944  1.0968 -0.8170  2.9181
 7127TIP3   OH242871   0.579   1.918  13.595  0.3414 -0.2970  0.3396
 7127TIP3    H142872   0.637   1.848  13.626  1.2288 -0.3141 -1.2314
 7127TIP3    H242873   0.604   1.930  13.503 -1.2331  0.6484  0.0011
 7128TIP3   OH242874   6.582   2.752   5.052  0.3124 -0.3179 -0.1780
 7128TIP3    H142875   6.551   2.682   5.110 -0.1397  0.7190  0.8855
 7128TIP3    H242876   6.526   2.745   4.975  1.0094 -1.8076 -0.5893
 7129TIP3   OH242877   4.986   2.479   3.494  0.8702 -0.0170 -0.1275
 7129TIP3    H142878   5.078   2.470   3.468  0.2346  0.6502 -2.8970
 7129TIP3    H242879   4.940   2.411   3.444 -0.1673 -0.3706  1.2481
 7130TIP3   OH242880   6.080   6.105  16.864  0.1229  0.2782 -0.3798
 7130TIP3    H142881   6.036   6.177  16.909 -0.8485  0.5229 -1.6292
 7130TIP3    H242882   6.157   6.145  16.825  0.0851  0.4351 -0.2943
 7131TIP3   OH242883   2.503   2.668   5.996 -0.1293 -0.7775 -0.9623
 7131TIP3    H142884   2.466   2.676   5.908 -0.1151  0.5139 -0.8778
 7131TIP3    H242885   2.597   2.680   5.984  0.4332 -4.2709 -1.2089
 7132TIP3   OH242886   1.994   3.251   1.582 -0.5715  0.1278 -0.0791
 7132TIP3    H142887   1.925   3.231   1.519  1.3545  0.5431 -2.5254
 7132TIP3    H242888   2.061   3.295   1.529  1.7343 -0.6096  2.0468
 7133TIP3   OH242889   2.177   1.502   4.204  0.5805 -0.3545  0.7562
 7133TIP3    H142890   2.178   1.537   4.115  0.6112 -1.6318  0.2335
 7133TIP3    H242891   2.126   1.566   4.254  2.0165  1.2764  0.2328
 7134TIP3   OH242892   2.844   0.221  12.880  0.5410 -0.6640  0.2707
 7134TIP3    H142893   2.936   0.197  12.896  0.7616 -0.0786 -0.0674
 7134TIP3    H242894   2.793   0.152  12.922  1.1472 -1.5720 -0.4568
 7135TIP3   OH242895   3.529   2.121  15.482  0.1460  0.4198  0.3810
 7135TIP3    H142896   3.540   2.163  15.568  0.5445  0.7421  0.1755
 7135TIP3    H242897   3.448   2.070  15.491  1.1894 -1.1493  1.5966
 7136TIP3   OH242898   4.289   4.622  12.119  0.3556 -0.3607  0.2982
 7136TIP3    H142899   4.272   4.682  12.046 -0.8087  1.8384  2.2665
 7136TIP3    H242900   4.215   4.560  12.116 -0.7692  0.9243  0.7555
 7137TIP3   OH242901   4.380   0.653   1.558 -0.2671  0.7116 -0.2178
 7137TIP3    H142902   4.444   0.683   1.493 -0.8109 -0.6757 -1.4513
 7137TIP3    H242903   4.354   0.733   1.605  0.8443  1.6039 -1.0679
 7138TIP3   OH242904   2.265   5.316   1.170  0.3288  0.7240  0.3585
 7138TIP3    H142905   2.326   5.389   1.168 -0.6882  1.5857  0.1574
 7138TIP3    H242906   2.210   5.332   1.247 -0.4122  0.6102 -0.1306
 7139TIP3   OH242907   0.455   4.769  16.142 -0.2096  0.1132  0.4716
 7139TIP3    H142908   0.428   4.852  16.102  0.9822  0.8907  1.2184
 7139TIP3    H242909   0.392   4.756  16.213 -0.4102  0.3655  0.3411
 7140TIP3   OH242910   2.698   4.528  14.314 -0.1308 -0.3611 -0.0335
 7140TIP3    H142911   2.763   4.468  14.351  1.4371  1.2816  0.0018
 7140TIP3    H242912   2.685   4.497  14.224 -2.7208 -3.3737  1.2019
 7141TIP3   OH242913   3.269   1.415  14.118  0.3952 -0.0098 -0.0387
 7141TIP3    H142914   3.275   1.442  14.210  0.8666  1.1263 -0.3827
 7141TIP3    H242915   3.175   1.413  14.100  0.3352  1.0813  0.1085
 7142TIP3   OH242916   6.052   3.103   6.358 -0.0871  0.2117  0.4168
 7142TIP3    H142917   6.087   3.051   6.285  0.9723  2.0979 -0.4957
 7142TIP3    H242918   6.106   3.077   6.433  0.4179 -0.0240 -0.0189
 7143TIP3   OH242919   2.418   2.380   5.607  0.1815 -0.3537 -0.2608
 7143TIP3    H142920   2.466   2.316   5.660  0.2186  0.2270  0.4148
 7143TIP3    H242921   2.485   2.421   5.552  0.3605 -0.0294  0.1908
 7144TIP3   OH242922   4.338   0.142  17.033  0.1664  0.0190 -0.2665
 7144TIP3    H142923   4.265   0.087  17.062 -0.6500  0.8795 -0.6461
 7144TIP3    H242924   4.335   0.137  16.938 -0.2506  1.1188 -0.3266
 7145TIP3   OH242925   3.514   5.249   5.805  0.0608 -0.3730  0.6624
 7145TIP3    H142926   3.577   5.245   5.733  0.4453  1.0196  0.9090
 7145TIP3    H242927   3.563   5.217   5.881  0.4026  0.4523  0.7976
 7146TIP3   OH242928   5.890   1.487   5.657  0.2241  0.4749  0.2341
 7146TIP3    H142929   5.892   1.391   5.662 -1.6208  0.2969 -1.1773
 7146TIP3    H242930   5.875   1.516   5.747 -2.2655 -0.7645  0.3033
 7147TIP3   OH242931   3.502   1.369   4.644 -0.1636 -0.8507 -0.6281
 7147TIP3    H142932   3.471   1.289   4.686  0.5416 -0.2591  1.0940
 7147TIP3    H242933   3.459   1.369   4.558 -2.5290 -1.5849  0.4738
 7148TIP3   OH242934   1.189   4.369  11.859  0.0472 -0.0233 -0.8254
 7148TIP3    H142935   1.173   4.449  11.910 -1.5059 -0.4427 -0.5883
 7148TIP3    H242936   1.209   4.302  11.925 -0.8235 -0.3011 -0.8187
 7149TIP3   OH242937   6.277   4.279   6.025 -0.3286  0.3701  0.0474
 7149TIP3    H142938   6.265   4.372   6.005  0.2069  0.8276  1.7330
 7149TIP3    H242939   6.371   4.265   6.017 -0.4511 -0.1321 -0.5712
 7150TIP3   OH242940   2.655   2.964  10.371 -0.8305  0.6174 -0.1358
 7150TIP3    H142941   2.722   3.020  10.332  1.5494  0.0462  2.7169
 7150TIP3    H242942   2.610   3.021  10.434  0.6224 -0.1901  1.7260
 7151TIP3   OH242943   0.486   1.410   4.589 -0.6463  0.3651  0.2764
 7151TIP3    H142944   0.401   1.446   4.616 -0.7906  0.4259 -0.2471
 7151TIP3    H242945   0.503   1.451   4.504  1.6849  3.2564  1.9565
 7152TIP3   OH242946   0.565   0.048   2.183  0.1424 -0.0858  0.0419
 7152TIP3    H142947   0.557   0.090   2.269 -0.9768  0.3162 -0.2466
 7152TIP3    H242948   0.540   0.116   2.120  1.4572 -0.2092 -0.6557
 7153TIP3   OH242949   2.997   5.866   1.237 -0.0564  0.6411 -0.4629
 7153TIP3    H142950   2.960   5.779   1.220  0.4353  0.5108 -0.8950
 7153TIP3    H242951   3.061   5.879   1.167 -0.7356  1.7232 -0.9209
 7154TIP3   OH242952   2.454   5.561  13.749  0.4679  0.2038 -0.3768
 7154TIP3    H142953   2.457   5.540  13.655  0.7238 -0.6900 -0.1726
 7154TIP3    H242954   2.538   5.604  13.766  2.1142 -2.9237  0.1807
 7155TIP3   OH242955   0.674   2.369  14.350  0.4406 -0.3120  0.0025
 7155TIP3    H142956   0.763   2.366  14.316  0.2875  0.5503 -0.5189
 7155TIP3    H242957   0.646   2.460  14.337  0.1854 -0.0536  2.0116
 7156TIP3   OH242958   6.752   4.556  11.059  0.2593 -0.2840 -0.3868
 7156TIP3    H142959   6.763   4.637  11.008  0.4996 -0.9027 -1.3492
 7156TIP3    H242960   6.691   4.579  11.128  2.0652  1.3717  0.7835
 7157TIP3   OH242961   0.526   6.761  12.679 -0.0947 -0.3025  0.2769
 7157TIP3    H142962   0.494   6.705  12.751  1.8143  0.8410  2.1174
 7157TIP3    H242963   0.548   6.844  12.721  1.9142  0.1251 -1.4692
 7158TIP3   OH242964   3.609   0.491   2.918  0.4697  0.2178  0.1365
 7158TIP3    H142965   3.589   0.575   2.876  2.9544  0.3485 -0.9539
 7158TIP3    H242966   3.625   0.514   3.010 -0.4957  0.6541  0.2073
 7159TIP3   OH242967   5.142   0.212  13.836  0.1745 -0.1862 -0.4265
 7159TIP3    H142968   5.122   0.276  13.768  1.6425  0.8954  0.1185
 7159TIP3    H242969   5.091   0.242  13.912 -0.8537 -0.9511 -0.7882
 7160TIP3   OH242970   4.647   3.445   4.547 -0.4063 -0.1139  0.4578
 7160TIP3    H142971   4.656   3.453   4.642 -0.9213  0.3270  0.4713
 7160TIP3    H242972   4.630   3.352   4.533  0.4477 -0.3213  0.7280
 7161TIP3   OH242973   3.754   2.484   3.924  0.0337 -0.2784 -0.9405
 7161TIP3    H142974   3.752   2.493   4.019 -0.2879  0.7953 -1.0379
 7161TIP3    H242975   3.685   2.543   3.893 -0.6936 -1.5198 -1.7784
 7162TIP3   OH242976   1.054   3.352   1.657 -0.0700 -0.7446  0.4220
 7162TIP3    H142977   0.967   3.314   1.665  1.0276 -3.3866  0.9099
 7162TIP3    H242978   1.057   3.422   1.721 -1.8769 -0.4691  0.2414
 7163TIP3   OH242979   4.615   2.464   5.610 -0.3299 -0.2931  0.2775
 7163TIP3    H142980   4.693   2.518   5.625  0.7900 -1.3704 -1.3716
 7163TIP3    H242981   4.597   2.424   5.696  0.4316  0.5946  0.8767
 7164TIP3   OH242982   5.404   6.719  15.254 -0.0920 -0.2242  0.3318
 7164TIP3    H142983   5.366   6.667  15.325 -0.9966  0.4720  0.3795
 7164TIP3    H242984   5.332   6.729  15.191  0.1808  0.6380  0.1467
 7165TIP3   OH242985   3.596   4.858  11.788 -0.3076  0.4148 -0.1676
 7165TIP3    H142986   3.553   4.924  11.842 -1.1670  0.2840 -0.6814
 7165TIP3    H242987   3.568   4.877  11.699  2.2686  1.5505 -0.8362
 7166TIP3   OH242988   0.131   6.122  12.643  0.4132 -0.5129 -0.0899
 7166TIP3    H142989   0.201   6.132  12.708 -0.8625  2.7046  0.9996
 7166TIP3    H242990   0.050   6.130  12.694 -0.6333  1.7612 -1.9248
 7167TIP3   OH242991   1.832   2.264   4.934 -0.0731 -0.1071  0.6333
 7167TIP3    H142992   1.837   2.257   5.030  0.4203 -0.0843  0.6121
 7167TIP3    H242993   1.799   2.352   4.918 -1.0340 -0.4315  0.7984
 7168TIP3   OH242994   6.423   2.638  11.387 -0.3915 -0.7780 -0.4385
 7168TIP3    H142995   6.383   2.700  11.449 -0.6268 -1.7188  0.3869
 7168TIP3    H242996   6.374   2.557  11.400  1.8567 -2.0572  0.7608
 7169TIP3   OH242997   1.031   4.321   5.497 -0.7190  0.2771 -0.0105
 7169TIP3    H142998   1.079   4.360   5.424 -1.5172  1.5391  0.1045
 7169TIP3    H242999   1.056   4.375   5.573 -0.4855 -0.5461  0.5139
 7170TIP3   OH243000   1.659   1.727   0.065 -0.3105  0.4195  0.2470
 7170TIP3    H143001   1.678   1.761  -0.022  1.4593 -1.8506 -0.3463
 7170TIP3    H243002   1.744   1.699   0.099 -1.2391 -0.5525  1.9048
 7171TIP3   OH243003   4.167   0.899  11.966  0.0289 -0.3117 -0.6938
 7171TIP3    H143004   4.081   0.912  11.926  0.0507  0.9489 -0.3815
 7171TIP3    H243005   4.228   0.897  11.892 -0.0056  1.3416 -0.7959
 7172TIP3   OH243006   5.156   4.934  15.637  0.0754 -0.3584  0.4573
 7172TIP3    H143007   5.204   5.003  15.591 -0.1549 -0.0954  0.6074
 7172TIP3    H243008   5.171   4.952  15.729 -0.7836  0.0687  0.5191
 7173TIP3   OH243009   6.388   4.310   5.288 -0.1182  0.6550  0.1940
 7173TIP3    H143010   6.426   4.285   5.372  0.4293  0.9539  0.0398
 7173TIP3    H243011   6.423   4.397   5.271  0.8912  0.0397 -1.0115
 7174TIP3   OH243012   5.998   3.135   6.674  0.4002 -0.1993 -0.2173
 7174TIP3    H143013   5.929   3.194   6.705  0.4710  1.2368 -2.5257
 7174TIP3    H243014   5.951   3.064   6.630  0.3035  0.6456 -1.5617
 7175TIP3   OH243015   1.856   2.156  13.174 -0.3929 -0.1448 -0.2557
 7175TIP3    H143016   1.792   2.192  13.112  0.5454  2.6993  0.2822
 7175TIP3    H243017   1.935   2.142  13.121  0.2517  1.8161  0.0868
 7176TIP3   OH243018   6.132   4.355   4.034 -0.4084  0.5633  0.1331
 7176TIP3    H143019   6.220   4.319   4.021 -1.0500 -0.8900 -0.4515
 7176TIP3    H243020   6.144   4.425   4.098  1.1660  0.4000  0.0659
 7177TIP3   OH243021   1.101   4.266   0.462  0.1816  0.5510 -0.3488
 7177TIP3    H143022   1.142   4.349   0.438 -0.7521  0.3899 -2.7716
 7177TIP3    H243023   1.012   4.290   0.488 -0.1539  0.3281 -1.2465
 7178TIP3   OH243024   3.324   0.601  16.804  0.2682  0.0507  0.0794
 7178TIP3    H143025   3.314   0.550  16.884  2.3807 -0.0173  0.3594
 7178TIP3    H243026   3.345   0.537  16.736  0.6133  0.3052 -0.0615
 7179TIP3   OH243027   3.555   0.306   4.056 -0.0506 -0.1499 -0.9139
 7179TIP3    H143028   3.566   0.365   3.982 -1.8485 -0.1451 -1.2026
 7179TIP3    H243029   3.550   0.219   4.017 -2.4853 -0.0354 -1.0097
 7180TIP3   OH243030   6.061   5.522  11.364  0.9512 -0.2124 -0.7311
 7180TIP3    H143031   5.965   5.532  11.365  0.8005 -1.4079  0.6610
 7180TIP3    H243032   6.094   5.611  11.350 -0.3539  0.0536 -2.4981
 7181TIP3   OH243033   4.424   1.887   5.594 -0.4386 -0.0859 -0.2213
 7181TIP3    H143034   4.401   1.979   5.580  0.3737  0.1250 -0.2667
 7181TIP3    H243035   4.520   1.888   5.604 -0.5328 -0.7739  0.9590
 7182TIP3   OH243036   0.622   1.793  12.924  0.3456  0.1146 -0.3927
 7182TIP3    H143037   0.574   1.792  13.007 -2.2183  0.7726 -1.7468
 7182TIP3    H243038   0.559   1.760  12.860  2.1282 -0.0658 -2.1458
 7183TIP3   OH243039   3.028   3.416  16.089  0.2742 -0.1085  0.1486
 7183TIP3    H143040   2.983   3.489  16.045  1.1202 -0.1784 -0.8795
 7183TIP3    H243041   2.957   3.355  16.111 -0.1191 -0.7155 -2.3882
 7184TIP3   OH243042   0.540   5.029   4.755 -0.0187 -0.4553 -0.1033
 7184TIP3    H143043   0.492   5.059   4.678 -1.6303  0.4192  1.1559
 7184TIP3    H243044   0.532   4.933   4.753 -1.0531 -0.3711 -0.4136
 7185TIP3   OH243045   1.824   3.143  15.415  0.0825 -0.5848  0.3436
 7185TIP3    H143046   1.799   3.141  15.322  0.9769  0.9117  0.0321
 7185TIP3    H243047   1.755   3.195  15.457 -0.0082 -0.7604  0.4128
 7186TIP3   OH243048   0.744   3.425   3.034 -0.4694  1.2904  0.1412
 7186TIP3    H143049   0.687   3.447   3.107  2.1289  3.4430  1.7016
 7186TIP3    H243050   0.732   3.496   2.971  0.6205  1.9346  0.6248
 7187TIP3   OH243051   4.333   0.737  11.745 -0.4401 -0.1205 -0.4902
 7187TIP3    H143052   4.377   0.727  11.661  1.8983 -0.4025  0.6536
 7187TIP3    H243053   4.282   0.656  11.755 -0.3751 -0.2869 -1.4340
 7188TIP3   OH243054   5.041   3.023   2.224 -0.0842  0.0955  0.3535
 7188TIP3    H143055   5.064   3.034   2.316  0.6721  0.4095  0.1282
 7188TIP3    H243056   5.054   3.109   2.185 -0.5539  0.0048 -0.0183
 7189TIP3   OH243057   4.508   5.995  16.254  0.3399  0.1660 -0.5452
 7189TIP3    H143058   4.464   5.963  16.176 -1.0710 -1.3858  0.7949
 7189TIP3    H243059   4.459   6.074  16.278  0.8458  0.7052 -1.2752
 7190TIP3   OH243060   2.298   6.437   3.476 -0.2023 -0.1789 -0.0269
 7190TIP3    H143061   2.377   6.407   3.430 -0.3497  1.5230 -1.4856
 7190TIP3    H243062   2.291   6.530   3.454 -2.9095 -0.3835 -0.4050
 7191TIP3   OH243063   6.007   1.833   5.516 -0.3713 -0.0789  0.2714
 7191TIP3    H143064   5.997   1.872   5.429 -2.6801 -0.1297  0.4429
 7191TIP3    H243065   5.920   1.798   5.536 -0.1911  0.7902  2.9878
 7192TIP3   OH243066   5.143   3.138   3.734  0.1973  0.3207  0.3756
 7192TIP3    H143067   5.106   3.198   3.670  0.4579 -0.1554 -0.2300
 7192TIP3    H243068   5.092   3.058   3.724  1.1629 -0.2437 -0.2620
 7193TIP3   OH243069   2.390   0.306  16.387 -0.9665  0.8089 -0.1700
 7193TIP3    H143070   2.356   0.241  16.326  1.3432  1.2341 -2.0284
 7193TIP3    H243071   2.405   0.384  16.334  0.0962  1.5684  1.1600
 7194TIP3   OH243072   5.153   0.628   3.905 -0.3797  0.3591  0.1474
 7194TIP3    H143073   5.110   0.705   3.869  0.2126  0.0536 -1.2961
 7194TIP3    H243074   5.244   0.635   3.875 -0.1405 -0.5227  0.6151
 7195TIP3   OH243075   1.475   0.542   5.001 -0.3707 -0.2748  0.0503
 7195TIP3    H143076   1.407   0.576   4.943 -2.1398  0.6781  2.4803
 7195TIP3    H243077   1.482   0.608   5.070  1.6414 -1.3067  0.9079
 7196TIP3   OH243078   6.472   0.228  10.636  0.2794 -0.4592 -0.1429
 7196TIP3    H143079   6.416   0.237  10.559  1.1137  2.8617 -0.4913
 7196TIP3    H243080   6.561   0.231  10.602  0.6822 -1.0905  0.8036
 7197TIP3   OH243081   4.929   4.091   1.969  0.1386  0.2319 -0.8425
 7197TIP3    H143082   4.991   4.113   2.039  0.5433 -1.0726 -0.7689
 7197TIP3    H243083   4.847   4.073   2.015  0.2804 -0.1614 -0.7380
 7198TIP3   OH243084   0.617   5.155  13.814  0.0894 -0.2342  0.1485
 7198TIP3    H143085   0.700   5.186  13.778 -0.0420  0.2905  0.2895
 7198TIP3    H243086   0.593   5.222  13.879 -1.4705  0.6880 -1.3146
 7199TIP3   OH243087   2.074   1.643  14.670  0.1764  0.4141  0.5310
 7199TIP3    H143088   2.004   1.705  14.686  0.3080  0.3003  1.6435
 7199TIP3    H243089   2.122   1.679  14.595 -0.5511  0.9284  0.3016
 7200TIP3   OH243090   2.798   6.580  16.812 -0.1680 -0.3523 -0.2060
 7200TIP3    H143091   2.736   6.516  16.779  1.5872 -1.4587 -1.5558
 7200TIP3    H243092   2.836   6.539  16.890  0.3076 -0.5730 -0.5504
 7201TIP3   OH243093   4.191   3.956  15.338  0.0731 -0.1333  0.2009
 7201TIP3    H143094   4.153   3.883  15.388  0.5939  0.8111  2.0892
 7201TIP3    H243095   4.279   3.926  15.316 -0.4697 -0.9087 -0.9797
 7202TIP3   OH243096   5.415   1.867  15.134 -0.0286  0.1231  0.5333
 7202TIP3    H143097   5.478   1.795  15.135  0.5728  0.6246  0.0084
 7202TIP3    H243098   5.357   1.850  15.207 -0.1826 -1.1553  0.1361
 7203TIP3   OH243099   3.830   5.136   4.451  0.4780 -0.2769  0.0056
 7203TIP3    H143100   3.793   5.195   4.517  1.7709 -0.7976  1.2735
 7203TIP3    H243101   3.803   5.049   4.479  1.6310 -0.5639  0.3017
 7204TIP3   OH243102   6.320   0.159  16.701 -0.2178  0.3118  0.1312
 7204TIP3    H143103   6.379   0.138  16.628  1.2253 -1.6073  1.7249
 7204TIP3    H243104   6.251   0.093  16.696  0.3218 -0.3341  0.9172
 7205TIP3   OH243105   2.920   3.553  12.511  0.2106  0.1634  0.0216
 7205TIP3    H143106   2.975   3.548  12.433 -0.4851 -0.2366 -0.4478
 7205TIP3    H243107   2.978   3.527  12.583  0.7003 -0.0050 -0.4289
 7206TIP3   OH243108   5.770   3.644   0.482  0.7621  0.0093 -0.0122
 7206TIP3    H143109   5.775   3.614   0.391  1.9210  1.4944 -0.4785
 7206TIP3    H243110   5.856   3.624   0.519  0.7650  0.6299  0.3346
 7207TIP3   OH243111   2.014   4.873  14.588 -0.1680 -0.3366  0.3314
 7207TIP3    H143112   2.092   4.818  14.597 -1.0420 -1.9562 -1.3369
 7207TIP3    H243113   1.945   4.812  14.562 -1.1828  1.5341 -1.6179
 7208TIP3   OH243114   0.831   2.639   0.642  0.7599  0.0638  0.4192
 7208TIP3    H143115   0.826   2.543   0.637 -1.5709  0.1751 -1.1083
 7208TIP3    H243116   0.765   2.663   0.707  0.1875  0.6680 -0.3566
 7209TIP3   OH243117   0.803   1.018  12.516  0.2300  0.2494  0.1275
 7209TIP3    H143118   0.755   1.071  12.452 -0.7047 -0.2679  0.3830
 7209TIP3    H243119   0.886   1.064  12.528  0.1019  0.7661 -0.8764
 7210TIP3   OH243120   4.543   1.285   0.308  0.2336  0.4250  0.7130
 7210TIP3    H143121   4.496   1.236   0.375  0.8464 -1.7890 -0.3547
 7210TIP3    H243122   4.587   1.356   0.355  0.2696 -0.7793  2.5755
 7211TIP3   OH243123   2.789   6.843   0.258 -0.3507  0.4066  0.1126
 7211TIP3    H143124   2.807   6.907   0.190 -2.7148  0.8852 -0.1515
 7211TIP3    H243125   2.713   6.795   0.227  0.5422 -1.6520  0.9309
 7212TIP3   OH243126   1.558   4.016   5.773 -0.0855  0.4988  0.6697
 7212TIP3    H143127   1.584   3.967   5.695 -1.0365  0.4864  0.3502
 7212TIP3    H243128   1.507   3.953   5.825  1.0192  0.3308  1.5874
 7213TIP3   OH243129   0.369   0.466  14.617  0.0787  0.8206 -0.0843
 7213TIP3    H143130   0.370   0.511  14.701 -2.3976 -0.4752  0.7459
 7213TIP3    H243131   0.299   0.509  14.567 -1.7761 -1.3868  0.4182
 7214TIP3   OH243132   0.107   4.577  14.414  0.2196  0.2124  0.1901
 7214TIP3    H143133   0.052   4.503  14.440  0.5518 -0.1144 -0.0366
 7214TIP3    H243134   0.182   4.537  14.370  0.1576  0.7071 -0.3772
 7215TIP3   OH243135   0.235   0.814  11.264 -0.0758  0.5261 -0.0825
 7215TIP3    H143136   0.206   0.772  11.345 -0.9563  0.5588 -0.3759
 7215TIP3    H243137   0.176   0.780  11.197  0.8757  0.2225 -0.7780
 7216TIP3   OH243138   1.784   6.092  14.045 -0.2401  0.7853  0.7475
 7216TIP3    H143139   1.807   6.043  13.966 -0.6701  0.5916  0.7371
 7216TIP3    H243140   1.809   6.036  14.118  0.7486  1.2351  0.7651
 7217TIP3   OH243141   6.508   4.608   1.000  0.4425 -0.3939  0.3592
 7217TIP3    H143142   6.491   4.513   0.996 -2.5981  0.0586  0.1660
 7217TIP3    H243143   6.452   4.645   0.933 -1.2362  1.8256  2.7946
 7218TIP3   OH243144   3.601   1.162   3.384 -0.4102  0.1253  0.2428
 7218TIP3    H143145   3.519   1.211   3.380  0.2412  1.5681  2.5740
 7218TIP3    H243146   3.575   1.072   3.403 -1.4894  0.2141 -0.7160
 7219TIP3   OH243147   0.700   2.691  11.134 -0.0049  0.0091  0.2624
 7219TIP3    H143148   0.796   2.690  11.134  0.0437 -2.4154  0.7367
 7219TIP3    H243149   0.676   2.715  11.045  1.0302  0.8518  0.1964
 7220TIP3   OH243150   1.538   3.157   3.104  0.1156  0.1237 -0.2830
 7220TIP3    H143151   1.480   3.205   3.046  1.0336 -0.0522 -1.3678
 7220TIP3    H243152   1.552   3.073   3.061 -0.7173 -0.7959  1.1352
 7221TIP3   OH243153   2.362   5.921   1.597  0.2340  0.2052  0.5240
 7221TIP3    H143154   2.308   5.913   1.519 -2.8157  2.0952  2.2522
 7221TIP3    H243155   2.419   5.996   1.579  0.4205 -0.1266 -0.3046
 7222TIP3   OH243156   5.524   6.774   4.992 -0.0614 -0.7843 -0.1416
 7222TIP3    H143157   5.593   6.761   4.926 -0.6703 -1.2299 -0.7017
 7222TIP3    H243158   5.450   6.723   4.959  0.0483 -2.1021  1.5354
 7223TIP3   OH243159   3.642   5.008  16.484 -0.2810 -0.4285  0.5028
 7223TIP3    H143160   3.597   4.924  16.489  0.7383 -1.0598 -0.6408
 7223TIP3    H243161   3.664   5.019  16.392  2.5553 -0.5113  1.0769
 7224TIP3   OH243162   2.767   4.979  14.617 -0.0013 -0.1911  0.5935
 7224TIP3    H143163   2.673   4.964  14.619  0.1275 -1.1217  0.1996
 7224TIP3    H243164   2.804   4.897  14.584  0.8264  0.7829 -1.0029
 7225TIP3   OH243165   1.736   1.480   4.233  0.7092  0.0945  0.5544
 7225TIP3    H143166   1.786   1.485   4.151 -0.7836  0.8349 -0.3696
 7225TIP3    H243167   1.729   1.571   4.262  1.3169 -0.1731  1.6007
 7226TIP3   OH243168   3.094   2.281  14.379  0.3903  0.6924  0.6091
 7226TIP3    H143169   3.138   2.353  14.334  0.2049  0.6637  0.3825
 7226TIP3    H243170   3.164   2.221  14.402  0.1718 -1.5129 -3.5067
 7227TIP3   OH243171   0.707   0.373  16.292 -0.3800 -0.2631  0.1455
 7227TIP3    H143172   0.691   0.434  16.220 -0.7985 -0.7657 -0.1968
 7227TIP3    H243173   0.686   0.422  16.371 -3.0985 -0.6706 -0.2311
 7228TIP3   OH243174   1.210   4.546  10.623  0.1419 -0.6242 -0.3335
 7228TIP3    H143175   1.176   4.611  10.562  0.0419 -0.7827 -0.4467
 7228TIP3    H243176   1.156   4.468  10.609  0.6559 -0.9390 -0.6429
 7229TIP3   OH243177   4.334   2.023   2.109 -0.6272  0.0266  0.1646
 7229TIP3    H143178   4.370   2.023   2.020 -0.6116  0.3289  0.1723
 7229TIP3    H243179   4.351   2.111   2.142 -3.4266  0.9731 -0.6599
 7230TIP3   OH243180   1.758   2.082   2.160  0.1788 -0.4232 -0.0636
 7230TIP3    H143181   1.740   2.071   2.066 -0.3671  0.4244 -0.0655
 7230TIP3    H243182   1.753   2.176   2.175 -0.3237 -0.5922  0.9326
 7231TIP3   OH243183   5.475   5.452  15.953  0.0898 -0.0020  0.1369
 7231TIP3    H143184   5.390   5.423  15.918  0.3548 -1.3886  0.5744
 7231TIP3    H243185   5.454   5.497  16.034 -0.3261  1.0081 -0.5017
 7232TIP3   OH243186   0.229   6.754   6.499 -0.3584  0.5428  0.3686
 7232TIP3    H143187   0.236   6.847   6.480 -2.9974  0.5560 -1.0698
 7232TIP3    H243188   0.276   6.711   6.428 -1.1877  0.7739 -0.3354
 7233TIP3   OH243189   4.795   4.184  15.338  0.5844 -0.5197 -0.0286
 7233TIP3    H143190   4.828   4.251  15.279 -0.6212 -0.4168 -0.6194
 7233TIP3    H243191   4.737   4.231  15.398 -0.3935 -1.0318 -0.5457
 7234TIP3   OH243192   2.687   3.008  10.710  0.0637  0.4127  0.0974
 7234TIP3    H143193   2.754   3.076  10.701  1.0364 -0.5309 -0.0303
 7234TIP3    H243194   2.607   3.048  10.676 -0.0081  2.3583  2.3007
 7235TIP3   OH243195   4.586   3.594   3.629  0.3728 -0.1666  0.1194
 7235TIP3    H143196   4.557   3.635   3.711  0.4650 -0.4148  0.2772
 7235TIP3    H243197   4.663   3.543   3.654  1.1725  0.7737 -0.3672
 7236TIP3   OH243198   1.004   1.639   0.171  0.0553 -0.4229 -0.2769
 7236TIP3    H143199   0.932   1.694   0.202  0.7834 -0.2163  1.1285
 7236TIP3    H243200   1.022   1.580   0.244 -0.1968 -2.0382 -1.4824
 7237TIP3   OH243201   0.159   5.819  12.774  0.8593  0.3060 -0.0839
 7237TIP3    H143202   0.170   5.726  12.792  1.6139  0.4383  0.1676
 7237TIP3    H243203   0.234   5.861  12.816 -0.2673  1.1875  1.1093
 7238TIP3   OH243204   2.470   6.349  14.781  0.5516 -0.5777 -0.0675
 7238TIP3    H143205   2.430   6.275  14.825 -0.8647  0.5369  0.6104
 7238TIP3    H243206   2.493   6.409  14.852  0.0908  0.3711 -0.6895
 7239TIP3   OH243207   1.603   3.109  12.146 -1.4104 -0.4416  0.3513
 7239TIP3    H143208   1.637   3.105  12.057 -2.5474 -1.1974 -0.0690
 7239TIP3    H243209   1.678   3.137  12.199 -0.9671  0.9891 -0.9508
 7240TIP3   OH243210   0.358   4.919   5.087  0.0461 -0.0774 -0.1228
 7240TIP3    H143211   0.349   5.011   5.060  2.0248  0.3248  0.4185
 7240TIP3    H243212   0.364   4.871   5.005 -1.0273  0.2613 -0.4143
 7241TIP3   OH243213   6.261   1.168   0.771 -0.2614 -0.2409 -0.1165
 7241TIP3    H143214   6.256   1.196   0.680  0.8663  1.4819  0.3017
 7241TIP3    H243215   6.170   1.154   0.797 -0.5268 -2.7291 -2.0208
 7242TIP3   OH243216   4.154   5.069  14.165 -0.0750  0.3172 -0.1000
 7242TIP3    H143217   4.167   5.090  14.072  1.0463 -0.6144 -0.1782
 7242TIP3    H243218   4.169   4.974  14.170 -0.5013  0.2919  0.9778
 7243TIP3   OH243219   0.399   3.778   5.455  0.2396 -0.0920  0.2210
 7243TIP3    H143220   0.456   3.724   5.509  0.3774 -0.0908  0.0763
 7243TIP3    H243221   0.415   3.868   5.485  1.7404  0.1309 -1.1005
 7244TIP3   OH243222   2.998   6.320   5.721 -0.3118 -0.6316  0.1679
 7244TIP3    H143223   3.019   6.399   5.772 -0.3815 -0.9104  0.6341
 7244TIP3    H243224   3.008   6.347   5.630  1.5140 -0.5811  0.3504
 7245TIP3   OH243225   2.477   5.296  15.573  0.4523 -0.3032  0.4728
 7245TIP3    H143226   2.394   5.338  15.598 -0.5158 -1.8318 -0.0300
 7245TIP3    H243227   2.506   5.345  15.496 -0.0098  0.2171  0.6239
 7246TIP3   OH243228   3.384   6.329  13.487  0.0850 -0.3472 -0.3487
 7246TIP3    H143229   3.406   6.422  13.489 -0.8291 -0.1031  1.9279
 7246TIP3    H243230   3.292   6.327  13.464 -0.6762 -0.3984  2.3449
 7247TIP3   OH243231   1.866   2.290  16.567 -0.0804  0.5130 -0.0007
 7247TIP3    H143232   1.810   2.325  16.637 -0.3444  0.8868 -0.3926
 7247TIP3    H243233   1.818   2.310  16.486 -0.1331 -0.5846 -0.2446
 7248TIP3   OH243234   4.354   5.380   4.491  0.3592  0.8189  0.6508
 7248TIP3    H143235   4.275   5.388   4.437 -0.5136  1.2030  1.9623
 7248TIP3    H243236   4.326   5.334   4.570  1.7314 -0.1866  0.6072
 7249TIP3   OH243237   1.303   4.742   0.050  0.2189  0.0695 -0.3591
 7249TIP3    H143238   1.305   4.727  -0.044  1.8813  2.6865 -0.8557
 7249TIP3    H243239   1.304   4.838   0.059 -1.8578 -0.0315  2.3259
 7250TIP3   OH243240   3.920   2.558  12.600 -0.0498 -0.0051 -0.2002
 7250TIP3    H143241   3.952   2.625  12.539 -0.8765  0.3849 -0.2323
 7250TIP3    H243242   3.922   2.601  12.685 -0.6970  0.1081 -0.2379
 7251TIP3   OH243243   6.403   5.612   3.410 -0.0328 -0.1491  0.5230
 7251TIP3    H143244   6.347   5.561   3.352  1.0409 -0.1318 -0.5814
 7251TIP3    H243245   6.434   5.684   3.355  1.7991 -0.6825  0.8078
 7252TIP3   OH243246   2.946   2.625   2.856 -0.2577 -1.0731  0.7359
 7252TIP3    H143247   2.867   2.572   2.847  0.6022 -2.5816  1.7683
 7252TIP3    H243248   2.925   2.686   2.928 -0.5231 -1.3644  0.9087
 7253TIP3   OH243249   0.532   0.487  16.634  0.6478 -0.4252  0.1317
 7253TIP3    H143250   0.483   0.421  16.683  0.4946  0.2951  0.9727
 7253TIP3    H243251   0.592   0.525  16.698  1.1392 -0.1436 -0.4825
 7254TIP3   OH243252   6.168   0.567  12.712 -0.0452 -0.1447 -0.3745
 7254TIP3    H143253   6.212   0.611  12.784 -2.0342 -2.1495  2.3104
 7254TIP3    H243254   6.088   0.618  12.699 -0.5552 -0.7870  0.1534
 7255TIP3   OH243255   0.443   3.595  13.680 -0.0754 -0.1397 -0.7844
 7255TIP3    H143256   0.510   3.527  13.683 -0.2824 -0.3213  1.3938
 7255TIP3    H243257   0.492   3.677  13.677  0.2675 -0.2939  0.1698
 7256TIP3   OH243258   6.485   6.175   1.480 -0.1177 -0.1239 -0.6830
 7256TIP3    H143259   6.424   6.108   1.449 -0.9205  0.1282  0.2913
 7256TIP3    H243260   6.552   6.126   1.528 -0.2902 -0.2983 -0.6149
 7257TIP3   OH243261   1.548   3.843  12.717  0.4156  0.0679 -0.4064
 7257TIP3    H143262   1.478   3.779  12.722 -1.3752  1.9527 -0.0327
 7257TIP3    H243263   1.613   3.804  12.659 -0.5153 -2.1040 -0.0723
 7258TIP3   OH243264   5.513   2.474   5.977 -0.0241  0.1274 -0.4502
 7258TIP3    H143265   5.454   2.531   5.927 -1.2361 -0.6340  0.0497
 7258TIP3    H243266   5.493   2.494   6.068 -0.3804 -0.9877 -0.2691
 7259TIP3   OH243267   2.599   2.865   5.827  0.2360 -0.1631  1.0382
 7259TIP3    H143268   2.685   2.823   5.824 -0.1187 -1.0854  2.7929
 7259TIP3    H243269   2.614   2.947   5.874  0.4175  0.4404 -0.0312
 7260TIP3   OH243270   1.024   3.365   0.190 -0.4478  0.4922 -0.1503
 7260TIP3    H143271   0.988   3.286   0.148  0.5098  0.5909 -1.2230
 7260TIP3    H243272   1.061   3.415   0.117  1.0030  0.8337  0.7820
 7261TIP3   OH243273   4.640   1.044  10.896 -0.1116  0.6477  0.0029
 7261TIP3    H143274   4.721   1.081  10.933  0.1699 -1.8590  2.2064
 7261TIP3    H243275   4.670   0.996  10.818  0.4108  0.3455  0.3818
 7262TIP3   OH243276   2.249   3.119   2.279 -0.7604 -0.0531  0.3278
 7262TIP3    H143277   2.282   3.209   2.271  0.3157 -0.5322 -0.9248
 7262TIP3    H243278   2.154   3.129   2.283 -0.6427  1.1551  0.4620
 7263TIP3   OH243279   6.017   1.003   0.826  0.4831  0.0693  0.5412
 7263TIP3    H143280   6.086   0.937   0.817 -0.5383 -0.7694 -1.9453
 7263TIP3    H243281   5.937   0.958   0.801 -0.2946  2.1509 -1.0070
 7264TIP3   OH243282   4.808   1.069   3.900  0.0623  0.1574 -0.0654
 7264TIP3    H143283   4.835   1.074   3.991 -0.7887 -2.0077  0.3808
 7264TIP3    H243284   4.747   1.141   3.888  1.0566  1.1528  0.7292
 7265TIP3   OH243285   2.300   6.158  14.498 -0.5245 -0.0969  0.0455
 7265TIP3    H143286   2.263   6.162  14.586  0.8785 -0.1053  0.6800
 7265TIP3    H243287   2.286   6.246  14.462  2.7286  1.4609  2.0149
 7266TIP3   OH243288   0.175   2.620  11.626  0.2045 -0.4183  0.2090
 7266TIP3    H143289   0.165   2.688  11.560  1.0519  0.6080  1.1065
 7266TIP3    H243290   0.089   2.578  11.631  0.2306 -0.8389 -1.8424
 7267TIP3   OH243291   5.088   2.583   3.203  0.3949  0.0032  0.3516
 7267TIP3    H143292   5.161   2.568   3.262  1.3453 -1.4611 -1.1144
 7267TIP3    H243293   5.123   2.640   3.134  0.1805 -0.6787 -0.3418
 7268TIP3   OH243294   1.541   4.000  10.820  0.3326 -0.5128 -0.4916
 7268TIP3    H143295   1.629   4.016  10.854 -0.9142  0.5908  2.5064
 7268TIP3    H243296   1.544   4.033  10.730  2.7615  0.2153 -0.2154
 7269TIP3   OH243297   2.698   0.461   2.527 -0.1063 -0.1623  0.3557
 7269TIP3    H143298   2.771   0.423   2.479 -1.0947 -1.2535 -0.3391
 7269TIP3    H243299   2.696   0.414   2.610  0.7291  0.7446  0.9143
 7270TIP3   OH243300   0.454   3.245   4.140  0.4337 -0.2222  0.4601
 7270TIP3    H143301   0.365   3.269   4.166  0.4243 -1.3449  1.5338
 7270TIP3    H243302   0.454   3.255   4.044 -0.8191 -0.1428  0.4516
 7271TIP3   OH243303   0.926   4.465   0.441  0.7257  0.6048  0.5943
 7271TIP3    H143304   0.959   4.554   0.430  0.9073  0.3950 -0.7154
 7271TIP3    H243305   0.831   4.474   0.441  0.6388  0.5468 -2.5420
 7272TIP3   OH243306   6.729   2.064  12.711 -0.5575 -0.0968  0.3884
 7272TIP3    H143307   6.802   2.122  12.733  0.2714 -0.8626 -0.2753
 7272TIP3    H243308   6.747   2.035  12.622 -2.4361  0.8284 -0.3613
 7273TIP3   OH243309   5.628   2.146  10.776 -0.4724  0.6275 -0.0844
 7273TIP3    H143310   5.640   2.061  10.734 -0.2315  0.6354 -0.0286
 7273TIP3    H243311   5.715   2.186  10.777 -0.5335  0.7569  0.1483
 7274TIP3   OH243312   5.041   5.694  15.103 -0.0383 -0.1413  0.3971
 7274TIP3    H143313   5.047   5.609  15.147  0.8193  0.2008  0.9617
 7274TIP3    H243314   5.027   5.757  15.174 -1.4585  0.1266 -0.0813
 7275TIP3   OH243315   1.171   2.298  13.667  0.2938  0.0999 -0.5031
 7275TIP3    H143316   1.218   2.215  13.667  1.4152  0.6958  0.6296
 7275TIP3    H243317   1.167   2.322  13.760  1.1788  1.9533 -0.9074
 7276TIP3   OH243318   3.547   4.761   6.072  0.4764 -0.1649 -0.0586
 7276TIP3    H143319   3.538   4.693   6.140  1.4023 -0.2693 -0.0187
 7276TIP3    H243320   3.471   4.817   6.084  1.3282  0.6762  2.0577
 7277TIP3   OH243321   0.532   1.434  14.286 -0.0567 -0.1793 -1.1685
 7277TIP3    H143322   0.501   1.402  14.371 -1.9328  0.7569 -1.4392
 7277TIP3    H243323   0.619   1.395  14.275 -0.1279 -0.9818  0.7922
 7278TIP3   OH243324   5.758   3.390   3.347  0.2658 -0.0372  0.3070
 7278TIP3    H143325   5.780   3.297   3.336 -0.5847 -0.1455 -0.7538
 7278TIP3    H243326   5.722   3.396   3.435  1.1470 -0.5314  0.7195
 7279TIP3   OH243327   3.611   1.045   3.056 -0.0320 -0.8765  0.4376
 7279TIP3    H143328   3.650   0.997   3.129 -0.9010  0.2070  1.6669
 7279TIP3    H243329   3.685   1.066   2.999  0.6488 -1.8466  0.9370
 7280TIP3   OH243330   0.274   5.550   0.046  0.3365  0.1192 -0.3041
 7280TIP3    H143331   0.333   5.620   0.071  0.3102 -0.4045  1.3303
 7280TIP3    H243332   0.328   5.490  -0.006  1.2793 -0.3676  1.1924
 7281TIP3   OH243333   2.836   1.347  10.877 -0.4287 -0.6575 -0.1896
 7281TIP3    H143334   2.754   1.300  10.862 -0.3280 -0.4754 -1.3717
 7281TIP3    H243335   2.873   1.306  10.955 -0.8496 -1.8320 -0.5859
 7282TIP3   OH243336   0.286   5.662   5.448 -0.2452  0.2141  0.1858
 7282TIP3    H143337   0.280   5.631   5.358  0.7615  1.2670 -0.2701
 7282TIP3    H243338   0.200   5.698   5.467 -0.9590 -1.4238  0.2124
 7283TIP3   OH243339   6.399   1.240   3.283 -0.1863  0.4940 -0.3133
 7283TIP3    H143340   6.367   1.155   3.313  1.6146 -0.3396 -0.6466
 7283TIP3    H243341   6.482   1.252   3.329 -0.6601  2.3679  0.1582
 7284TIP3   OH243342   3.074   1.819  16.075  0.2828  0.5388  0.2765
 7284TIP3    H143343   2.981   1.799  16.084  0.1531  0.4973 -0.9926
 7284TIP3    H243344   3.094   1.872  16.152 -1.1191  1.6939 -0.0854
 7285TIP3   OH243345   4.429   2.934  17.020 -0.4607  0.3990  0.6067
 7285TIP3    H143346   4.439   3.026  16.997 -2.6344  0.4583 -0.3522
 7285TIP3    H243347   4.362   2.901  16.959  0.4078 -1.8769  0.7720
 7286TIP3   OH243348   3.170   1.928  15.311  0.0436 -0.0770 -0.7633
 7286TIP3    H143349   3.080   1.948  15.288 -0.2538  3.0625  2.2248
 7286TIP3    H243350   3.223   1.984  15.254 -0.1743  0.8227 -0.1133
 7287TIP3   OH243351   3.486   2.771   4.730  0.1897 -0.0870 -0.4214
 7287TIP3    H143352   3.464   2.720   4.808 -0.0875 -1.0481 -1.1110
 7287TIP3    H243353   3.406   2.821   4.711  0.6530  1.1030  0.5988
 7288TIP3   OH243354   0.879   0.303   3.084 -0.4567 -0.2578  0.0448
 7288TIP3    H143355   0.896   0.391   3.050 -2.9876  0.3631  0.2050
 7288TIP3    H243356   0.829   0.259   3.016  0.8162 -1.6521 -0.0519
 7289TIP3   OH243357   6.192   5.384   3.728 -0.5610 -0.2505  0.3401
 7289TIP3    H143358   6.233   5.461   3.767 -2.2189  0.9819 -0.2658
 7289TIP3    H243359   6.266   5.336   3.689  0.4503  1.3791  0.1293
 7290TIP3   OH243360   3.082   1.489   2.925 -0.0173  0.5694 -0.1759
 7290TIP3    H143361   3.114   1.569   2.884 -0.5027  0.7600 -0.1836
 7290TIP3    H243362   3.043   1.518   3.007 -2.2117  0.6568 -1.1695
 7291TIP3   OH243363   3.209   4.376  16.050  0.2798  0.5304  0.7580
 7291TIP3    H143364   3.162   4.293  16.049  2.3428 -0.7776  2.4623
 7291TIP3    H243365   3.148   4.439  16.090 -1.0020 -0.3441  0.2301
 7292TIP3   OH243366   1.492   1.340  12.263 -0.6027 -0.1481 -0.2954
 7292TIP3    H143367   1.580   1.316  12.292  0.1637  2.1345 -0.5142
 7292TIP3    H243368   1.482   1.432  12.289 -3.0432 -0.4220 -0.0407
 7293TIP3   OH243369   4.405   4.806  11.077  0.2597 -0.0839 -0.5219
 7293TIP3    H143370   4.395   4.779  11.169 -0.1601  0.7272 -0.3125
 7293TIP3    H243371   4.447   4.892  11.083  0.3648 -0.0959 -1.0983
 7294TIP3   OH243372   5.434   3.710   4.783  0.1027 -0.2174 -0.1943
 7294TIP3    H143373   5.345   3.718   4.749  0.3176  1.2954 -0.4758
 7294TIP3    H243374   5.458   3.619   4.766 -1.6639 -0.8829  0.6383
 7295TIP3   OH243375   2.075   5.249   3.596 -0.2389 -0.4496  0.2099
 7295TIP3    H143376   2.018   5.276   3.668 -2.1218 -1.5818 -0.7851
 7295TIP3    H243377   2.029   5.175   3.555  2.1677 -1.7266 -0.3857
 7296TIP3   OH243378   1.315   6.375   4.097 -0.0171 -0.3226 -0.0821
 7296TIP3    H143379   1.269   6.432   4.159  0.0034 -0.2250 -0.1568
 7296TIP3    H243380   1.278   6.397   4.012  0.9054  0.5115 -0.2795
 7297TIP3   OH243381   1.919   5.373   4.967 -0.4427  0.3234  0.0532
 7297TIP3    H143382   1.912   5.327   4.884  0.8900  0.1247  0.0227
 7297TIP3    H243383   2.008   5.409   4.967  0.1441 -0.9649  2.0158
 7298TIP3   OH243384   0.337   1.260  14.182 -0.3485  0.0796  0.1893
 7298TIP3    H143385   0.425   1.287  14.206 -1.0209  1.4984  1.2289
 7298TIP3    H243386   0.326   1.289  14.092  0.2480 -0.1210  0.0523
 7299TIP3   OH243387   6.778   3.560   3.034  0.3176  0.0885 -0.4573
 7299TIP3    H143388   6.735   3.554   2.949 -1.4351 -0.2594  0.4170
 7299TIP3    H243389   6.844   3.628   3.023 -0.0483  0.2192 -2.0195
 7300TIP3   OH243390   6.440   3.345   1.366 -0.6497 -0.0320 -0.5634
 7300TIP3    H143391   6.517   3.296   1.338 -1.1482 -1.7969  0.9882
 7300TIP3    H243392   6.470   3.436   1.370  1.4440 -0.6973  0.2763
 7301TIP3   OH243393   6.090   1.508   5.008  0.0654 -0.1647  0.1233
 7301TIP3    H143394   6.066   1.417   4.990  2.1778 -0.6528 -0.4730
 7301TIP3    H243395   6.028   1.560   4.956  0.5288 -1.3495 -1.7054
 7302TIP3   OH243396   6.074   0.076   3.056  0.4901  0.3827 -0.3546
 7302TIP3    H143397   6.046   0.143   3.119 -0.4579 -0.1586 -0.1964
 7302TIP3    H243398   6.025   0.096   2.977 -1.6522 -1.5213  0.4015
 7303TIP3   OH243399   6.561   3.163  16.501 -0.2003 -0.0218  0.0013
 7303TIP3    H143400   6.503   3.209  16.563 -0.9456 -1.8319  0.7151
 7303TIP3    H243401   6.524   3.075  16.494 -0.0361  0.0587 -2.9415
 7304TIP3   OH243402   1.363   1.610   0.429 -0.3468  0.4860  0.3828
 7304TIP3    H143403   1.385   1.542   0.365  0.0186  0.3742  0.6220
 7304TIP3    H243404   1.386   1.692   0.386 -0.6261  0.4509  0.1600
 7305TIP3   OH243405   3.332   6.785   5.450  0.2403  0.1203 -0.6384
 7305TIP3    H143406   3.399   6.853   5.446  1.3136 -0.9366 -2.7040
 7305TIP3    H243407   3.334   6.745   5.363 -1.2504 -1.6833  0.0843
 7306TIP3   OH243408   1.379   3.439  14.397  0.4269  1.0413 -0.0726
 7306TIP3    H143409   1.332   3.482  14.468  0.5374 -0.6930  1.1349
 7306TIP3    H243410   1.335   3.354  14.387  2.0994  0.1331 -0.1727
 7307TIP3   OH243411   2.618   6.792  16.782 -0.3465  0.3910  0.5133
 7307TIP3    H143412   2.692   6.844  16.750 -1.1897  1.7285  0.6586
 7307TIP3    H243413   2.658   6.716  16.825  0.8958  0.4524 -0.4928
 7308TIP3   OH243414   5.104   0.956   2.804  0.2258 -0.4677  0.1426
 7308TIP3    H143415   5.109   0.866   2.772  0.0894 -0.3413 -0.2494
 7308TIP3    H243416   5.083   0.948   2.897  0.5312 -0.8447  0.1797
 7309TIP3   OH243417   1.021   5.373   6.151  0.4034 -1.0801  0.1614
 7309TIP3    H143418   0.954   5.345   6.090  1.8565  1.0171 -2.6360
 7309TIP3    H243419   1.080   5.298   6.158 -0.7407 -1.9718  0.4671
 7310TIP3   OH243420   1.470   5.808   2.639 -0.1884 -0.1039  0.0726
 7310TIP3    H143421   1.538   5.865   2.604 -1.1249  1.4915  0.7240
 7310TIP3    H243422   1.507   5.720   2.634  0.5697  0.2914 -2.7618
 7311TIP3   OH243423   5.782   2.385   4.600  0.4499  0.6522  0.0011
 7311TIP3    H143424   5.741   2.470   4.586  1.2326  1.0327 -0.0849
 7311TIP3    H243425   5.829   2.395   4.683  1.1525  0.5578 -0.3770
 7312TIP3   OH243426   3.516   0.334   1.568  0.6210 -0.2107  0.0253
 7312TIP3    H143427   3.443   0.272   1.565 -0.6054  1.2178 -0.2022
 7312TIP3    H243428   3.545   0.331   1.660  0.1903 -0.6683  0.1538
 7313TIP3   OH243429   6.717   3.094   1.922 -0.5703 -0.2494 -0.0538
 7313TIP3    H143430   6.640   3.047   1.889  0.8301 -2.9685  0.2796
 7313TIP3    H243431   6.791   3.038   1.900  1.1811  1.4895  1.0722
 7314TIP3   OH243432   5.264   2.793  13.976  0.0822 -0.4490  0.0832
 7314TIP3    H143433   5.188   2.738  13.957  1.8876 -3.1705  0.2321
 7314TIP3    H243434   5.251   2.822  14.066 -0.2226 -1.9043  0.5290
 7315TIP3   OH243435   0.660   3.250  12.070 -0.1310  0.5452  0.0716
 7315TIP3    H143436   0.584   3.267  12.125 -0.5832 -1.5368  0.1596
 7315TIP3    H243437   0.727   3.311  12.102 -1.3548  1.5517  0.8058
 7316TIP3   OH243438   4.341   1.736   3.396  0.3213 -0.5403  0.2358
 7316TIP3    H143439   4.361   1.791   3.320  0.7277 -0.9165  0.0685
 7316TIP3    H243440   4.298   1.795   3.458 -0.8379 -0.4197 -0.6489
 7317TIP3   OH243441   1.161   4.381   3.554  0.5359  0.4616 -0.0881
 7317TIP3    H143442   1.147   4.390   3.459  0.4387  0.6326 -0.0577
 7317TIP3    H243443   1.162   4.471   3.586 -0.0897  0.3725  0.1727
 7318TIP3   OH243444   3.152   4.302   4.253 -0.3915  0.3260 -0.1096
 7318TIP3    H143445   3.243   4.291   4.279 -0.3692  0.7311  0.0022
 7318TIP3    H243446   3.106   4.325   4.334 -0.9873 -1.9188  0.2411
 7319TIP3   OH243447   4.717   2.624  12.678  0.1755  0.1333 -0.1299
 7319TIP3    H143448   4.647   2.570  12.715  0.8341 -0.2613  0.5742
 7319TIP3    H243449   4.671   2.698  12.637 -0.6075  1.3434  2.6349
 7320TIP3   OH243450   6.697   6.388  12.302 -0.0729 -0.1715  0.4026
 7320TIP3    H143451   6.732   6.384  12.213 -1.3220  0.9122 -0.1707
 7320TIP3    H243452   6.765   6.349  12.356  1.1498  0.0612 -0.9030
 7321TIP3   OH243453   1.477   0.223   5.561 -0.3489  0.0686  0.0963
 7321TIP3    H143454   1.422   0.149   5.588 -2.0961  0.8628 -1.1035
 7321TIP3    H243455   1.495   0.208   5.468 -0.8479  1.2039 -0.1993
 7322TIP3   OH243456   0.693   5.433   4.121  0.4985  0.3312 -0.5825
 7322TIP3    H143457   0.676   5.521   4.154  0.2929  0.3434 -0.7190
 7322TIP3    H243458   0.683   5.440   4.026 -0.7520 -0.1017 -0.5051
 7323TIP3   OH243459   6.103   4.330   5.217 -0.1073 -0.0936  0.2100
 7323TIP3    H143460   6.149   4.414   5.225 -1.1532  0.5555 -0.3016
 7323TIP3    H243461   6.048   4.326   5.295 -1.5062  0.6403 -0.7075
 7324TIP3   OH243462   6.458   2.403   3.033 -0.0157  0.2552 -0.3019
 7324TIP3    H143463   6.407   2.481   3.013 -0.7891  0.0540  0.7718
 7324TIP3    H243464   6.503   2.425   3.115  1.7858  0.4901 -1.3211
 7325TIP3   OH243465   3.227   3.083   6.074  0.4041 -0.3201  0.0489
 7325TIP3    H143466   3.211   2.989   6.078 -3.6811  0.1621 -0.6744
 7325TIP3    H243467   3.208   3.115   6.162 -1.2938  0.1031 -0.4327
 7326TIP3   OH243468   4.511   6.536  16.457 -0.6075  0.1955  0.1984
 7326TIP3    H143469   4.579   6.584  16.506 -1.0125  1.8165 -0.7282
 7326TIP3    H243470   4.454   6.499  16.524 -0.0688  0.7299  0.9698
 7327TIP3   OH243471   1.975   4.655   4.420  0.9858 -0.1718 -0.1662
 7327TIP3    H143472   1.907   4.720   4.403  0.6490  0.4022  2.9356
 7327TIP3    H243473   2.033   4.696   4.484  0.8446 -2.7971  1.8012
 7328TIP3   OH243474   4.929   1.590   2.694 -0.2421 -0.1775  0.3139
 7328TIP3    H143475   4.905   1.680   2.672 -1.1184 -1.0332 -2.6396
 7328TIP3    H243476   4.851   1.554   2.737 -0.6788 -0.1097 -0.4035
 7329TIP3   OH243477   2.987   1.313  11.785 -0.2196 -0.3539  0.8482
 7329TIP3    H143478   2.988   1.260  11.865  1.2124 -1.2984  0.2251
 7329TIP3    H243479   2.894   1.317  11.761 -0.5507 -0.9730  1.9415
 7330TIP3   OH243480   0.726   5.994   2.982  0.3595  0.2429  0.0518
 7330TIP3    H143481   0.722   5.974   2.888 -1.6098 -0.0670  0.1595
 7330TIP3    H243482   0.701   5.912   3.025  2.0385  0.1443  0.9146
 7331TIP3   OH243483   0.763   1.709  11.335  0.2168 -0.4024  0.4180
 7331TIP3    H143484   0.791   1.678  11.249  1.0348 -2.7941  1.4400
 7331TIP3    H243485   0.777   1.634  11.393  2.4623  1.9415  3.2265
 7332TIP3   OH243486   3.215   4.026  16.035 -0.1077 -0.3437 -0.6907
 7332TIP3    H143487   3.153   4.078  16.087 -0.7509 -0.9792 -0.8095
 7332TIP3    H243488   3.171   4.013  15.951  0.5009 -0.1875 -1.0423
 7333TIP3   OH243489   1.491   5.747   4.370 -0.5651  0.2576 -0.0574
 7333TIP3    H143490   1.526   5.836   4.368 -0.4961  0.2298 -1.8951
 7333TIP3    H243491   1.446   5.737   4.286 -0.2458 -1.5731 -0.0576
 7334TIP3   OH243492   1.306   6.130   4.186  0.4888 -0.3614  0.5386
 7334TIP3    H143493   1.337   6.220   4.182  1.9125 -0.8211  0.4319
 7334TIP3    H243494   1.242   6.123   4.116  1.1686  0.2894 -0.1737
 7335TIP3   OH243495   2.411   0.925   3.378 -0.2113 -0.0475 -0.4066
 7335TIP3    H143496   2.398   0.993   3.312  1.6299  0.1048 -0.6561
 7335TIP3    H243497   2.447   0.971   3.454  0.2463 -0.6194 -0.2726
 7336TIP3   OH243498   4.540   1.305  16.196 -0.5444 -0.0361 -0.3537
 7336TIP3    H143499   4.612   1.262  16.149 -0.6254  0.5350 -1.0214
 7336TIP3    H243500   4.546   1.396  16.170 -1.9486 -0.1048 -0.9840
 7337TIP3   OH243501   1.231   3.050   5.250  0.3956  0.0159  0.1017
 7337TIP3    H143502   1.225   3.138   5.212 -0.6777 -0.5701 -1.1540
 7337TIP3    H243503   1.202   3.061   5.340  0.1024  0.9184 -0.0933
 7338TIP3   OH243504   2.266   1.215   2.045  0.2997  0.0822 -0.0049
 7338TIP3    H143505   2.310   1.261   2.116  1.2701  1.5000 -1.4493
 7338TIP3    H243506   2.299   1.257   1.965 -3.6105  1.1655 -1.2426
 7339TIP3   OH243507   2.632   6.184  14.131  0.3668 -0.2288 -0.4099
 7339TIP3    H143508   2.557   6.229  14.171  1.0992  0.1016  0.6305
 7339TIP3    H243509   2.613   6.185  14.037 -0.9269 -0.1424 -0.1668
 7340TIP3   OH243510   6.333   2.824  12.463 -0.3158 -0.5550  0.0572
 7340TIP3    H143511   6.405   2.822  12.400  0.0632 -1.1456  0.4921
 7340TIP3    H243512   6.320   2.732  12.486 -0.0555 -0.3042  1.2667
 7341TIP3   OH243513   0.316   0.549   4.426 -0.2591 -0.0712 -0.1270
 7341TIP3    H143514   0.347   0.624   4.376  1.2399  0.2361  1.1765
 7341TIP3    H243515   0.221   0.557   4.427 -0.1245  1.7976 -0.0482
 7342TIP3   OH243516   5.672   0.780  13.468 -0.4443  0.2475  0.4530
 7342TIP3    H143517   5.633   0.789  13.381  0.1858 -0.1426  0.1189
 7342TIP3    H243518   5.605   0.736  13.520 -0.7155  0.2166  0.0812
 7343TIP3   OH243519   2.737   0.090  14.309 -0.5475  0.1010 -0.3023
 7343TIP3    H143520   2.737   0.023  14.378 -2.8789  1.0073  0.6714
 7343TIP3    H243521   2.736   0.041  14.227  0.6253 -1.0004  0.2966
 7344TIP3   OH243522   3.584   2.007   4.971 -0.4332 -0.6787  0.2817
 7344TIP3    H143523   3.631   2.067   5.028 -0.5173 -1.5232  1.2819
 7344TIP3    H243524   3.652   1.955   4.928 -0.3927 -1.1368  0.8738
 7345TIP3   OH243525   3.729   0.419   1.221  0.0219 -0.2908 -0.2186
 7345TIP3    H143526   3.646   0.455   1.252 -0.6776 -2.0168  0.0116
 7345TIP3    H243527   3.735   0.449   1.130 -0.1725  0.9679  0.1674
 7346TIP3   OH243528   3.136   2.814   5.810  0.1926 -0.3684 -0.2332
 7346TIP3    H143529   3.107   2.904   5.823  0.2034 -0.5439  1.1125
 7346TIP3    H243530   3.199   2.799   5.880 -0.4819 -1.7144  0.1163
 7347TIP3   OH243531   3.612   5.674   3.513 -0.2847 -0.9763  0.4932
 7347TIP3    H143532   3.603   5.732   3.588 -0.1926  1.3730 -1.2078
 7347TIP3    H243533   3.706   5.658   3.506 -0.0344  0.6421 -0.3619
 7348TIP3   OH243534   6.237   3.632   6.189  0.4432  0.1304  0.0214
 7348TIP3    H143535   6.178   3.707   6.190  0.2370 -0.0361  0.4210
 7348TIP3    H243536   6.217   3.587   6.106 -2.4983 -1.8952  1.6330
 7349TIP3   OH243537   4.225   1.754  12.238 -0.4299 -0.2496  0.4041
 7349TIP3    H143538   4.148   1.789  12.283 -0.6024 -0.9391  0.6663
 7349TIP3    H243539   4.206   1.765  12.145 -0.2362  0.8395  0.4828
 7350TIP3   OH243540   4.578   0.685  12.410  0.2531 -0.7307 -0.2158
 7350TIP3    H143541   4.620   0.615  12.460  0.6768 -0.6582 -0.4567
 7350TIP3    H243542   4.499   0.706  12.459 -0.0716 -1.6299 -0.3431
 7351TIP3   OH243543   3.775   5.149  13.449 -0.1569  0.8723  0.0302
 7351TIP3    H143544   3.814   5.230  13.483 -0.1544  0.9602 -0.1845
 7351TIP3    H243545   3.808   5.081  13.508 -1.5216  1.2322  1.2624
 7352TIP3   OH243546   3.366   2.968  15.370 -0.4442  0.5245  0.7113
 7352TIP3    H143547   3.281   2.979  15.328 -0.0255 -0.6466 -0.5110
 7352TIP3    H243548   3.375   2.873  15.380  1.3055  0.5172 -0.4824
 7353TIP3   OH243549   3.791   0.714  14.309 -0.1713  0.3925 -0.0842
 7353TIP3    H143550   3.744   0.789  14.347 -1.4534 -0.6685  0.4995
 7353TIP3    H243551   3.723   0.650  14.290  0.9006 -0.6319 -0.5920
 7354TIP3   OH243552   0.458   2.680   1.614  0.1949  0.5157  0.0072
 7354TIP3    H143553   0.380   2.655   1.663  1.3865 -2.0800  0.7931
 7354TIP3    H243554   0.446   2.643   1.527  0.3647  0.4449  0.0119
 7355TIP3   OH243555   2.816   2.951  13.964 -0.1055  0.6011  0.0555
 7355TIP3    H143556   2.873   2.906  13.901  1.3326  2.7038 -0.2299
 7355TIP3    H243557   2.816   2.894  14.041  4.2039  1.4143  0.9012
 7356TIP3   OH243558   1.912   3.886  12.671  0.6172  0.2686  0.1186
 7356TIP3    H143559   1.851   3.955  12.697  0.1422  0.1713 -0.6959
 7356TIP3    H243560   1.905   3.882  12.575 -0.2367 -1.6703  0.2042
 7357TIP3   OH243561   1.931   5.164   4.755  0.2594  0.5460  0.4780
 7357TIP3    H143562   1.873   5.097   4.720  0.6154  0.0465  0.8317
 7357TIP3    H243563   1.922   5.238   4.695  0.9669 -0.3361 -0.7541
 7358TIP3   OH243564   4.350   3.415   3.707  0.2955 -0.4514  0.7864
 7358TIP3    H143565   4.322   3.507   3.715  0.8257 -0.2847  0.8096
 7358TIP3    H243566   4.393   3.411   3.622 -0.5573 -0.9155  0.3690
 7359TIP3   OH243567   0.704   2.512  14.053  0.2901 -0.0481  0.2675
 7359TIP3    H143568   0.784   2.549  14.091  1.3109 -2.8585  1.0405
 7359TIP3    H243569   0.730   2.428  14.017 -2.4439 -1.4849  1.3086
 7360TIP3   OH243570   0.034   6.532   2.583  0.0822  0.4155  0.6206
 7360TIP3    H143571   0.004   6.517   2.673 -1.6249 -0.7083 -0.0776
 7360TIP3    H243572   0.070   6.447   2.556  0.4918  0.7185  0.2060
 7361TIP3   OH243573   3.911   0.882  11.859 -0.1684 -0.2817 -0.3389
 7361TIP3    H143574   3.854   0.928  11.921  1.5969 -0.7892  1.7771
 7361TIP3    H243575   3.851   0.839  11.798 -1.9670  3.6669 -1.7098
 7362TIP3   OH243576   3.006   5.984  11.018 -0.7012 -0.1292 -0.2014
 7362TIP3    H143577   2.981   5.912  10.961  0.7356  1.2682 -2.7485
 7362TIP3    H243578   2.963   6.061  10.981 -0.6523  0.6779  1.3151
 7363TIP3   OH243579   0.113   4.020   0.144 -0.1296  0.3780 -0.4308
 7363TIP3    H143580   0.127   4.103   0.190  1.9687  1.2489 -2.4108
 7363TIP3    H243581   0.188   3.966   0.168 -0.2767 -0.0498 -0.9156
 7364TIP3   OH243582   0.756   2.697   1.288 -0.0850  0.0094 -0.2176
 7364TIP3    H143583   0.783   2.770   1.233 -0.4837 -0.2900 -0.8219
 7364TIP3    H243584   0.752   2.622   1.229 -0.1174 -0.4115  0.3025
 7365TIP3   OH243585   4.119   5.938  10.822 -0.0650  0.0148 -0.4683
 7365TIP3    H143586   4.200   5.888  10.828  0.2247  0.6048  1.0257
 7365TIP3    H243587   4.052   5.873  10.800  0.5203 -0.7901  0.0761
 7366TIP3   OH243588   5.672   6.756   6.054  0.2405  0.0121  0.3219
 7366TIP3    H143589   5.639   6.774   5.966 -2.5710 -0.6865  1.1289
 7366TIP3    H243590   5.704   6.840   6.085 -1.7774  1.0621 -0.2221
 7367TIP3   OH243591   5.199   0.618   4.242 -0.7631 -0.6941 -0.1895
 7367TIP3    H143592   5.161   0.554   4.181  0.4766 -1.8236  0.1699
 7367TIP3    H243593   5.284   0.640   4.203 -1.9787  2.4590 -1.4507
 7368TIP3   OH243594   4.658   0.996  14.272 -0.0739 -0.4432  0.3997
 7368TIP3    H143595   4.716   1.051  14.325 -2.0318  1.5285  0.6628
 7368TIP3    H243596   4.604   0.949  14.335  0.4929 -1.4582  0.1493
 7369TIP3   OH243597   5.849   5.638   3.239 -0.3745  0.2185 -0.6795
 7369TIP3    H143598   5.918   5.670   3.297 -0.8694  0.8076 -0.4108
 7369TIP3    H243599   5.794   5.714   3.222 -0.9905 -0.2559 -0.8538
 7370TIP3   OH243600   6.761   3.470  12.832  0.4201  0.2350  0.0058
 7370TIP3    H143601   6.821   3.485  12.759  1.5979 -0.9160  0.7011
 7370TIP3    H243602   6.773   3.547  12.888  0.3888  0.5569 -0.4234
 7371TIP3   OH243603   0.278   1.412  13.634  0.6390 -0.1981  0.0764
 7371TIP3    H143604   0.363   1.372  13.614  0.4288 -0.2777 -0.7020
 7371TIP3    H243605   0.292   1.506  13.622  0.5212 -0.2427 -0.4688
 7372TIP3   OH243606   2.447   6.766  14.210 -0.0318  0.0482  0.4591
 7372TIP3    H143607   2.539   6.768  14.182  0.5376  0.2839  2.1949
 7372TIP3    H243608   2.409   6.693  14.161  1.0963 -0.0765 -0.2731
 7373TIP3   OH243609   1.575   3.816  16.523 -0.7745 -0.4371  0.5997
 7373TIP3    H143610   1.491   3.850  16.492 -0.4938  0.2722  0.6015
 7373TIP3    H243611   1.555   3.776  16.608 -1.0665 -0.0463  0.7158
 7374TIP3   OH243612   1.312   1.214   5.231 -0.4046  0.1340 -0.2012
 7374TIP3    H143613   1.370   1.141   5.251 -0.3072  0.6778  1.7038
 7374TIP3    H243614   1.252   1.219   5.306 -1.3156  1.1401 -0.9543
 7375TIP3   OH243615   4.266   2.533  14.741 -0.0113  0.4419 -0.3285
 7375TIP3    H143616   4.294   2.445  14.766  2.8918  0.8834 -1.6092
 7375TIP3    H243617   4.270   2.534  14.646 -1.2776  1.6032 -0.4089
 7376TIP3   OH243618   1.817   4.753  10.526 -0.1605  0.2120 -0.5882
 7376TIP3    H143619   1.844   4.670  10.563 -1.1575  0.0844 -0.1096
 7376TIP3    H243620   1.888   4.814  10.548 -1.0971  0.3889  2.4502
 7377TIP3   OH243621   2.607   6.449  16.190 -0.1947  0.4012  0.0951
 7377TIP3    H143622   2.602   6.361  16.227  0.7737  0.0676 -0.5404
 7377TIP3    H243623   2.558   6.442  16.108 -1.1955  0.7990  0.6343
 7378TIP3   OH243624   5.754   1.399  14.874  0.4035  0.1954 -0.6818
 7378TIP3    H143625   5.816   1.455  14.827  0.4237 -1.1400 -2.3248
 7378TIP3    H243626   5.669   1.442  14.862  0.6542  0.7510 -0.4914
 7379TIP3   OH243627   6.794   4.327   6.061 -0.1825 -0.2945 -0.2323
 7379TIP3    H143628   6.762   4.413   6.090  0.5877 -0.3435  0.8193
 7379TIP3    H243629   6.730   4.265   6.096 -1.2832 -0.1276 -1.8097
 7380TIP3   OH243630   3.656   4.029  14.341 -0.2982  0.3572  0.5403
 7380TIP3    H143631   3.736   3.981  14.320 -0.2562  1.0690 -1.0510
 7380TIP3    H243632   3.686   4.103  14.393  0.1560  0.8363 -0.3729
 7381TIP3   OH243633   5.595   4.801  15.600 -0.4428  0.1287  0.2503
 7381TIP3    H143634   5.622   4.710  15.609  2.2876  0.9247  0.8666
 7381TIP3    H243635   5.592   4.817  15.506  2.6679  0.2974  0.0915
 7382TIP3   OH243636   4.376   1.789  15.782 -0.0949 -0.1753 -0.7917
 7382TIP3    H143637   4.362   1.874  15.740  1.2400  0.1282 -0.6596
 7382TIP3    H243638   4.313   1.731  15.740 -0.8692  0.8220 -1.0495
 7383TIP3   OH243639   5.522   2.045   3.573 -0.1587 -0.0537  0.0349
 7383TIP3    H143640   5.557   2.035   3.484  0.0838  0.5424  0.0559
 7383TIP3    H243641   5.566   2.123   3.607 -1.0712  0.3703  0.2796
 7384TIP3   OH243642   5.561   0.523   5.374 -0.1880 -0.1765 -0.1160
 7384TIP3    H143643   5.501   0.570   5.316 -1.8276  1.2660  2.5270
 7384TIP3    H243644   5.645   0.566   5.362 -0.8918  1.2163 -0.2358
 7385TIP3   OH243645   1.520   5.930   3.871 -0.3745 -0.0488  0.2135
 7385TIP3    H143646   1.599   5.879   3.890 -1.3828 -0.8379  2.6908
 7385TIP3    H243647   1.549   6.021   3.871  0.5099 -0.3078  1.3692
 7386TIP3   OH243648   5.341   3.646   5.640  0.2538  0.0351  0.3487
 7386TIP3    H143649   5.264   3.687   5.678 -1.2912  0.2508 -2.6624
 7386TIP3    H243650   5.359   3.697   5.561  0.7017 -2.6523 -1.4274
 7387TIP3   OH243651   0.335   0.285  10.090  0.0801 -0.1229  0.0015
 7387TIP3    H143652   0.313   0.306  10.000 -0.9396 -0.8746  0.0625
 7387TIP3    H243653   0.268   0.329  10.142  1.8343  2.0702  0.5702
 7388TIP3   OH243654   1.703   1.640  14.912 -0.3917 -0.4618 -0.8705
 7388TIP3    H143655   1.691   1.564  14.854  1.1633  0.4494 -2.4477
 7388TIP3    H243656   1.781   1.619  14.964 -0.1283 -0.0690 -1.1055
 7389TIP3   OH243657   5.390   4.957   5.098  0.0623 -0.6028  0.4562
 7389TIP3    H143658   5.451   4.967   5.170  2.5938  1.4512 -1.7772
 7389TIP3    H243659   5.426   4.886   5.044 -0.8986 -1.0177  0.3254
 7390TIP3   OH243660   2.482   1.048   1.638 -0.4894  0.2000 -0.9114
 7390TIP3    H143661   2.499   1.095   1.556 -1.7734  0.4738 -1.0318
 7390TIP3    H243662   2.394   1.011   1.628 -0.7722  0.4380  0.4296
 7391TIP3   OH243663   2.111   2.694  16.563 -0.0180  0.0342 -0.5408
 7391TIP3    H143664   2.098   2.607  16.601  2.0105  0.3634  1.0704
 7391TIP3    H243665   2.086   2.754  16.633  1.1297  0.7021 -0.6930
 7392TIP3   OH243666   1.473   0.522   6.046  0.4022 -0.0759  0.0359
 7392TIP3    H143667   1.419   0.568   5.981 -2.4261 -0.5619  1.8507
 7392TIP3    H243668   1.536   0.588   6.075 -0.8516  1.3878 -0.3930
 7393TIP3   OH243669   0.885   4.561   2.526  0.1612 -0.3502  0.1601
 7393TIP3    H143670   0.832   4.641   2.524  0.7170  0.0447  0.7802
 7393TIP3    H243671   0.824   4.491   2.503 -0.5368  0.1404  0.4899
 7394TIP3   OH243672   1.930   5.012  14.064  0.2373 -0.2268  0.1952
 7394TIP3    H143673   1.965   4.956  14.134  1.2965 -0.7512 -0.7315
 7394TIP3    H243674   1.991   5.086  14.059 -0.8977  0.8127  1.0960
 7395TIP3   OH243675   2.835   6.117  15.857  0.3723  0.1371  0.5025
 7395TIP3    H143676   2.768   6.111  15.789  0.4084 -0.3423  0.5081
 7395TIP3    H243677   2.883   6.034  15.852  0.5421  0.2045  0.9383
 7396TIP3   OH243678   5.421   3.122   0.293 -0.9961  0.0789 -0.7661
 7396TIP3    H143679   5.497   3.164   0.333 -0.0904 -0.7128 -1.6158
 7396TIP3    H243680   5.346   3.161   0.338 -0.0636 -0.1130  1.0409
 7397TIP3   OH243681   5.712   5.795  12.301  0.4124  0.2138  0.2365
 7397TIP3    H143682   5.688   5.710  12.264  1.8015 -0.2450  0.2987
 7397TIP3    H243683   5.742   5.774  12.390  0.9151  0.7362  0.1952
 7398TIP3   OH243684   5.918   6.430  11.154  0.4141  0.5904  0.0837
 7398TIP3    H143685   5.999   6.403  11.112  1.2457  1.6138  0.9811
 7398TIP3    H243686   5.856   6.443  11.082  0.6611 -1.3521 -0.5391
 7399TIP3   OH243687   1.776   4.349  11.744 -0.4471  0.1183  0.2726
 7399TIP3    H143688   1.831   4.358  11.822  1.4096 -0.6098 -0.9077
 7399TIP3    H243689   1.707   4.288  11.771  0.3250 -0.3340  1.2814
 7400TIP3   OH243690   1.493   6.529  12.432 -0.2387 -0.0758  0.1012
 7400TIP3    H143691   1.420   6.591  12.443 -0.2932 -0.2260  0.6092
 7400TIP3    H243692   1.571   6.584  12.431 -0.3786  0.1337 -0.9229
 7401TIP3   OH243693   4.688   5.891  12.866 -0.1075  0.4558 -0.3954
 7401TIP3    H143694   4.757   5.920  12.806  0.4544  1.1778  0.5668
 7401TIP3    H243695   4.734   5.872  12.947 -0.6300 -2.0241 -0.6016
 7402TIP3   OH243696   5.715   2.606  16.437 -0.1247  0.3753  0.0740
 7402TIP3    H143697   5.781   2.645  16.494  1.3566 -2.0286  0.1376
 7402TIP3    H243698   5.737   2.639  16.350  0.4016  0.5529  0.2676
 7403TIP3   OH243699   0.017   6.746  14.307  0.2913 -0.2638  0.4784
 7403TIP3    H143700   0.110   6.770  14.305  0.3184  0.0570  2.9397
 7403TIP3    H243701   0.009   6.687  14.381 -1.4519 -0.4730  0.1678
 7404TIP3   OH243702   3.173   2.628   0.188 -0.4260 -0.2581 -0.4579
 7404TIP3    H143703   3.190   2.722   0.196  1.8268 -0.5588 -1.0629
 7404TIP3    H243704   3.141   2.617   0.099 -0.2960 -0.1057 -0.5249
 7405TIP3   OH243705   5.557   1.179   2.471  0.2656  1.0090 -0.2146
 7405TIP3    H143706   5.543   1.272   2.455 -1.5715  1.2442  2.2220
 7405TIP3    H243707   5.625   1.176   2.538  2.3215  0.4052 -2.2241
 7406TIP3   OH243708   5.671   4.787   6.549 -0.2962  0.7525  0.1298
 7406TIP3    H143709   5.697   4.705   6.506  0.2744 -0.7146  3.0325
 7406TIP3    H243710   5.752   4.838   6.552 -0.2298  0.6660 -0.1422
 7407TIP3   OH243711   4.994   4.175  11.517 -0.1692  0.2649  0.4809
 7407TIP3    H143712   4.933   4.148  11.449 -0.9165  3.4170 -0.2674
 7407TIP3    H243713   4.939   4.216  11.584  0.5158 -2.8680  3.2256
 7408TIP3   OH243714   5.299   5.557  14.972 -0.7660  0.0200 -0.0569
 7408TIP3    H143715   5.360   5.628  14.992  0.4847 -0.7797 -0.8577
 7408TIP3    H243716   5.285   5.513  15.056  1.1663 -0.8251 -0.1328
 7409TIP3   OH243717   2.039   4.110   3.370 -0.2392 -0.1292 -0.6636
 7409TIP3    H143718   1.984   4.102   3.448  0.8537  0.1879  0.1565
 7409TIP3    H243719   1.985   4.074   3.299 -0.8692 -1.3475  0.3934
 7410TIP3   OH243720   3.438   5.907  11.449 -0.3274 -0.0550  0.0728
 7410TIP3    H143721   3.394   5.842  11.393  1.3447 -0.1107 -1.2306
 7410TIP3    H243722   3.368   5.939  11.507 -2.1711  0.0636 -2.0660
 7411TIP3   OH243723   6.063   2.401   1.833 -0.3624 -0.6862 -0.2569
 7411TIP3    H143724   6.152   2.412   1.801  0.2305 -1.3958  1.0882
 7411TIP3    H243725   6.008   2.437   1.763  0.9388 -0.7394 -1.3432
 7412TIP3   OH243726   6.078   6.576   2.577 -0.4377 -0.2112 -0.2829
 7412TIP3    H143727   6.075   6.663   2.538 -1.1397 -0.2236 -0.2694
 7412TIP3    H243728   6.002   6.530   2.539  0.6216 -1.2252 -1.2440
 7413TIP3   OH243729   2.870   5.575  12.489 -0.0501 -0.2034 -0.1145
 7413TIP3    H143730   2.855   5.660  12.447 -1.3698 -0.4891 -0.2538
 7413TIP3    H243731   2.946   5.539  12.442  0.2502  0.7018 -0.3488
 7414TIP3   OH243732   0.270   1.240  16.356 -0.1613 -0.4562 -0.0506
 7414TIP3    H143733   0.179   1.213  16.370 -0.0151 -1.2082 -0.5302
 7414TIP3    H243734   0.264   1.312  16.293 -0.8105  2.7679  3.3292
 7415TIP3   OH243735   3.910   4.962  14.330 -0.3426 -0.0615  0.1164
 7415TIP3    H143736   3.837   5.023  14.335  0.3949  1.0158 -1.3611
 7415TIP3    H243737   3.973   5.005  14.272 -0.2609 -2.7132 -1.9799
 7416TIP3   OH243738   3.707   5.912  15.058  0.2063  0.2715 -0.1686
 7416TIP3    H143739   3.707   5.933  14.965 -0.9307  0.3848 -0.1580
 7416TIP3    H243740   3.787   5.952  15.092  0.8025 -0.0566 -1.1522
 7417TIP3   OH243741   6.200   2.886  16.814 -0.0575 -0.3989 -0.0248
 7417TIP3    H143742   6.249   2.882  16.896  0.2418  2.8480  0.0863
 7417TIP3    H243743   6.126   2.943  16.833  0.8841  1.7919 -2.3184
 7418TIP3   OH243744   4.346   0.656  17.013  0.1311  0.0999  0.6194
 7418TIP3    H143745   4.366   0.570  17.049 -0.8586 -0.8871 -1.0934
 7418TIP3    H243746   4.425   0.682  16.967  0.1271 -0.3014  0.3848
 7419TIP3   OH243747   6.652   5.976  11.476 -0.9541  0.2433 -0.5269
 7419TIP3    H143748   6.661   5.910  11.407  0.1064 -0.3677  0.1696
 7419TIP3    H243749   6.598   5.934  11.543 -0.6225  0.2322 -0.2643
 7420TIP3   OH243750   5.244   2.372   5.185  0.1686  0.7224 -0.5375
 7420TIP3    H143751   5.340   2.371   5.189  0.2668 -1.0123 -2.1806
 7420TIP3    H243752   5.224   2.438   5.119  0.3249 -0.0406 -1.3637
 7421TIP3   OH243753   4.257   6.291  13.086 -0.4573  0.3086 -0.4513
 7421TIP3    H143754   4.346   6.297  13.119 -0.0107  1.0002 -1.7167
 7421TIP3    H243755   4.209   6.247  13.156  0.5061  1.3604  0.9439
 7422TIP3   OH243756   2.961   3.740   5.430  0.1890  0.4820 -0.2578
 7422TIP3    H143757   2.957   3.780   5.517  1.7988 -0.0086  0.0610
 7422TIP3    H243758   3.014   3.800   5.378 -0.4645  0.5917 -0.8124
 7423TIP3   OH243759   4.406   6.573  11.748  0.4750 -0.1157  0.0535
 7423TIP3    H143760   4.406   6.635  11.675  1.1566 -1.5963 -1.2627
 7423TIP3    H243761   4.495   6.538  11.749  0.0643 -1.1742  0.6687
 7424TIP3   OH243762   1.437   0.796  11.831 -0.0835 -0.1664 -0.0839
 7424TIP3    H143763   1.378   0.855  11.878 -0.0854 -0.1922 -0.0537
 7424TIP3    H243764   1.520   0.802  11.877 -0.3443 -0.9127  0.5072
 7425TIP3   OH243765   1.846   5.090  14.522 -0.1949 -0.1875  0.2397
 7425TIP3    H143766   1.880   5.177  14.543 -0.8348  0.1134  0.0819
 7425TIP3    H243767   1.899   5.030  14.574  0.3618  0.2828  0.2288
 7426TIP3   OH243768   4.544   4.982  11.680 -0.3981 -0.2911  0.3797
 7426TIP3    H143769   4.513   5.072  11.670 -1.4701 -0.6544  0.3096
 7426TIP3    H243770   4.542   4.947  11.591 -0.8702 -0.6603  0.5338
 7427TIP3   OH243771   1.730   6.838   6.552  0.4177 -0.3171  0.4647
 7427TIP3    H143772   1.644   6.876   6.534  0.5366 -0.9901 -1.8709
 7427TIP3    H243773   1.792   6.897   6.508  0.9339 -1.0558  0.1761
 7428TIP3   OH243774   0.996   1.853  15.398 -0.2366 -0.2732 -0.2860
 7428TIP3    H143775   0.971   1.763  15.416 -0.5508 -0.5809 -2.0906
 7428TIP3    H243776   0.916   1.904  15.415 -1.1689 -0.8197 -2.6710
 7429TIP3   OH243777   5.316   4.436   5.149  0.4289  0.0447 -0.1755
 7429TIP3    H143778   5.308   4.517   5.199  0.9319  0.6075 -0.9793
 7429TIP3    H243779   5.310   4.464   5.057 -1.3079 -1.0435 -0.4522
 7430TIP3   OH243780   0.349   6.476   2.603  0.6022 -0.0146 -0.6322
 7430TIP3    H143781   0.407   6.400   2.601 -1.1443 -1.4535  0.5470
 7430TIP3    H243782   0.284   6.458   2.535  0.4603  0.6887 -0.6903
 7431TIP3   OH243783   4.429   1.602   0.073 -0.1975 -0.3997 -0.2164
 7431TIP3    H143784   4.434   1.697   0.068 -1.2491  0.0338  3.5990
 7431TIP3    H243785   4.519   1.571   0.060  0.5745  1.3197  0.7984
 7432TIP3   OH243786   3.158   4.938  13.837  0.3233 -0.1311  0.1884
 7432TIP3    H143787   3.068   4.933  13.804  0.3994  0.0773 -0.0538
 7432TIP3    H243788   3.148   4.956  13.931  0.1105 -0.2036  0.1799
 7433TIP3   OH243789   1.104   1.483   1.468  0.5584  0.6090  0.1335
 7433TIP3    H143790   1.111   1.525   1.383  2.0863  0.3293  0.0966
 7433TIP3    H243791   1.181   1.426   1.474 -0.2517 -0.4568  1.1185
 7434TIP3   OH243792   2.186   6.067   1.868 -0.2364 -0.0226 -0.3578
 7434TIP3    H143793   2.188   6.086   1.774  0.8588 -1.5247 -0.6603
 7434TIP3    H243794   2.278   6.061   1.893 -0.3157  3.9238  1.6512
 7435TIP3   OH243795   2.864   2.723  15.791 -0.0437 -0.4449  0.2484
 7435TIP3    H143796   2.806   2.647  15.787  0.3881 -0.7489 -0.5905
 7435TIP3    H243797   2.907   2.725  15.706  0.6258  0.2152  0.5846
 7436TIP3   OH243798   5.262   6.633   3.914  0.2530  0.1782 -0.1260
 7436TIP3    H143799   5.263   6.553   3.965 -0.2935  0.7408  0.8062
 7436TIP3    H243800   5.339   6.682   3.943 -0.9631  1.2511  1.4591
 7437TIP3   OH243801   4.143   0.108  13.571 -0.1439  0.2810  0.6335
 7437TIP3    H143802   4.211   0.159  13.615 -0.3169 -0.7267  2.1439
 7437TIP3    H243803   4.118   0.041  13.634 -2.2805  0.3671 -0.0241
 7438TIP3   OH243804   5.404   4.245  12.586 -0.4736 -0.1993 -0.0519
 7438TIP3    H143805   5.497   4.236  12.566 -0.2535 -0.1005  0.8776
 7438TIP3    H243806   5.361   4.176  12.535 -0.1534  1.0311 -2.1174
 7439TIP3   OH243807   2.226   1.386  12.672 -0.0969 -0.1065 -0.4382
 7439TIP3    H143808   2.235   1.404  12.578 -1.3243  1.6467 -0.2642
 7439TIP3    H243809   2.172   1.457  12.705 -0.5488 -1.2496  1.4354
 7440TIP3   OH243810   2.827   0.328  13.598  0.2345 -0.2973  0.5615
 7440TIP3    H143811   2.769   0.352  13.670 -1.2536 -2.0348  0.0268
 7440TIP3    H243812   2.903   0.289  13.640  0.9613  1.7569  1.2663
 7441TIP3   OH243813   1.040   3.219   6.201 -0.4620 -0.6967 -0.2084
 7441TIP3    H143814   1.025   3.313   6.211 -0.7111 -0.5799 -1.4336
 7441TIP3    H243815   1.128   3.205   6.236  0.2062  0.2875 -1.4133
 7442TIP3   OH243816   6.371   2.058  11.773  0.2645  0.0324  0.0212
 7442TIP3    H143817   6.282   2.030  11.793 -0.2065  1.4366 -0.0123
 7442TIP3    H243818   6.402   1.993  11.709 -0.4539 -0.8844  0.5678
 7443TIP3   OH243819   1.841   0.211  12.026 -0.0650  0.2613  0.2507
 7443TIP3    H143820   1.892   0.193  12.105 -2.1927 -0.5861  1.5128
 7443TIP3    H243821   1.824   0.125  11.989  1.6080  0.6872 -1.6819
 7444TIP3   OH243822   1.865   1.564   5.750  0.4740 -0.2613 -0.4790
 7444TIP3    H143823   1.807   1.530   5.818 -0.3471  0.7910 -0.6449
 7444TIP3    H243824   1.811   1.624   5.699  1.2877 -0.4622 -1.6044
 7445TIP3   OH243825   0.454   5.102  13.275  0.2150  0.2357 -0.1522
 7445TIP3    H143826   0.502   5.090  13.357 -0.7188 -1.5557  0.2012
 7445TIP3    H243827   0.366   5.130  13.303 -0.4431 -1.4275 -0.4015
 7446TIP3   OH243828   3.199   4.533   5.254  0.2119 -0.4435 -0.0238
 7446TIP3    H143829   3.208   4.498   5.343 -0.8985 -2.1130 -0.5256
 7446TIP3    H243830   3.152   4.615   5.265 -2.0297 -1.7481  0.7866
 7447TIP3   OH243831   2.273   1.907   2.646 -0.2764  0.2936 -0.0234
 7447TIP3    H143832   2.256   1.839   2.580  0.2291  0.2515 -0.1187
 7447TIP3    H243833   2.202   1.970   2.635 -0.2646  0.2258 -0.5293
 7448TIP3   OH243834   2.398   1.165   1.178  0.3983 -0.2115  0.2376
 7448TIP3    H143835   2.379   1.192   1.268  1.2936  2.4214 -0.2775
 7448TIP3    H243836   2.331   1.100   1.158 -2.4463  2.1245  1.4544
 7449TIP3   OH243837   1.035   5.565   1.835 -0.0007 -0.3035  0.3539
 7449TIP3    H143838   0.956   5.512   1.835 -0.9117  0.9280 -1.8895
 7449TIP3    H243839   1.018   5.635   1.899 -0.4370 -0.4330  0.3773
 7450TIP3   OH243840   5.284   2.826   6.067  0.0604 -0.1209  0.1539
 7450TIP3    H143841   5.204   2.856   6.023  0.3439 -1.2379 -1.1584
 7450TIP3    H243842   5.355   2.863   6.015  0.4325  1.1259  1.4969
 7451TIP3   OH243843   5.906   4.836   1.905 -0.2590 -0.4596  0.2804
 7451TIP3    H143844   5.983   4.885   1.935 -0.8842 -0.0509  1.2869
 7451TIP3    H243845   5.833   4.897   1.917 -0.6837 -0.6358 -1.2058
 7452TIP3   OH243846   3.777   6.721   2.906 -0.4571 -0.6827  0.6011
 7452TIP3    H143847   3.766   6.815   2.921 -1.5754 -0.2756 -2.0651
 7452TIP3    H243848   3.699   6.681   2.943 -0.6787 -0.3642  0.4846
 7453TIP3   OH243849   3.378   4.171   3.249  0.3932 -0.0788  0.3758
 7453TIP3    H143850   3.284   4.188   3.249  0.2432 -0.8939  0.7609
 7453TIP3    H243851   3.386   4.077   3.235  1.1680  0.0472 -0.0983
 7454TIP3   OH243852   1.907   4.936  12.540 -0.2250 -0.1335 -0.1270
 7454TIP3    H143853   1.896   4.985  12.621 -0.2076  0.4925 -0.4933
 7454TIP3    H243854   1.895   5.002  12.471  1.2808 -0.3353 -0.6114
 7455TIP3   OH243855   1.561   6.847  14.644  0.2598 -0.7179  0.0212
 7455TIP3    H143856   1.628   6.799  14.596  1.3073  0.9117 -0.2523
 7455TIP3    H243857   1.530   6.914  14.582  0.7475  0.6358  1.1745
 7456TIP3   OH243858   6.003   0.623   4.600  0.2259  0.1118 -0.0583
 7456TIP3    H143859   6.047   0.667   4.527 -0.0447 -1.9213 -1.5253
 7456TIP3    H243860   6.014   0.529   4.582 -2.8799 -0.4971  0.6290
 7457TIP3   OH243861   0.989   2.010  11.376  0.2104 -0.1762 -0.5211
 7457TIP3    H143862   0.955   2.023  11.287  1.1720 -3.0128 -1.4145
 7457TIP3    H243863   0.918   1.968  11.423  0.1151  0.2259 -0.3054
 7458TIP3   OH243864   2.853   0.287  15.904  0.9966  0.1851  0.3080
 7458TIP3    H143865   2.796   0.211  15.917  1.7760 -0.8003 -1.5262
 7458TIP3    H243866   2.794   0.358  15.878  0.5381 -0.9386 -2.0297
 7459TIP3   OH243867   6.151   1.478  16.245  0.4862  0.5498 -0.3078
 7459TIP3    H143868   6.211   1.496  16.173  0.0702 -0.1730 -0.8477
 7459TIP3    H243869   6.172   1.544  16.311  2.4662 -0.1995 -0.1237
 7460TIP3   OH243870   3.878   2.954  13.191 -0.3151 -0.1134  0.7024
 7460TIP3    H143871   3.919   3.013  13.129 -1.7020  0.3907  0.2235
 7460TIP3    H243872   3.895   2.866  13.157  0.0236  0.1020  0.3190
 7461TIP3   OH243873   3.491   6.327   0.097  0.5715  0.5057 -0.0939
 7461TIP3    H143874   3.476   6.377   0.177 -0.6177 -0.1195  0.0882
 7461TIP3    H243875   3.557   6.262   0.120 -0.4715 -0.2964  0.6433
 7462TIP3   OH243876   0.260   2.433  12.070 -0.4902  0.1084 -0.1155
 7462TIP3    H143877   0.305   2.352  12.044 -2.3452 -1.5365  1.4444
 7462TIP3    H243878   0.262   2.431  12.166 -1.0020  1.6956 -0.0479
 7463TIP3   OH243879   2.543   4.818   1.941 -0.4013 -0.2507  0.3341
 7463TIP3    H143880   2.499   4.748   1.893  0.9965 -0.0337 -1.3702
 7463TIP3    H243881   2.545   4.788   2.032 -0.5435 -2.0554 -0.2272
 7464TIP3   OH243882   0.818   5.649   3.550  0.2349  0.1101  0.0888
 7464TIP3    H143883   0.881   5.602   3.603  2.2261  2.5977  0.1278
 7464TIP3    H243884   0.807   5.595   3.471  1.7885 -0.7874  0.4603
 7465TIP3   OH243885   5.100   4.602   5.866 -0.4806  0.3090 -0.0139
 7465TIP3    H143886   5.134   4.663   5.801 -0.0267  0.9784  0.8236
 7465TIP3    H243887   5.165   4.533   5.871 -0.1609  0.6266  0.2414
 7466TIP3   OH243888   3.169   3.620   4.031  0.1496  0.2127  0.0156
 7466TIP3    H143889   3.188   3.556   3.962  0.6240  1.0900 -0.6781
 7466TIP3    H243890   3.090   3.586   4.074 -0.7407  0.1746 -1.5939
 7467TIP3   OH243891   5.741   2.447  13.928 -0.5334 -0.4826 -0.3203
 7467TIP3    H143892   5.762   2.405  13.845  1.7594 -0.1757  0.0490
 7467TIP3    H243893   5.646   2.437  13.936 -0.9545  0.0358 -3.2651
 7468TIP3   OH243894   5.150   6.438   5.668  0.1761 -0.2469 -0.1330
 7468TIP3    H143895   5.080   6.427   5.732  0.5375  1.8981  0.7331
 7468TIP3    H243896   5.221   6.383   5.700 -0.0998 -0.1792  0.6125
 7469TIP3   OH243897   5.938   5.607  15.255  0.7230 -0.5353  0.3158
 7469TIP3    H143898   5.995   5.531  15.272  1.1351 -0.2594  0.1642
 7469TIP3    H243899   5.852   5.568  15.241  1.3116 -1.1715 -1.9277
 7470TIP3   OH243900   2.568   3.432   3.614  0.0074 -0.0228 -0.3812
 7470TIP3    H143901   2.593   3.473   3.531 -0.9435  0.9731 -0.1918
 7470TIP3    H243902   2.552   3.505   3.673  2.3827 -0.7224  1.2419
 7471TIP3   OH243903   1.032   0.922  15.052  0.1482 -0.1951  0.3477
 7471TIP3    H143904   1.096   0.955  14.988 -0.9982  1.5694  0.0520
 7471TIP3    H243905   1.020   0.994  15.113 -1.9844 -0.2337  0.0497
 7472TIP3   OH243906   4.384   2.900   1.293 -0.3067  0.2243  0.0685
 7472TIP3    H143907   4.321   2.923   1.361 -0.0570 -3.4129  1.7600
 7472TIP3    H243908   4.425   2.820   1.324  2.5186  0.3843 -2.7233
 7473TIP3   OH243909   4.334   2.152   5.656 -0.4522  0.2724 -0.4081
 7473TIP3    H143910   4.427   2.173   5.668  0.6914 -4.0395 -0.1135
 7473TIP3    H243911   4.288   2.223   5.701  2.7118  1.7301  0.8959
 7474TIP3   OH243912   4.238   0.124   1.419  0.2858  0.4666 -0.6660
 7474TIP3    H143913   4.271   0.213   1.432  1.6571 -0.1595  0.4472
 7474TIP3    H243914   4.310   0.079   1.375  0.1025 -0.3965 -0.0924
 7475TIP3   OH243915   1.791   2.090   3.892 -0.1333 -0.2309 -0.3148
 7475TIP3    H143916   1.811   2.175   3.932  1.3593  0.5928 -2.5903
 7475TIP3    H243917   1.707   2.103   3.848 -0.8603 -0.5745  0.9188
 7476TIP3   OH243918   6.484   6.147  15.015 -0.1518  0.2697 -0.1019
 7476TIP3    H143919   6.484   6.053  14.995  1.1009  0.3321 -0.5232
 7476TIP3    H243920   6.517   6.188  14.935  0.2291  0.9829  0.4120
 7477TIP3   OH243921   3.710   5.606  12.405 -0.2931 -0.1588  0.1699
 7477TIP3    H143922   3.776   5.674  12.417 -0.2542 -0.1158 -0.2719
 7477TIP3    H243923   3.673   5.593  12.492  0.7004 -0.6031  0.5361
 7478TIP3   OH243924   0.760   5.814   6.050 -0.0529 -0.1677  0.1397
 7478TIP3    H143925   0.687   5.757   6.075  0.3856 -0.1026  1.6786
 7478TIP3    H243926   0.838   5.764   6.073  0.3427  1.2016  1.9875
 7479TIP3   OH243927   3.708   0.080  13.353 -0.1375  0.0355  0.3110
 7479TIP3    H143928   3.629   0.091  13.300  0.1634 -1.0274 -0.4073
 7479TIP3    H243929   3.681   0.103  13.442 -0.9110  0.9253 -0.1311
 7480TIP3   OH243930   4.503   4.676   5.523 -0.0252 -0.0512  0.0369
 7480TIP3    H143931   4.428   4.736   5.526 -0.1530 -0.2412  1.1131
 7480TIP3    H243932   4.561   4.706   5.593  0.7094 -0.1698 -0.5093
 7481TIP3   OH243933   0.793   2.781  11.435 -0.3620  0.1801 -0.5149
 7481TIP3    H143934   0.866   2.781  11.373  0.9384 -0.1007  0.9226
 7481TIP3    H243935   0.760   2.691  11.434  0.9332 -0.3547  0.5454
 7482TIP3   OH243936   2.183   6.529   2.158  0.1977 -0.2303 -0.0098
 7482TIP3    H143937   2.124   6.528   2.233 -0.8517  0.8877 -0.7669
 7482TIP3    H243938   2.158   6.453   2.106 -0.6473  0.2572 -0.3453
 7483TIP3   OH243939   5.796   6.075   1.494 -0.0407 -0.2260  0.4344
 7483TIP3    H143940   5.799   6.125   1.576 -0.2262 -0.1997  0.4244
 7483TIP3    H243941   5.877   6.099   1.449 -0.4683  0.6152  0.1001
 7484TIP3   OH243942   4.977   0.388  14.673 -0.5928 -0.2971  0.1786
 7484TIP3    H143943   5.037   0.400  14.746  0.0451 -1.2323 -0.1691
 7484TIP3    H243944   5.032   0.395  14.595 -0.6246 -2.5905 -0.1101
 7485TIP3   OH243945   5.952   1.692   5.248  0.2243 -0.4406  0.3507
 7485TIP3    H143946   5.859   1.677   5.232  0.6063 -1.1927 -1.3590
 7485TIP3    H243947   5.967   1.782   5.219 -0.1841  0.0986  1.7484
 7486TIP3   OH243948   4.565   3.183  16.968 -0.3189  0.1399  0.3962
 7486TIP3    H143949   4.551   3.232  17.049  0.8225  1.7788 -0.3216
 7486TIP3    H243950   4.661   3.180  16.959 -0.4282  0.7413 -1.2885
 7487TIP3   OH243951   1.738   1.733   2.933  0.0254 -0.4722  0.6244
 7487TIP3    H143952   1.775   1.654   2.972  2.8761 -0.5407 -1.8396
 7487TIP3    H243953   1.794   1.804   2.964  0.9948 -0.2559 -1.4579
 7488TIP3   OH243954   3.927   2.051   2.970  0.4482 -0.0363  0.8459
 7488TIP3    H143955   3.834   2.029   2.967  1.1641 -3.7307 -2.8728
 7488TIP3    H243956   3.958   2.014   3.053 -1.0610 -0.1239  1.4055
 7489TIP3   OH243957   6.159   0.894  16.567  0.0421 -0.1049  0.4096
 7489TIP3    H143958   6.171   0.830  16.637  0.7461 -1.1674 -0.6369
 7489TIP3    H243959   6.188   0.849  16.488  0.9134  1.6131 -0.3262
 7490TIP3   OH243960   2.058   6.388  16.667  0.2952  0.5380  0.4965
 7490TIP3    H143961   2.094   6.409  16.580 -0.5394  0.4021  0.1129
 7490TIP3    H243962   1.982   6.445  16.675 -0.6411 -0.6656  0.4136
 7491TIP3   OH243963   4.836   6.592  16.486 -0.1808  0.0319  0.1367
 7491TIP3    H143964   4.770   6.588  16.417  0.8617  1.9571 -1.0585
 7491TIP3    H243965   4.895   6.662  16.459  1.9087 -1.0558  1.5569
 7492TIP3   OH243966   3.470   5.637  13.390  0.1959 -0.5304 -0.6668
 7492TIP3    H143967   3.474   5.732  13.383  1.2671 -0.4773  0.4239
 7492TIP3    H243968   3.512   5.605  13.310 -0.7123 -0.1117 -1.3300
 7493TIP3   OH243969   6.633   1.915   2.183 -0.1622  0.1693 -0.2708
 7493TIP3    H143970   6.709   1.861   2.205 -1.0079 -0.2452  1.8181
 7493TIP3    H243971   6.649   1.998   2.228 -0.6770  0.2785 -0.2840
 7494TIP3   OH243972   6.021   3.152   0.723  1.1342  0.6318 -0.0923
 7494TIP3    H143973   5.933   3.182   0.699  0.6888  0.1118  0.8427
 7494TIP3    H243974   6.059   3.225   0.772  0.9134  0.5358  0.2193
 7495TIP3   OH243975   2.541   2.499  12.725  0.3109 -0.6174 -0.2885
 7495TIP3    H143976   2.621   2.495  12.777  2.5915  1.5445 -3.3327
 7495TIP3    H243977   2.546   2.582  12.679 -1.5149 -2.3097 -3.9361
 7496TIP3   OH243978   2.124   6.817  15.932  0.2034  0.2573 -0.1445
 7496TIP3    H143979   2.047   6.858  15.893 -0.1151 -1.5115 -1.4671
 7496TIP3    H243980   2.107   6.723  15.928  1.5107 -0.1017  1.5227
 7497TIP3   OH243981   4.737   6.213   3.197  0.0229 -0.4435 -0.0251
 7497TIP3    H143982   4.705   6.303   3.200 -0.4223 -0.6141  1.2526
 7497TIP3    H243983   4.659   6.159   3.215  0.5538 -0.9972  0.6833
 7498TIP3   OH243984   0.170   6.529  12.251  0.0646  0.1110  1.0170
 7498TIP3    H143985   0.106   6.587  12.293  0.3149  1.1133  0.0622
 7498TIP3    H243986   0.130   6.508  12.166  1.0078  0.7485  0.4116
 7499TIP3   OH243987   6.188   6.124  13.674  0.1274 -0.1367 -0.4109
 7499TIP3    H143988   6.182   6.034  13.706  0.1839 -0.8564 -2.2507
 7499TIP3    H243989   6.244   6.118  13.596  0.2101  1.5055 -0.5218
 7500TIP3   OH243990   1.916   4.919  13.017  0.2336 -0.5824  0.2596
 7500TIP3    H143991   1.909   4.843  12.960 -0.0161  0.3742 -1.0175
 7500TIP3    H243992   1.996   4.963  12.990  0.4312 -0.4298  1.0578
 7501TIP3   OH243993   0.346   0.335  16.415  0.3081 -0.5730 -0.2318
 7501TIP3    H143994   0.371   0.394  16.343 -0.5336 -2.3796 -2.1186
 7501TIP3    H243995   0.429   0.302  16.449  0.7319 -0.8606 -1.4614
 7502TIP3   OH243996   1.352   5.303   4.852  0.0199  0.1068 -0.6374
 7502TIP3    H143997   1.386   5.214   4.849  1.0565  0.4930 -0.8334
 7502TIP3    H243998   1.314   5.318   4.765  0.2516  0.0116 -0.7534
 7503TIP3   OH243999   4.745   3.131  16.299 -0.2221  0.1229 -0.3392
 7503TIP3    H144000   4.816   3.119  16.236 -1.9273 -0.8219 -2.2086
 7503TIP3    H244001   4.691   3.052  16.290 -0.4358 -0.1531  2.5333
 7504TIP3   OH244002   0.763   6.274   3.784  0.5287  0.2441  0.4109
 7504TIP3    H144003   0.671   6.302   3.790 -0.1695 -1.9542  1.2646
 7504TIP3    H244004   0.813   6.355   3.786 -1.3421  1.4701  1.6063
 7505TIP3   OH244005   1.060   2.843  11.679  0.2723 -0.1869 -0.1578
 7505TIP3    H144006   0.976   2.834  11.724 -0.9298  2.4183 -1.6400
 7505TIP3    H244007   1.049   2.795  11.598  0.0602  0.4532 -0.5135
 7506TIP3   OH244008   1.732   4.803   3.498 -0.2192 -0.1716  0.5834
 7506TIP3    H144009   1.756   4.728   3.444  0.2724 -0.6829  1.4775
 7506TIP3    H244010   1.644   4.826   3.469 -0.2855 -0.9493  0.1243
 7507TIP3   OH244011   5.347   0.862  12.336  0.4767 -0.6631  0.1608
 7507TIP3    H144012   5.344   0.766  12.339  1.0550 -0.7284 -0.8090
 7507TIP3    H244013   5.262   0.888  12.302  0.5607 -0.8765 -0.2194
 7508TIP3   OH244014   5.738   2.164  14.209  0.1434  0.4024  0.5523
 7508TIP3    H144015   5.653   2.205  14.195 -0.3828 -0.7865  0.1584
 7508TIP3    H244016   5.801   2.228  14.175 -0.5349  1.5310  1.3530
 7509TIP3   OH244017   6.130   4.972  15.312 -0.3326  0.0357 -0.3999
 7509TIP3    H144018   6.089   4.902  15.362 -0.6558 -0.4310 -1.2931
 7509TIP3    H244019   6.065   4.996  15.246  0.7484 -0.6337 -1.7581
 7510TIP3   OH244020   0.101   1.778   1.971 -0.1781 -0.4587 -0.1186
 7510TIP3    H144021   0.089   1.791   2.066 -0.4933 -1.1927 -0.0569
 7510TIP3    H244022   0.146   1.858   1.942 -0.4320 -0.0522  0.5810
 7511TIP3   OH244023   6.605   2.958   3.173  0.0035  0.0857 -0.0981
 7511TIP3    H144024   6.654   2.952   3.091 -1.6446 -0.2347 -1.0916
 7511TIP3    H244025   6.513   2.964   3.147 -0.4715  1.6067  1.6792
 7512TIP3   OH244026   3.962   0.253   0.578 -0.1154 -0.0452 -1.0420
 7512TIP3    H144027   4.048   0.295   0.578 -0.1632  0.0608 -1.6799
 7512TIP3    H244028   3.960   0.202   0.659  0.7695 -0.4946 -1.2910
 7513TIP3   OH244029   1.850   5.330  15.730 -0.5988 -0.6816 -0.6086
 7513TIP3    H144030   1.923   5.283  15.768 -1.3519 -2.6527 -1.4426
 7513TIP3    H244031   1.777   5.267  15.732 -2.0805  0.9567 -0.4465
 7514TIP3   OH244032   0.563   2.616  13.194  0.0246 -0.5719 -0.9267
 7514TIP3    H144033   0.537   2.617  13.286  0.2757 -2.2921 -0.8018
 7514TIP3    H244034   0.655   2.645  13.195  0.0589 -0.6854 -0.6159
 7515TIP3   OH244035   4.045   3.764  15.464  0.1808  0.3128 -0.2704
 7515TIP3    H144036   4.108   3.707  15.421 -0.6941  0.0202 -1.2116
 7515TIP3    H244037   4.025   3.720  15.547 -0.9292 -1.0839 -1.2495
 7516TIP3   OH244038   0.913   2.362   2.142 -0.1973  0.2502 -0.5824
 7516TIP3    H144039   0.923   2.435   2.081 -0.4110  0.2613 -0.6049
 7516TIP3    H244040   0.857   2.300   2.097 -0.0403  0.0852 -0.5506
 7517TIP3   OH244041   3.764   5.771   4.436  1.0660 -0.0613  0.3725
 7517TIP3    H144042   3.703   5.813   4.375  1.2488 -0.6706 -0.2411
 7517TIP3    H244043   3.816   5.844   4.470  0.4354  0.3848  0.4122
 7518TIP3   OH244044   0.253   0.250   2.870 -0.4391  0.2715 -0.3227
 7518TIP3    H144045   0.290   0.311   2.934  0.3867 -0.0881 -0.4487
 7518TIP3    H244046   0.190   0.198   2.920  2.2017 -1.9769  0.9814
 7519TIP3   OH244047   1.220   3.679   0.494  0.5416 -0.5145  0.0278
 7519TIP3    H144048   1.230   3.764   0.451  0.1178 -0.1436  0.6480
 7519TIP3    H244049   1.218   3.700   0.587  1.9071 -1.3410  0.2752
 7520TIP3   OH244050   4.664   1.916  13.900  0.1678 -0.2837  0.4800
 7520TIP3    H144051   4.645   2.007  13.875 -0.4015 -0.4279  0.3884
 7520TIP3    H244052   4.601   1.864  13.851  0.6707 -0.7572  0.3186
 7521TIP3   OH244053   0.629   5.803  14.781  0.4062 -0.4665 -0.3299
 7521TIP3    H144054   0.597   5.758  14.859  3.7693 -0.7348  1.0747
 7521TIP3    H244055   0.721   5.777  14.774  0.5117  0.2999 -3.9008
 7522TIP3   OH244056   2.937   6.155   6.583  0.5580  0.1985  0.5227
 7522TIP3    H144057   2.945   6.245   6.616  1.9834  0.6951 -1.0145
 7522TIP3    H244058   2.852   6.125   6.615 -0.4620  2.5070  0.1600
 7523TIP3   OH244059   3.412   4.177   3.582 -0.1715 -0.1339  0.0623
 7523TIP3    H144060   3.397   4.211   3.494 -0.8886 -0.7930 -0.0812
 7523TIP3    H244061   3.399   4.082   3.573  0.9607 -0.3507  0.6224
 7524TIP3   OH244062   2.550   0.298   3.516  0.0525  0.0016  0.1962
 7524TIP3    H144063   2.483   0.283   3.583  1.2102 -2.1335  0.9471
 7524TIP3    H244064   2.627   0.324   3.566  0.3968  0.3229 -0.4949
 7525TIP3   OH244065   3.270   1.362   3.647  0.6553 -0.8636 -0.0449
 7525TIP3    H144066   3.355   1.363   3.604  0.0522 -1.1128 -1.2902
 7525TIP3    H244067   3.227   1.283   3.614 -0.3411 -0.3524 -0.0213
 7526TIP3   OH244068   0.961   3.221  12.693 -0.4931 -0.8434  0.6307
 7526TIP3    H144069   1.016   3.146  12.716 -1.2674 -1.1330  1.6356
 7526TIP3    H244070   0.891   3.220  12.759 -0.8497  0.4091  0.2947
 7527TIP3   OH244071   6.332   6.365   5.415  0.1661  0.4253 -0.3524
 7527TIP3    H144072   6.320   6.270   5.425 -1.3285  0.6144 -0.0768
 7527TIP3    H244073   6.285   6.386   5.334 -0.2728  1.0533  0.0591
 7528TIP3   OH244074   3.703   0.650   5.867 -0.0480 -0.6153 -0.0455
 7528TIP3    H144075   3.775   0.713   5.865 -0.0007 -0.6845 -0.7183
 7528TIP3    H244076   3.694   0.621   5.777 -1.9873  0.5923 -0.3149
 7529TIP3   OH244077   1.320   3.852   5.382  0.0018  0.0013  0.1548
 7529TIP3    H144078   1.357   3.839   5.469 -0.8904 -1.6596  0.3209
 7529TIP3    H244079   1.314   3.764   5.344 -3.0532  0.2025 -0.1202
 7530TIP3   OH244080   2.017   6.650  14.047  0.2326 -0.1866 -0.2354
 7530TIP3    H144081   1.989   6.602  14.125 -0.8587 -0.8397 -1.0157
 7530TIP3    H244082   1.988   6.597  13.974  0.2636  0.9692 -1.1116
 7531TIP3   OH244083   6.355   4.324   3.889  0.0312 -0.1209 -0.2734
 7531TIP3    H144084   6.344   4.414   3.859 -0.1002  0.2105  0.7119
 7531TIP3    H244085   6.370   4.273   3.810 -0.1477  0.7319 -0.8643
 7532TIP3   OH244086   2.600   4.632   5.567 -0.2482 -0.1630 -0.5291
 7532TIP3    H144087   2.617   4.652   5.659 -1.3168  3.8163 -0.9912
 7532TIP3    H244088   2.685   4.644   5.525  0.4363 -2.8375 -0.0506
 7533TIP3   OH244089   5.651   0.627   5.686 -0.0039  0.2014 -0.0036
 7533TIP3    H144090   5.643   0.646   5.779 -0.3022  0.5941 -0.1077
 7533TIP3    H244091   5.570   0.582   5.663 -0.0732  0.3995 -0.1470
 7534TIP3   OH244092   2.185   0.236  12.965  0.1502  0.0437  0.2435
 7534TIP3    H144093   2.127   0.176  13.013 -2.3846  2.3599  0.2858
 7534TIP3    H244094   2.243   0.272  13.032 -1.2232  0.8353  1.0509
 7535TIP3   OH244095   2.146   0.581  16.460  0.4653 -0.0385  0.4880
 7535TIP3    H144096   2.191   0.665  16.461  0.2063  0.1196 -0.7356
 7535TIP3    H244097   2.161   0.546  16.373 -2.3613  0.3492 -0.2547
 7536TIP3   OH244098   0.968   3.695  15.493 -0.8758  0.5006  0.0346
 7536TIP3    H144099   0.982   3.637  15.567 -0.7219 -1.9075 -1.7569
 7536TIP3    H244100   0.886   3.666  15.454 -0.1103  0.5166 -1.7018
 7537TIP3   OH244101   1.009   0.026   6.222  0.4232 -0.5776 -0.3764
 7537TIP3    H144102   0.977   0.085   6.153  0.4722 -0.3799 -0.2287
 7537TIP3    H244103   0.982   0.067   6.304  4.4530  1.7807  0.0357
 7538TIP3   OH244104   1.202   2.708   0.726  0.1511  0.8640 -0.2622
 7538TIP3    H144105   1.274   2.771   0.730 -0.0309  1.0238  2.5632
 7538TIP3    H244106   1.239   2.632   0.680  1.2751  1.8898 -1.1191
 7539TIP3   OH244107   0.384   6.716  12.257 -0.0091  0.2310 -0.2644
 7539TIP3    H144108   0.340   6.751  12.335 -0.1125 -0.8732  0.1897
 7539TIP3    H244109   0.327   6.645  12.227  1.1771 -0.8845  0.0260
 7540TIP3   OH244110   3.574   1.412  11.484  0.1508 -0.7683  0.0668
 7540TIP3    H144111   3.548   1.375  11.400  1.3460 -2.1226  0.2612
 7540TIP3    H244112   3.613   1.497  11.461  1.0163 -1.3832 -0.8422
 7541TIP3   OH244113   0.560   2.519  16.727  0.4292  0.0640  0.2078
 7541TIP3    H144114   0.507   2.440  16.743  0.2560  0.5098  2.0048
 7541TIP3    H244115   0.524   2.555  16.645 -0.5900 -0.8252  0.2334
 7542TIP3   OH244116   6.156   0.560  14.619  0.7015 -0.3123  0.3554
 7542TIP3    H144117   6.167   0.474  14.578 -0.0562  0.2692 -1.1308
 7542TIP3    H244118   6.061   0.570  14.629  0.8395 -0.2358  1.8709
 7543TIP3   OH244119   1.043   1.185  15.166 -0.0325 -0.7496  0.1770
 7543TIP3    H144120   1.114   1.194  15.229  1.6614  0.3828 -1.7702
 7543TIP3    H244121   0.987   1.261  15.182 -0.7660 -1.5437  1.5909
 7544TIP3   OH244122   2.106   4.621  16.929  0.6534 -0.2966 -0.7083
 7544TIP3    H144123   2.122   4.602  17.021 -0.6889  0.3238 -0.3206
 7544TIP3    H244124   2.170   4.567  16.882  0.8206 -1.2379  0.5455
 7545TIP3   OH244125   6.770   3.306   3.063 -0.9395 -0.5126 -0.0189
 7545TIP3    H144126   6.762   3.397   3.037 -1.1692 -0.3029  0.7556
 7545TIP3    H244127   6.864   3.289   3.063 -0.8466 -0.0407  0.5951
 7546TIP3   OH244128   0.923   0.812  16.990  0.0288 -0.0216 -0.4606
 7546TIP3    H144129   0.991   0.752  17.021 -1.5119 -2.4904 -1.5400
 7546TIP3    H244130   0.969   0.894  16.974  2.0354 -0.4502  2.2862
 7547TIP3   OH244131   1.868   5.248  13.575  0.4810  0.4498  0.0951
 7547TIP3    H144132   1.849   5.218  13.664 -0.3430  0.1572 -0.1732
 7547TIP3    H244133   1.950   5.297  13.583  1.2064 -0.8173  0.7722
 7548TIP3   OH244134   2.779   6.292   1.370  0.4008 -0.3221 -0.0647
 7548TIP3    H144135   2.848   6.268   1.307 -0.8669 -1.5300 -1.0760
 7548TIP3    H244136   2.714   6.338   1.317 -0.9831 -1.8927  0.1708
 7549TIP3   OH244137   0.438   0.481  15.751 -0.0635 -0.2730 -0.2279
 7549TIP3    H144138   0.493   0.405  15.768  1.4077  1.0017  1.1275
 7549TIP3    H244139   0.366   0.474  15.813  2.1043  1.2850  2.6974
 7550TIP3   OH244140   0.685   2.889  16.859 -0.1605 -0.4555 -0.2012
 7550TIP3    H144141   0.734   2.808  16.848 -0.3633 -0.6125  0.0388
 7550TIP3    H244142   0.620   2.888  16.788 -0.0084 -0.3908 -0.3407
 7551TIP3   OH244143   4.594   6.027  13.179  0.4013  1.0494  0.5334
 7551TIP3    H144144   4.558   5.981  13.103  0.1289  1.4186  0.4370
 7551TIP3    H244145   4.521   6.030  13.242  1.0718 -0.6410  1.4529
 7552TIP3   OH244146   2.330   2.356  11.061 -0.2632 -0.0008 -0.8380
 7552TIP3    H144147   2.332   2.359  10.965  1.0832  1.1053 -0.8107
 7552TIP3    H244148   2.371   2.273  11.084  1.5048  0.7429 -1.2114
 7553TIP3   OH244149   6.100   3.358  12.898 -0.1829  0.2072 -0.2746
 7553TIP3    H144150   6.077   3.281  12.846 -1.1689 -0.0578  0.5218
 7553TIP3    H244151   6.147   3.323  12.974  1.8815  0.6494 -1.2870
 7554TIP3   OH244152   5.347   6.364   3.927 -0.0884 -0.3908  0.4818
 7554TIP3    H144153   5.329   6.347   3.835 -3.1267 -1.6057  1.1872
 7554TIP3    H244154   5.341   6.279   3.969 -0.6847  0.3884  2.0675
 7555TIP3   OH244155   5.637   2.965   3.698  0.2800 -0.2128 -0.5280
 7555TIP3    H144156   5.567   3.023   3.728  0.2073  0.2496 -1.5519
 7555TIP3    H244157   5.705   2.973   3.765 -0.8144 -1.0438  0.7359
 7556TIP3   OH244158   3.463   0.056  14.807 -0.1494  0.4158 -0.8090
 7556TIP3    H144159   3.402   0.073  14.736 -0.6118 -1.2442 -0.8535
 7556TIP3    H244160   3.536   0.011  14.765  0.0983  0.4315 -0.4017
 7557TIP3   OH244161   5.955   1.931   2.740  0.1978 -0.4578  0.2996
 7557TIP3    H144162   5.928   1.921   2.648  0.1677  1.1425  0.1093
 7557TIP3    H244163   5.893   1.994   2.776 -0.3714 -1.7424  1.7060
 7558TIP3   OH244164   5.364   1.238   1.644  0.2898  0.0397  0.3007
 7558TIP3    H144165   5.397   1.241   1.554 -0.5910 -1.4063 -0.1093
 7558TIP3    H244166   5.441   1.215   1.697  0.9160  1.3789 -0.0036
 7559TIP3   OH244167   4.104   3.714   3.212  0.1093 -0.1876  0.3210
 7559TIP3    H144168   4.061   3.704   3.127  2.5626 -0.3421 -0.9884
 7559TIP3    H244169   4.108   3.626   3.248 -0.2081 -0.2418  0.2268
 7560TIP3   OH244170   6.500   6.184   2.804  0.5065 -0.1921  0.3534
 7560TIP3    H144171   6.471   6.272   2.829  0.9217  0.4138 -1.1867
 7560TIP3    H244172   6.584   6.198   2.761  1.1800 -1.4987  1.1819
 7561TIP3   OH244173   4.622   4.480   6.365  0.3001  0.4427  0.3566
 7561TIP3    H144174   4.664   4.408   6.411 -0.3206 -0.0312  0.2012
 7561TIP3    H244175   4.672   4.490   6.284  0.4692  0.2738  0.4408
 7562TIP3   OH244176   2.819   5.199   4.013  0.2706  0.2768  0.0988
 7562TIP3    H144177   2.800   5.173   4.103 -0.2710  0.8370  0.1523
 7562TIP3    H244178   2.914   5.187   4.004  0.0432 -1.7333  0.1045
 7563TIP3   OH244179   2.170   5.384   1.435  0.4916  0.6247  0.5129
 7563TIP3    H144180   2.091   5.382   1.489  0.7523  2.1437  1.0052
 7563TIP3    H244181   2.223   5.454   1.473  1.5822  0.3824 -0.5000
 7564TIP3   OH244182   4.754   6.035   2.585 -0.0374 -0.5745  0.0346
 7564TIP3    H144183   4.751   6.126   2.615 -4.1975 -0.1126 -1.1002
 7564TIP3    H244184   4.813   6.036   2.510  0.5502  1.0425  0.4830
 7565TIP3   OH244185   5.696   4.884   5.169  0.3939 -0.6326 -0.3911
 7565TIP3    H144186   5.694   4.979   5.184  1.0557 -0.7815  0.8003
 7565TIP3    H244187   5.705   4.875   5.074 -3.8826  0.4057 -1.0864
 7566TIP3   OH244188   2.019   5.341  12.865 -0.4965  0.7920 -0.5666
 7566TIP3    H144189   1.962   5.401  12.914 -0.1805  0.5092  0.1591
 7566TIP3    H244190   2.100   5.390  12.852  0.0203  0.3102  0.6303
 7567TIP3   OH244191   5.868   1.899   4.678 -0.0543  0.1720  0.1772
 7567TIP3    H144192   5.861   1.988   4.644 -0.4039  0.6916  1.5494
 7567TIP3    H244193   5.841   1.843   4.605  1.6784  1.0727 -1.2325
 7568TIP3   OH244194   3.750   5.663   3.065 -0.1199  0.7126  0.6439
 7568TIP3    H144195   3.830   5.715   3.069  0.2028  0.2076  0.7907
 7568TIP3    H244196   3.681   5.727   3.048  0.6055  0.8764 -2.1181
 7569TIP3   OH244197   5.701   2.936  17.093 -0.0315 -0.2079 -0.1822
 7569TIP3    H144198   5.767   2.868  17.108  0.2649 -0.0823 -0.8515
 7569TIP3    H244199   5.675   2.922  17.002 -1.2557 -0.5377  0.2063
 7570TIP3   OH244200   1.416   0.446  16.609 -0.6948 -0.3582 -0.0411
 7570TIP3    H144201   1.510   0.468  16.610 -0.6500 -0.4392 -1.3013
 7570TIP3    H244202   1.406   0.386  16.683  0.3371 -0.6862 -0.1423
 7571TIP3   OH244203   0.818   2.330  13.381  0.4125  0.6141  0.0794
 7571TIP3    H144204   0.853   2.337  13.470  0.6199 -1.4532  0.2072
 7571TIP3    H244205   0.773   2.246  13.379 -0.8250  1.2685 -1.3751
 7572TIP3   OH244206   6.766   1.366   2.973  0.1851 -0.2651 -0.2234
 7572TIP3    H144207   6.688   1.311   2.965  1.1556 -1.7289 -0.1280
 7572TIP3    H244208   6.834   1.317   2.927  1.0561  0.9649 -0.2807
 7573TIP3   OH244209   2.526   1.989  14.444  0.1238  0.1719  0.0699
 7573TIP3    H144210   2.604   1.947  14.409 -0.2191 -0.2893 -0.1553
 7573TIP3    H244211   2.468   1.998  14.369 -0.7298 -1.0806  0.5462
 7574TIP3   OH244212   6.241   5.574   5.595 -0.3547  0.3227 -0.4554
 7574TIP3    H144213   6.281   5.579   5.509  0.2869 -0.0288 -0.1801
 7574TIP3    H244214   6.278   5.647   5.644 -0.3696  0.2510 -0.3344
 7575TIP3   OH244215   1.633   5.022   4.266  0.1985 -0.7202 -0.0294
 7575TIP3    H144216   1.623   5.116   4.257 -1.8090 -1.0194 -1.6911
 7575TIP3    H244217   1.705   4.999   4.208 -0.0106 -0.3315 -0.4401
 7576TIP3   OH244218   5.291   5.354  16.329 -0.5027 -0.4449  0.0888
 7576TIP3    H144219   5.343   5.276  16.346 -1.1833 -0.6318  1.4541
 7576TIP3    H244220   5.345   5.426  16.362 -0.6757 -0.5389  0.5859
 7577TIP3   OH244221   4.350   3.117  14.280 -0.7516 -0.0610 -1.0052
 7577TIP3    H144222   4.382   3.203  14.307  0.7154 -0.7922 -0.3027
 7577TIP3    H244223   4.391   3.102  14.195  0.1702 -0.6720 -0.4605
 7578TIP3   OH244224   2.862   2.462   4.915 -0.0237  0.2179  0.0375
 7578TIP3    H144225   2.875   2.446   5.009 -0.7338 -1.4584 -0.1107
 7578TIP3    H244226   2.767   2.463   4.904  0.0007 -2.4374 -1.0367
 7579TIP3   OH244227   4.160   5.689   3.369 -0.1219 -0.1901 -0.3521
 7579TIP3    H144228   4.165   5.686   3.273  1.2229 -1.3456 -0.2832
 7579TIP3    H244229   4.216   5.616   3.398 -0.0451  0.4938  1.3183
 7580TIP3   OH244230   0.531   3.356  14.819  0.1223 -0.1115  0.5456
 7580TIP3    H144231   0.535   3.383  14.727  0.5948 -0.7262  0.3787
 7580TIP3    H244232   0.548   3.262  14.817  0.6011 -0.0469  1.3061
 7581TIP3   OH244233   3.079   5.806   5.678  0.2414  0.9878  0.0277
 7581TIP3    H144234   3.013   5.865   5.715 -0.9047  0.1583 -0.6597
 7581TIP3    H244235   3.030   5.747   5.621  1.6205  0.5196 -0.7095
 7582TIP3   OH244236   3.036   6.296   5.263  0.8521 -0.1675 -1.0897
 7582TIP3    H144237   2.977   6.329   5.331  0.0582 -0.6035 -1.5554
 7582TIP3    H244238   3.068   6.212   5.298  3.2571  1.2141  0.3182
 7583TIP3   OH244239   2.251   3.820   5.585 -0.0322 -0.1604  0.0786
 7583TIP3    H144240   2.346   3.824   5.577  0.0206  1.1878  1.0920
 7583TIP3    H244241   2.227   3.899   5.633 -1.7026 -0.3299 -0.4050
 7584TIP3   OH244242   5.789   6.554  16.770  0.3346 -0.0636 -0.0719
 7584TIP3    H144243   5.729   6.556  16.845  1.7990  0.1048  1.1344
 7584TIP3    H244244   5.742   6.503  16.703 -0.5350 -1.2342  1.3708
 7585TIP3   OH244245   1.686   2.410  16.739 -0.4641 -0.2242  0.1312
 7585TIP3    H144246   1.708   2.487  16.790 -2.2863  0.4336  0.0084
 7585TIP3    H244247   1.603   2.432  16.697 -1.3264 -2.4562  0.5268
 7586TIP3   OH244248   3.256   5.146  14.194  0.4182 -0.7241 -0.4591
 7586TIP3    H144249   3.267   5.154  14.288  0.0936 -1.9744 -0.3048
 7586TIP3    H244250   3.336   5.104  14.163  0.6386 -0.0829 -0.7877
 7587TIP3   OH244251   0.641   1.200  14.071  0.3961  0.7360  0.4123
 7587TIP3    H144252   0.719   1.185  14.016  0.6392  0.0627  0.9321
 7587TIP3    H244253   0.675   1.201  14.160 -0.3617 -0.8289  0.7426
 7588TIP3   OH244254   6.810   2.809  12.133 -0.0765  0.1245 -0.3675
 7588TIP3    H144255   6.807   2.733  12.075  0.1793  0.1693 -0.4392
 7588TIP3    H244256   6.737   2.863  12.105 -0.2269 -0.0685 -0.3522
 7589TIP3   OH244257   6.505   5.797  13.126  0.7056 -0.0181  1.0066
 7589TIP3    H144258   6.471   5.835  13.208  0.6794 -1.4311  1.6835
 7589TIP3    H244259   6.460   5.713  13.119 -0.4368  0.6947 -1.2714
 7590TIP3   OH244260   0.050   3.362  10.756  0.1162 -0.7021 -0.4042
 7590TIP3    H144261  -0.011   3.355  10.684  0.4560  1.0650 -0.9166
 7590TIP3    H244262   0.132   3.326  10.722  0.2401  0.0023 -0.8700
 7591TIP3   OH244263   5.925   4.285   0.292  0.2803 -0.3288  0.2150
 7591TIP3    H144264   5.935   4.307   0.200 -0.6756 -1.0699 -0.0777
 7591TIP3    H244265   5.853   4.340   0.323  1.6238  1.0961  0.9565
 7592TIP3   OH244266   3.706   5.668   4.900  0.1928  0.1627  0.1015
 7592TIP3    H144267   3.800   5.674   4.918  0.6433 -0.8526 -1.6631
 7592TIP3    H244268   3.669   5.745   4.942  2.2797  2.4065 -1.8009
 7593TIP3   OH244269   2.195   0.866  14.780  0.9164  0.7124 -0.2117
 7593TIP3    H144270   2.198   0.773  14.800  0.4756  0.8031  0.3121
 7593TIP3    H244271   2.284   0.897  14.798  1.6446  0.0438 -2.3099
 7594TIP3   OH244272   2.625   1.141  12.545 -0.3276  0.0145  0.2214
 7594TIP3    H144273   2.635   1.070  12.608 -1.6833 -0.0022  0.4369
 7594TIP3    H244274   2.709   1.144  12.499 -0.1711 -1.5947  0.3420
 7595TIP3   OH244275   6.804   2.098   1.234 -0.5629  0.0543 -0.5226
 7595TIP3    H144276   6.899   2.109   1.225 -0.8079  4.7374  0.2633
 7595TIP3    H244277   6.778   2.051   1.154  2.2662 -0.5836 -1.1926
 7596TIP3   OH244278   1.479   2.115  17.085 -0.2496 -0.5502 -0.2081
 7596TIP3    H144279   1.481   2.020  17.098 -0.7219 -0.5107  0.2053
 7596TIP3    H244280   1.540   2.131  17.013  0.9492 -1.0045  0.6663
 7597TIP3   OH244281   6.204   2.794  13.428  0.3447  0.1609  0.2607
 7597TIP3    H144282   6.128   2.841  13.461 -0.6541 -0.6360 -0.7947
 7597TIP3    H244283   6.173   2.704  13.416  1.6945 -0.3664  0.5836
 7598TIP3   OH244284   2.663   2.110  12.341  0.2603  0.1379 -0.2536
 7598TIP3    H144285   2.646   2.077  12.429 -2.5847  3.8343  0.8663
 7598TIP3    H244286   2.755   2.137  12.342  0.3774 -0.2512  1.4567
 7599TIP3   OH244287   5.107   3.692  14.536 -0.7029 -0.0534  0.0053
 7599TIP3    H144288   5.012   3.692  14.532 -0.6761  0.8162 -0.9129
 7599TIP3    H244289   5.130   3.780  14.567 -0.1742  0.0513 -0.6676
 7600TIP3   OH244290   2.227   5.285  12.193 -0.3857 -0.3937  0.5027
 7600TIP3    H144291   2.231   5.368  12.241  1.2679  0.5145 -1.0653
 7600TIP3    H244292   2.209   5.311  12.103 -1.7577 -1.9286  0.2978
 7601TIP3   OH244293   1.326   2.836  13.526 -0.2287 -0.0728 -0.0378
 7601TIP3    H144294   1.403   2.782  13.542  0.4647  1.2447  1.3583
 7601TIP3    H244295   1.347   2.884  13.445  0.8654  0.9510  0.8084
 7602TIP3   OH244296   2.502   2.217   3.252  0.3136 -0.1109  0.3122
 7602TIP3    H144297   2.486   2.242   3.161  0.2198 -0.0023  0.3583
 7602TIP3    H244298   2.544   2.132   3.246  1.6364  0.5346  0.1057
 7603TIP3   OH244299   0.495   1.425   5.396 -0.4409 -0.1742 -0.2492
 7603TIP3    H144300   0.577   1.376   5.394  0.1210  0.7392 -0.0080
 7603TIP3    H244301   0.475   1.441   5.303 -0.5400 -0.7124 -0.3211
 7604TIP3   OH244302   5.823   0.546   5.500  0.4588 -0.0346 -0.4284
 7604TIP3    H144303   5.803   0.452   5.501 -0.2353  0.0870  1.2431
 7604TIP3    H244304   5.775   0.581   5.575  1.6060  1.4717 -0.3501
 7605TIP3   OH244305   3.360   3.658   2.956 -0.3699  0.2042 -0.1423
 7605TIP3    H144306   3.266   3.667   2.942 -0.4874 -1.9344 -1.3259
 7605TIP3    H244307   3.372   3.564   2.972  1.4779  0.5655  0.8496
 7606TIP3   OH244308   6.084   5.365  17.054 -0.1258  0.4613 -0.1146
 7606TIP3    H144309   6.034   5.429  17.004  0.9521  0.5493 -1.1484
 7606TIP3    H244310   6.088   5.401  17.142 -0.1089  1.4970 -0.5209
 7607TIP3   OH244311   2.843   0.756   3.035  0.2470  0.1620  0.0331
 7607TIP3    H144312   2.897   0.690   3.077 -0.7781  0.8093  2.5262
 7607TIP3    H244313   2.880   0.839   3.062  0.0939  0.6349 -1.1249
 7608TIP3   OH244314   6.622   6.221   1.766  0.2195  0.4100  0.2930
 7608TIP3    H144315   6.650   6.146   1.712 -1.3233 -0.0274  0.0384
 7608TIP3    H244316   6.588   6.181   1.846 -0.6118  0.8130  0.1589
 7609TIP3   OH244317   2.999   2.060   4.127 -0.0304  0.3279  1.0222
 7609TIP3    H144318   2.929   2.005   4.162 -0.1882  0.8073  1.4750
 7609TIP3    H244319   3.062   1.998   4.089 -0.8573 -0.0981  0.2879
 7610TIP3   OH244320   3.497   3.936  16.045  0.0436  0.0959  0.5616
 7610TIP3    H144321   3.404   3.958  16.053  0.2675  0.9251  1.0763
 7610TIP3    H244322   3.533   4.005  15.989  0.6086  0.5889  1.5038
 7611TIP3   OH244323   4.291   2.699  13.858  0.3386  0.3378 -0.1902
 7611TIP3    H144324   4.298   2.782  13.811  0.5073 -0.0415 -0.8416
 7611TIP3    H244325   4.293   2.632  13.790  0.6889 -0.2292  0.3639
 7612TIP3   OH244326   4.270   3.189  12.409  0.2909  0.2538  0.4152
 7612TIP3    H144327   4.222   3.271  12.413 -1.2664 -0.6708  2.4082
 7612TIP3    H244328   4.325   3.197  12.331 -0.4098  2.8232  0.1014
 7613TIP3   OH244329   3.225   1.313   3.172 -0.7839 -0.4935 -0.2790
 7613TIP3    H144330   3.299   1.290   3.116  0.7439  1.5861  0.7815
 7613TIP3    H244331   3.212   1.236   3.227  0.8408 -0.7904 -0.2552
 7614TIP3   OH244332   6.727   2.226   3.882 -0.1574  0.1340 -0.0838
 7614TIP3    H144333   6.692   2.148   3.839  0.6488 -1.6984  2.3539
 7614TIP3    H244334   6.711   2.211   3.975 -0.2048  3.0512  0.4775
 7615TIP3   OH244335   6.006   4.122   0.771 -0.3308 -0.0308 -0.1983
 7615TIP3    H144336   5.930   4.081   0.812 -2.2514  2.2555 -1.2131
 7615TIP3    H244337   6.001   4.094   0.679 -0.0789  0.3607 -0.3325
 7616TIP3   OH244338   4.505   2.608   4.011 -0.2337 -0.7135 -0.2225
 7616TIP3    H144339   4.558   2.649   3.943  1.8324 -0.4833  1.4265
 7616TIP3    H244340   4.444   2.677   4.039 -0.3926 -0.4901 -1.0855
 7617TIP3   OH244341   3.369   2.179  12.786  0.6528 -0.4327  0.4451
 7617TIP3    H144342   3.379   2.124  12.708  0.0824 -0.2753  0.2582
 7617TIP3    H244343   3.363   2.117  12.858  2.6055 -0.5616  0.5582
 7618TIP3   OH244344   2.095   4.521   0.861 -0.0877 -0.1018  0.0167
 7618TIP3    H144345   2.137   4.561   0.937  3.0350 -1.5074 -0.8074
 7618TIP3    H244346   2.042   4.450   0.897  1.8996 -1.1935  0.9272
 7619TIP3   OH244347   4.004   0.734   5.114  0.0874  0.8185  0.4197
 7619TIP3    H144348   3.924   0.687   5.139  0.6364  0.7668  2.2789
 7619TIP3    H244349   4.036   0.771   5.197  0.6095  3.0336 -0.6910
 7620TIP3   OH244350   5.954   4.325  13.362  0.7041 -0.0716 -0.0402
 7620TIP3    H144351   5.891   4.299  13.296  0.4022 -0.4738  0.3964
 7620TIP3    H244352   5.931   4.273  13.439  0.0140  1.5534  0.9092
 7621TIP3   OH244353   4.117   1.492   1.043 -0.1137 -0.3295  0.4809
 7621TIP3    H144354   4.034   1.469   1.085 -0.0780  1.4617  1.6025
 7621TIP3    H244355   4.096   1.568   0.989  0.6171 -0.4742 -0.0244
 7622TIP3   OH244356   5.812   4.059  17.047 -0.3419 -0.0886  0.3483
 7622TIP3    H144357   5.747   4.087  16.984 -1.8191 -0.7279  1.5278
 7622TIP3    H244358   5.865   4.137  17.064 -2.5808  1.2838  1.4593
 7623TIP3   OH244359   6.558   5.910   2.795 -0.1728  0.0570  0.3835
 7623TIP3    H144360   6.578   5.890   2.886  1.2569  0.9609  0.3029
 7623TIP3    H244361   6.545   6.004   2.793 -3.2794 -0.2834  0.1502
 7624TIP3   OH244362   3.273   4.684  13.437 -0.4089  0.4891 -0.5662
 7624TIP3    H144363   3.313   4.752  13.383 -0.9525  0.5639 -0.8776
 7624TIP3    H244364   3.311   4.602  13.405 -0.1830  0.5941 -0.5692
 7625TIP3   OH244365   2.907   4.355  14.470 -0.3926  0.4538 -0.0985
 7625TIP3    H144366   2.938   4.418  14.536 -1.2236 -0.9171  1.7093
 7625TIP3    H244367   2.970   4.283  14.475  0.1032  0.7669 -1.5724
 7626TIP3   OH244368   4.743   2.833  16.056 -0.2356 -0.1250  0.2417
 7626TIP3    H144369   4.703   2.849  15.970  1.1548  0.0792 -0.3858
 7626TIP3    H244370   4.668   2.816  16.114 -1.3452  1.7813 -0.5508
 7627TIP3   OH244371   0.026   1.506  13.075 -0.6423 -0.1691 -0.4340
 7627TIP3    H144372  -0.061   1.528  13.041 -0.7033  0.2227 -0.0351
 7627TIP3    H244373   0.085   1.567  13.031 -0.3321 -1.5098 -1.9466
 7628TIP3   OH244374   3.726   5.810  16.897 -0.4673  0.4710  0.2454
 7628TIP3    H144375   3.820   5.826  16.888 -0.6984  1.6726 -0.2155
 7628TIP3    H244376   3.685   5.893  16.873 -1.6338  0.1258  0.9528
 7629TIP3   OH244377   0.925   6.265   1.621 -0.0373  0.2757  0.1383
 7629TIP3    H144378   1.009   6.262   1.575  0.5776 -0.3997  1.2575
 7629TIP3    H244379   0.882   6.184   1.597 -1.7555  1.9189 -2.8455
 7630TIP3   OH244380   4.951   3.614  11.268 -0.0914 -0.7741 -0.1537
 7630TIP3    H144381   4.867   3.589  11.229  0.0951 -0.8535 -0.5119
 7630TIP3    H244382   4.967   3.546  11.334  0.4046 -1.6292 -1.1156
 7631TIP3   OH244383   2.239   0.465   5.905  0.7806  0.0626 -0.0055
 7631TIP3    H144384   2.292   0.442   5.982  0.0250 -0.2315  0.4334
 7631TIP3    H244385   2.262   0.556   5.886  1.1340  0.0698  0.4340
 7632TIP3   OH244386   1.644   2.626   3.393  0.1078  0.2012  0.3973
 7632TIP3    H144387   1.605   2.714   3.385  1.3109  0.6525 -0.9057
 7632TIP3    H244388   1.685   2.611   3.308  0.8591 -1.1876  0.9847
 7633TIP3   OH244389   2.123   2.854   5.046  0.0482 -0.1730  0.6233
 7633TIP3    H144390   2.169   2.928   5.084 -0.8097  0.1848  0.9828
 7633TIP3    H244391   2.192   2.790   5.026  0.7225  0.4710  0.8618
 7634TIP3   OH244392   3.430   2.495  12.736  0.1674  0.0914  0.0498
 7634TIP3    H144393   3.432   2.546  12.654  4.8287  0.1470 -0.0346
 7634TIP3    H244394   3.412   2.406  12.708 -0.2621  0.4284 -0.7820
 7635TIP3   OH244395   1.637   6.310  14.880  0.0309 -0.2376  0.1551
 7635TIP3    H144396   1.592   6.335  14.800 -1.1309 -2.1577  0.1461
 7635TIP3    H244397   1.704   6.247  14.852  0.5991  0.1896  0.5318
 7636TIP3   OH244398   5.771   6.097  12.772  0.1166  0.0907  0.2399
 7636TIP3    H144399   5.712   6.156  12.726 -0.0016 -1.0351 -1.1183
 7636TIP3    H244400   5.855   6.107  12.727 -0.2024 -1.6324 -0.8688
 7637TIP3   OH244401   3.552   5.451   6.058  0.4334 -0.4213  0.5657
 7637TIP3    H144402   3.544   5.505   5.979  1.2642  0.3131  0.9716
 7637TIP3    H244403   3.557   5.361   6.025 -2.7182 -0.4898 -0.0604
 7638TIP3   OH244404   5.928   3.963   4.816  0.4815  0.2894 -0.9072
 7638TIP3    H144405   5.932   3.971   4.721 -0.3279  1.2682 -0.8731
 7638TIP3    H244406   5.844   4.002   4.840  0.0054 -1.2532  0.0864
 7639TIP3   OH244407   2.855   5.165  12.430 -0.2474 -0.4982  0.7911
 7639TIP3    H144408   2.922   5.110  12.470 -1.7803 -3.1847 -0.0843
 7639TIP3    H244409   2.820   5.217  12.502  1.5969 -0.2173  1.5541
 7640TIP3   OH244410   0.243   1.958   1.316  0.4858 -0.2369 -0.5698
 7640TIP3    H144411   0.212   1.869   1.331  0.0558 -0.0382 -0.2261
 7640TIP3    H244412   0.301   1.976   1.390 -0.7362  0.3416  0.2935
 7641TIP3   OH244413   0.174   4.192   5.188  0.5626  0.0775  0.3217
 7641TIP3    H144414   0.237   4.157   5.124 -0.1116  0.2606 -0.4583
 7641TIP3    H244415   0.138   4.270   5.145 -1.0913 -0.7042  0.2189
 7642TIP3   OH244416   3.288   0.184  10.956  0.1942 -0.0388 -0.6546
 7642TIP3    H144417   3.251   0.110  10.907  0.3962 -0.8287  0.3561
 7642TIP3    H244418   3.349   0.144  11.017  0.5588  1.0060 -0.3184
 7643TIP3   OH244419   2.251   6.617  13.600  0.1314 -0.0466  0.3121
 7643TIP3    H144420   2.247   6.607  13.695 -0.3307  0.0014  0.2992
 7643TIP3    H244421   2.161   6.601  13.571 -0.4394  2.8935  0.1556
 7644TIP3   OH244422   0.551   3.087  14.615  0.5388 -0.3630 -0.5850
 7644TIP3    H144423   0.459   3.111  14.628  0.4936 -0.3899 -0.8544
 7644TIP3    H244424   0.582   3.062  14.703  0.5731  0.6447 -0.2933
 7645TIP3   OH244425   5.965   1.593  11.182 -0.5031  0.2254 -0.0766
 7645TIP3    H144426   5.949   1.656  11.251 -0.6838  0.0981 -0.0012
 7645TIP3    H244427   6.042   1.626  11.136 -1.3822  1.2266 -0.8850
 7646TIP3   OH244428   1.204   0.062   1.893 -0.6989  0.4409  0.0588
 7646TIP3    H144429   1.236   0.152   1.902  2.0783 -0.0835 -2.9090
 7646TIP3    H244430   1.109   0.070   1.901 -0.4987  3.4789  0.7083
 7647TIP3   OH244431   3.739   3.972   2.043 -0.2790  0.0039  0.4702
 7647TIP3    H144432   3.820   3.940   2.004 -0.4593 -0.1693  0.2311
 7647TIP3    H244433   3.675   3.969   1.971 -0.8929 -1.3731  1.0358
 7648TIP3   OH244434   6.076   5.876   4.957  0.0137 -0.3419  0.3721
 7648TIP3    H144435   6.027   5.802   4.994  0.2176  0.4005  2.2917
 7648TIP3    H244436   6.135   5.902   5.028 -0.0664  1.6591 -0.2477
 7649TIP3   OH244437   5.576   0.573  15.793 -0.1669 -0.7437 -0.1062
 7649TIP3    H144438   5.639   0.641  15.818 -3.0763  1.8399  0.8383
 7649TIP3    H244439   5.527   0.555  15.873 -1.9637 -1.0791 -1.2159
 7650TIP3   OH244440   6.566   3.731  15.201  0.9119  0.3898  0.0284
 7650TIP3    H144441   6.513   3.797  15.248  0.4168 -0.2661  0.4078
 7650TIP3    H244442   6.628   3.783  15.150  0.2923  1.1691  0.0378
 7651TIP3   OH244443   1.476   0.819  13.118 -0.2580  0.2679 -0.5695
 7651TIP3    H144444   1.546   0.761  13.146  0.2636  1.3229  0.4043
 7651TIP3    H244445   1.504   0.848  13.030  1.2533  1.6923  0.3100
 7652TIP3   OH244446   1.816   5.167  15.497  0.1429 -0.8345 -0.1201
 7652TIP3    H144447   1.827   5.180  15.403  2.3082 -0.7610  0.0851
 7652TIP3    H244448   1.851   5.248  15.536 -3.0066  0.2546  0.7500
 7653TIP3   OH244449   2.767   4.492   2.463 -0.4364  0.6124 -0.2004
 7653TIP3    H144450   2.779   4.431   2.536  0.0575  0.1982 -0.6207
 7653TIP3    H244451   2.676   4.479   2.436  0.3907 -2.0893 -2.1466
 7654TIP3   OH244452   4.017   4.595  11.556  0.2750 -0.1063  0.7648
 7654TIP3    H144453   4.077   4.523  11.574  1.9825  1.3590  1.2268
 7654TIP3    H244454   3.976   4.572  11.473  3.8432  0.2121 -1.3006
 7655TIP3   OH244455   0.372   0.836  15.783  0.3822  0.1923  0.0048
 7655TIP3    H144456   0.360   0.920  15.826  0.1716  0.3320 -0.3247
 7655TIP3    H244457   0.291   0.788  15.802 -0.4874  0.9061 -1.7010
 7656TIP3   OH244458   3.395   4.792   0.833 -0.2467 -0.8945  0.4864
 7656TIP3    H144459   3.410   4.778   0.739  0.5226  1.1046  0.2633
 7656TIP3    H244460   3.300   4.786   0.843 -0.7496  2.3588 -1.1329
 7657TIP3   OH244461   3.225   3.152   3.474 -0.7256 -0.7564  0.3159
 7657TIP3    H144462   3.310   3.141   3.515 -0.5142 -1.5017 -0.3170
 7657TIP3    H244463   3.206   3.068   3.433 -1.2491 -0.2428 -0.5270
 7658TIP3   OH244464   3.849   2.790  16.086  0.6244 -0.3767  0.2902
 7658TIP3    H144465   3.900   2.710  16.078  0.8649 -0.2321  0.3578
 7658TIP3    H244466   3.914   2.860  16.083  0.3691 -0.1588 -0.3455
 7659TIP3   OH244467   3.304   1.892  11.184  0.4284  0.4643 -0.5300
 7659TIP3    H144468   3.308   1.970  11.128  1.4436  0.7136 -0.1257
 7659TIP3    H244469   3.237   1.913  11.249  1.6851  1.6212  0.4579
 7660TIP3   OH244470   4.738   3.245   2.442  0.9153  0.2909  0.1745
 7660TIP3    H144471   4.769   3.331   2.412  0.0415  0.9000  0.9467
 7660TIP3    H244472   4.673   3.219   2.377 -0.0267  1.0033  0.8046
 7661TIP3   OH244473   2.494   6.483   4.815  0.0338 -0.7970 -0.0263
 7661TIP3    H144474   2.428   6.543   4.848 -0.4204 -0.5767 -1.2638
 7661TIP3    H244475   2.566   6.489   4.878 -1.6272 -2.0733  2.1147
 7662TIP3   OH244476   1.591   1.739   3.936 -0.2053 -0.0941  0.5691
 7662TIP3    H144477   1.660   1.677   3.959 -0.8732 -0.9490  0.3030
 7662TIP3    H244478   1.543   1.753   4.018  0.3160  0.5575  0.7712
 7663TIP3   OH244479   4.399   6.276   3.366 -0.1392 -0.0611 -0.1864
 7663TIP3    H144480   4.476   6.319   3.403 -0.4612 -0.9208  1.5599
 7663TIP3    H244481   4.331   6.343   3.367  0.1429  0.2298 -0.2514
 7664TIP3   OH244482   4.695   0.952  13.408  0.5920 -0.6816 -0.2378
 7664TIP3    H144483   4.773   0.912  13.447  0.5764  0.0667  0.6024
 7664TIP3    H244484   4.622   0.916  13.458  0.2745 -2.2822 -1.7870
 7665TIP3   OH244485   3.089   6.354  16.187 -0.4267  0.2841 -0.5886
 7665TIP3    H144486   3.015   6.300  16.215  1.2455 -2.1279 -0.4536
 7665TIP3    H244487   3.095   6.339  16.093  1.6737 -2.1665 -0.1871
 7666TIP3   OH244488   0.114   6.341  16.527  0.4208 -0.3876 -0.3687
 7666TIP3    H144489   0.109   6.274  16.459  0.6712 -0.5153 -0.2640
 7666TIP3    H244490   0.070   6.302  16.602  0.7890 -0.5402 -0.2273
 7667TIP3   OH244491   6.798   5.865  12.585  0.0342 -0.4056 -0.3842
 7667TIP3    H144492   6.866   5.867  12.652 -0.9574  0.3510  0.6293
 7667TIP3    H244493   6.733   5.804  12.618 -1.2169  1.1403  0.1318
 7668TIP3   OH244494   6.058   2.958  16.165  0.2446  0.1316  0.1236
 7668TIP3    H144495   6.085   3.025  16.103  1.2778 -0.4517 -0.0854
 7668TIP3    H244496   5.964   2.948  16.150  0.5884 -0.5894 -1.9788
 7669TIP3   OH244497   4.584   6.473   0.778 -0.4878 -0.3547  0.2010
 7669TIP3    H144498   4.527   6.408   0.819  0.2123 -0.3291  1.2349
 7669TIP3    H244499   4.634   6.423   0.714 -0.5044 -0.6874  0.4432
 7670TIP3   OH244500   0.897   0.326  11.907  0.4746  0.2449 -0.0033
 7670TIP3    H144501   0.845   0.406  11.908  1.8896  1.3005 -1.8604
 7670TIP3    H244502   0.865   0.278  11.831  1.3557  0.3489 -0.4625
 7671TIP3   OH244503   0.030   1.777   3.329 -0.1491  0.4664 -0.4733
 7671TIP3    H144504   0.058   1.820   3.410 -0.2896  1.0124 -0.7084
 7671TIP3    H244505  -0.002   1.848   3.274 -1.1718 -0.0380 -0.5513
 7672TIP3   OH244506   0.385   0.882   3.824 -0.0805 -0.2942 -0.1905
 7672TIP3    H144507   0.433   0.945   3.878  0.8522 -1.0821 -0.0748
 7672TIP3    H244508   0.416   0.898   3.735  0.4018 -0.7905 -0.1182
 7673TIP3   OH244509   2.671   3.695   1.278  0.1315  0.0546 -0.5249
 7673TIP3    H144510   2.613   3.770   1.295 -0.8103 -0.5937 -0.7624
 7673TIP3    H244511   2.666   3.643   1.358  0.4276  0.0207 -0.5297
 7674TIP3   OH244512   3.245   5.601  15.817  0.1449  0.1589 -0.1820
 7674TIP3    H144513   3.162   5.583  15.861 -0.1330  0.3183 -0.6308
 7674TIP3    H244514   3.231   5.685  15.772  0.2829 -0.1819 -0.8838
 7675TIP3   OH244515   6.597   1.711   5.430  0.0324  1.0653  0.1898
 7675TIP3    H144516   6.582   1.724   5.524  0.6347 -0.7268  0.5720
 7675TIP3    H244517   6.583   1.797   5.391 -1.4962  1.5833  1.7549
 7676TIP3   OH244518   4.932   3.971  12.651 -0.3639 -0.0953 -0.0034
 7676TIP3    H144519   4.895   3.886  12.674 -0.7107 -0.2764 -1.1576
 7676TIP3    H244520   4.999   3.951  12.585  1.8768  0.2142  2.0023
 7677TIP3   OH244521   5.419   2.670   5.820 -0.2250  0.2768 -0.2354
 7677TIP3    H144522   5.467   2.623   5.752  0.2902 -2.3361  1.7571
 7677TIP3    H244523   5.327   2.662   5.794 -0.0996 -1.3364 -0.3274
 7678TIP3   OH244524   0.145   1.247   3.201  0.0972 -0.0713 -0.0157
 7678TIP3    H144525   0.127   1.160   3.167  0.2976  0.2894 -1.0882
 7678TIP3    H244526   0.077   1.262   3.266  0.0585 -1.0231  0.1681
 7679TIP3   OH244527   1.525   6.249  14.604 -0.0472 -0.2738 -0.3111
 7679TIP3    H144528   1.499   6.161  14.631  0.5879 -0.0320  1.2260
 7679TIP3    H244529   1.596   6.235  14.541 -1.8617 -0.8716 -2.3578
 7680TIP3   OH244530   6.106   6.017  14.738  0.1406  0.7370 -0.1201
 7680TIP3    H144531   6.084   5.928  14.767 -2.5780  0.7500 -1.7999
 7680TIP3    H244532   6.064   6.074  14.803 -1.2405  0.7352 -0.9574
 7681TIP3   OH244533   0.912   0.619  12.856  0.7410 -0.6613  0.4341
 7681TIP3    H144534   0.850   0.633  12.927 -1.9398 -3.3574 -1.1465
 7681TIP3    H244535   0.914   0.703  12.810 -4.5402 -1.1284 -1.3443
 7682TIP3   OH244536   5.848   6.261   0.645 -0.3034  0.0819 -0.4054
 7682TIP3    H144537   5.870   6.208   0.722 -1.8430 -0.6627 -0.4355
 7682TIP3    H244538   5.774   6.315   0.673 -0.3288  0.4244 -1.1107
 7683TIP3   OH244539   2.359   4.871  13.754 -0.2026  0.6922 -0.2689
 7683TIP3    H144540   2.302   4.808  13.710  0.8577  0.1620 -0.9195
 7683TIP3    H244541   2.417   4.818  13.808  0.5247  1.1028 -0.6144
 7684TIP3   OH244542   1.691   4.645  11.739 -0.3382 -0.1436  0.3201
 7684TIP3    H144543   1.761   4.634  11.804 -1.8034 -0.5611  1.9226
 7684TIP3    H244544   1.677   4.556  11.705  1.8213  0.3650 -2.2229
 7685TIP3   OH244545   1.410   4.628   2.678  0.2291  0.4055  0.1945
 7685TIP3    H144546   1.463   4.659   2.604  0.5520 -0.1797  0.1744
 7685TIP3    H244547   1.321   4.659   2.659 -0.0134 -1.0407 -1.2296
 7686TIP3   OH244548   4.623   2.978   0.669 -0.1236  0.0401  0.2362
 7686TIP3    H144549   4.628   3.072   0.651 -0.3004  0.2003  1.0112
 7686TIP3    H244550   4.585   2.941   0.589 -0.0782  0.6297 -0.0648
 7687TIP3   OH244551   4.336   4.051   4.654 -0.1988  1.1394  0.0567
 7687TIP3    H144552   4.307   3.967   4.689  0.0139  1.2288  0.4590
 7687TIP3    H244553   4.383   4.029   4.574 -1.3864  0.9946 -0.6215
 7688TIP3   OH244554   4.940   1.783   0.868  0.8753  0.5048 -0.0760
 7688TIP3    H144555   4.900   1.830   0.794 -0.0399 -0.5295 -0.2684
 7688TIP3    H244556   5.033   1.806   0.863  0.1600  4.9528  1.8133
 7689TIP3   OH244557   4.335   4.324   3.040  0.2838  0.1632  0.5652
 7689TIP3    H144558   4.241   4.324   3.059 -0.1579 -1.1875 -1.3389
 7689TIP3    H244559   4.340   4.319   2.944  2.3177  0.9426  0.5729
 7690TIP3   OH244560   5.744   6.493  14.072 -0.1309  0.1222 -0.3307
 7690TIP3    H144561   5.686   6.422  14.045  0.2987 -0.1423 -0.5664
 7690TIP3    H244562   5.782   6.526  13.990 -0.1715  0.4925 -0.2045
 7691TIP3   OH244563   1.369   1.356   3.497 -0.3074  0.1521  0.9722
 7691TIP3    H144564   1.321   1.366   3.579 -1.9431  0.7873 -0.0196
 7691TIP3    H244565   1.334   1.425   3.440  1.3094  0.2012 -0.0385
 7692TIP3   OH244566   4.941   2.316   1.090 -0.3291  0.2865 -0.0664
 7692TIP3    H144567   4.939   2.283   1.000 -0.1702  1.7851 -0.6392
 7692TIP3    H244568   4.850   2.341   1.108 -0.5222 -0.7489  0.4994
 7693TIP3   OH244569   4.139   5.483   5.086 -0.0343 -0.0377  0.3128
 7693TIP3    H144570   4.139   5.402   5.034  2.2604  1.3021 -2.0053
 7693TIP3    H244571   4.122   5.453   5.176 -0.7000 -2.8992 -0.6510
 7694TIP3   OH244572   3.654   0.726  13.373 -0.0816  0.1730  0.2477
 7694TIP3    H144573   3.686   0.816  13.379  1.9787 -0.4574 -0.4565
 7694TIP3    H244574   3.618   0.719  13.284 -2.2253  0.8343  0.9866
 7695TIP3   OH244575   6.847   4.688  14.179  0.1373  0.3675 -0.6491
 7695TIP3    H144576   6.940   4.679  14.156 -0.1131 -0.2939 -1.4744
 7695TIP3    H244577   6.838   4.641  14.262  0.4046 -0.2121 -0.9411
 7696TIP3   OH244578   2.665   1.886  11.109  0.0375 -0.4695  0.7615
 7696TIP3    H144579   2.657   1.815  11.045 -1.6285 -0.6591  1.1269
 7696TIP3    H244580   2.626   1.962  11.066  2.0543  0.3440  0.2700
 7697TIP3   OH244581   5.502   5.246  12.293 -0.0054 -0.4693  0.2967
 7697TIP3    H144582   5.575   5.239  12.355 -0.5386  1.1570  1.1521
 7697TIP3    H244583   5.424   5.256  12.348 -0.6236 -0.0878 -0.6287
 7698TIP3   OH244584   4.723   3.750   4.134 -0.5593 -0.5997  0.2101
 7698TIP3    H144585   4.708   3.659   4.161  1.3130 -1.0639 -0.1324
 7698TIP3    H244586   4.780   3.743   4.058  0.0843  0.8736  0.5200
 7699TIP3   OH244587   0.490   5.397   2.223 -0.3965  0.3265 -0.2352
 7699TIP3    H144588   0.476   5.317   2.274 -3.0446  1.8910  1.7436
 7699TIP3    H244589   0.585   5.407   2.220 -0.0321 -2.2416  0.4752
 7700TIP3   OH244590   6.672   6.838  15.795  0.3696  0.3371  0.0169
 7700TIP3    H144591   6.589   6.800  15.826 -0.2018 -0.6234 -2.4322
 7700TIP3    H244592   6.646   6.918  15.749  1.0127  0.9548  0.7148
 7701TIP3   OH244593   1.097   1.760   2.034  0.1439  0.1278  0.0848
 7701TIP3    H144594   1.185   1.781   2.004 -0.8014  0.3144 -2.8687
 7701TIP3    H244595   1.067   1.840   2.078  1.0926  0.3809  0.2809
 7702TIP3   OH244596   6.361   6.281  10.496  0.1070 -0.0641  0.5229
 7702TIP3    H144597   6.296   6.335  10.451 -1.9244 -1.5849  1.5065
 7702TIP3    H244598   6.385   6.333  10.573  0.0243  0.4906  0.1807
 7703TIP3   OH244599   2.676   6.030   5.993  0.0344 -0.0341 -0.4568
 7703TIP3    H144600   2.762   6.049   5.956  0.8738 -0.2069  1.3448
 7703TIP3    H244601   2.676   6.071   6.079 -1.0649 -1.3955  0.2425
 7704TIP3   OH244602   6.770   4.647   3.133 -0.1318 -0.1847  0.4910
 7704TIP3    H144603   6.707   4.595   3.085 -0.5118  0.3425  0.4126
 7704TIP3    H244604   6.822   4.583   3.181  0.9754 -0.8158 -1.4389
 7705TIP3   OH244605   5.251   5.678  14.638  0.4226 -0.2940 -0.2119
 7705TIP3    H144606   5.173   5.625  14.654 -1.1499  1.8774 -0.3256
 7705TIP3    H244607   5.277   5.709  14.725  0.0881  0.4265 -0.3684
 7706TIP3   OH244608   5.091   1.588  16.023  0.2253  0.0564 -0.2443
 7706TIP3    H144609   5.182   1.587  16.050  0.5172  0.1443 -1.1870
 7706TIP3    H244610   5.066   1.495  16.018  1.1474 -0.1285 -2.7720
 7707TIP3   OH244611   4.019   3.545   3.777 -0.2597  0.1710 -0.2484
 7707TIP3    H144612   3.973   3.518   3.697 -0.6286  0.0589 -0.0023
 7707TIP3    H244613   4.108   3.565   3.748  0.0187 -1.2721 -0.4491
 7708TIP3   OH244614   6.138   3.143  13.436 -0.4997  0.0660  0.7516
 7708TIP3    H144615   6.232   3.131  13.425 -0.1676 -0.2297  3.2583
 7708TIP3    H244616   6.114   3.082  13.506 -2.1962  1.4259  1.4450
 7709TIP3   OH244617   3.609   4.488   5.445 -0.1703 -0.6360  0.4447
 7709TIP3    H144618   3.516   4.480   5.425 -0.4119  1.6547  0.3117
 7709TIP3    H244619   3.634   4.403   5.482 -1.8599 -1.9126 -1.1734
 7710TIP3   OH244620   0.092   5.422  16.877  0.8382  0.1928  0.9805
 7710TIP3    H144621   0.050   5.488  16.933  0.1282  0.8460 -0.2911
 7710TIP3    H244622   0.021   5.365  16.849  0.7745  1.1636 -1.0016
 7711TIP3   OH244623   5.119   3.042   4.236  0.2003 -0.3150 -0.1855
 7711TIP3    H144624   5.038   3.025   4.283  1.3617  0.0604  2.0779
 7711TIP3    H244625   5.103   3.009   4.147 -1.7397 -2.0001  0.7169
 7712TIP3   OH244626   2.292   0.837  16.472 -0.1209 -0.3794  0.3460
 7712TIP3    H144627   2.272   0.905  16.536 -1.2281 -0.8649  0.5241
 7712TIP3    H244628   2.381   0.859  16.441 -0.4634  1.1635  0.3642
 7713TIP3   OH244629   2.805   0.530  12.450 -0.2924  0.2546  0.3116
 7713TIP3    H144630   2.877   0.501  12.395  0.5194 -1.3538  2.1144
 7713TIP3    H244631   2.744   0.457  12.451 -1.2591  1.0331 -0.0049
 7714TIP3   OH244632   1.309   2.469  12.155  0.3837 -0.1579 -0.7880
 7714TIP3    H144633   1.237   2.421  12.196 -0.9831  1.1422 -1.5940
 7714TIP3    H244634   1.375   2.402  12.138 -1.1511 -1.6280 -1.2274
 7715TIP3   OH244635   6.805   2.829  15.990  0.1116  0.4731  0.1038
 7715TIP3    H144636   6.804   2.759  16.055  1.2978  0.1292 -0.2116
 7715TIP3    H244637   6.794   2.909  16.040 -0.0457  0.1390  0.6061
 7716TIP3   OH244638   2.170   4.819  11.380 -0.7053 -0.4862 -0.1336
 7716TIP3    H144639   2.134   4.830  11.469  1.2514  0.7300  0.5661
 7716TIP3    H244640   2.102   4.855  11.323 -2.4916 -2.2757  0.7253
 7717TIP3   OH244641   3.267   1.493   5.312  0.0817 -0.0667  0.1597
 7717TIP3    H144642   3.353   1.530   5.330 -0.3829  1.8392 -1.2064
 7717TIP3    H244643   3.248   1.519   5.222 -2.1817  0.1541  0.6330
 7718TIP3   OH244644   4.156   0.984   3.709  0.2289 -0.2529 -0.7706
 7718TIP3    H144645   4.152   1.011   3.617 -0.2574  0.3462 -0.5855
 7718TIP3    H244646   4.072   1.013   3.746 -0.9053 -3.1198 -0.8187
 7719TIP3   OH244647   6.394   1.890  14.336 -0.4690  0.2207 -0.5571
 7719TIP3    H144648   6.445   1.935  14.404  0.1824 -0.5989 -0.4822
 7719TIP3    H244649   6.362   1.960  14.280  0.7172  0.7765 -0.5780
 7720TIP3   OH244650   0.180   1.080  15.425  0.3659  0.0619  0.4133
 7720TIP3    H144651   0.207   1.095  15.516 -0.1756 -0.6909  0.7061
 7720TIP3    H244652   0.084   1.080  15.428  0.3351  0.4221 -0.2333
 7721TIP3   OH244653   6.712   0.460  14.228 -1.2881 -0.7422  0.0283
 7721TIP3    H144654   6.750   0.410  14.300  1.2306  1.3498  0.3088
 7721TIP3    H244655   6.707   0.398  14.155  2.0434 -1.4674  0.2421
 7722TIP3   OH244656   6.156   2.662   2.006  0.5261 -0.3750 -0.6888
 7722TIP3    H144657   6.204   2.584   1.978  1.2818  0.1710 -0.9768
 7722TIP3    H244658   6.118   2.638   2.090  0.1606 -1.2761 -1.0946
 7723TIP3   OH244659   3.626   4.867  14.197 -0.0923 -0.7027  0.5156
 7723TIP3    H144660   3.595   4.952  14.228 -1.0421 -1.4802  1.8376
 7723TIP3    H244661   3.594   4.861  14.107  1.4824  1.0186 -0.2222
 7724TIP3   OH244662   4.860   6.530  11.491  0.4364 -0.2088 -0.2632
 7724TIP3    H144663   4.832   6.441  11.512 -0.8575  0.5788  1.6681
 7724TIP3    H244664   4.933   6.546  11.551  0.0532  0.3475  0.0557
 7725TIP3   OH244665   1.987   4.974  15.602  0.1416 -0.6200 -0.1609
 7725TIP3    H144666   1.899   4.998  15.574 -0.0934 -2.6180 -1.2994
 7725TIP3    H244667   1.974   4.897  15.657  1.1972 -1.3432 -0.8913
 7726TIP3   OH244668   3.254   5.309  15.791 -0.0683  0.5638 -0.4201
 7726TIP3    H144669   3.171   5.350  15.818 -1.1563 -0.1498 -2.4501
 7726TIP3    H244670   3.277   5.353  15.710  0.7690 -0.2608 -0.6437
 7727TIP3   OH244671   0.361   0.418   3.736  0.4741 -0.1555 -0.6266
 7727TIP3    H144672   0.413   0.460   3.804 -0.9363  0.2859  0.2205
 7727TIP3    H244673   0.299   0.363   3.784 -0.3663 -0.0561 -1.5663
 7728TIP3   OH244674   2.700   3.132  13.240  0.3267 -0.0302 -0.4135
 7728TIP3    H144675   2.740   3.079  13.171  2.4259  0.8281  0.0969
 7728TIP3    H244676   2.616   3.088  13.257  1.6948 -2.8988 -0.3835
 7729TIP3   OH244677   6.567   4.393   2.301 -0.8769  0.2787 -0.0822
 7729TIP3    H144678   6.479   4.396   2.264 -1.2111 -1.7882  0.3725
 7729TIP3    H244679   6.553   4.380   2.395 -0.0615  1.7687  0.2730
 7730TIP3   OH244680   1.663   4.083   0.378  0.3827 -0.2888 -0.3416
 7730TIP3    H144681   1.645   4.126   0.294  2.4264  0.1711 -0.6004
 7730TIP3    H244682   1.749   4.043   0.366  0.7262 -0.1934  1.5652
 7731TIP3   OH244683   4.997   2.924  16.135 -0.8493  0.2322  0.3491
 7731TIP3    H144684   5.040   2.845  16.102  0.1780  0.9738 -0.1605
 7731TIP3    H244685   4.904   2.911  16.116 -0.6702 -0.7692  0.1105
 7732TIP3   OH244686   1.759   3.482   5.885 -0.2472  0.1550 -0.3113
 7732TIP3    H144687   1.798   3.495   5.972 -0.4219  0.9755 -0.3495
 7732TIP3    H244688   1.683   3.540   5.884 -0.4441 -0.1107 -0.8915
 7733TIP3   OH244689   4.982   2.412   5.766 -0.7003 -0.0164 -0.0947
 7733TIP3    H144690   4.898   2.422   5.810 -0.4002  0.3990  0.3891
 7733TIP3    H244691   5.044   2.394   5.837 -0.5528 -1.4027 -0.5390
 7734TIP3   OH244692   1.957   0.347   2.271 -0.3080 -0.1940  0.0091
 7734TIP3    H144693   2.038   0.375   2.230  1.0272 -2.1454  1.1790
 7734TIP3    H244694   1.965   0.375   2.363  0.1368 -2.3725  0.6916
 7735TIP3   OH244695   3.366   3.582   3.690 -0.1645 -0.2125  0.2769
 7735TIP3    H144696   3.316   3.531   3.626  0.8306  1.0859 -1.6390
 7735TIP3    H244697   3.308   3.653   3.715  0.5829  1.3378 -2.0042
 7736TIP3   OH244698   6.762   5.265  11.281 -0.2211  0.3080  0.4387
 7736TIP3    H144699   6.700   5.194  11.268  0.2601 -0.1436  0.5546
 7736TIP3    H244700   6.715   5.344  11.255  0.2400 -0.3413 -2.8848
 7737TIP3   OH244701   6.641   1.404   0.443  0.1461  0.0148 -0.0637
 7737TIP3    H144702   6.616   1.405   0.351 -1.9954 -0.2145  0.4751
 7737TIP3    H244703   6.690   1.485   0.455  2.3074 -0.9009 -1.8147
 7738TIP3   OH244704   6.758   0.719   6.157  0.3519 -0.9294 -0.2415
 7738TIP3    H144705   6.688   0.726   6.092  0.2473  0.3631 -0.0124
 7738TIP3    H244706   6.790   0.809   6.168 -0.3407 -0.9140  2.2521
 7739TIP3   OH244707   0.058   0.478  13.387 -1.3921 -0.4472  0.3455
 7739TIP3    H144708   0.048   0.566  13.422  0.6804 -0.8578  2.1589
 7739TIP3    H244709   0.137   0.483  13.332 -0.6844 -1.3698  1.2486
 7740TIP3   OH244710   5.752   5.035   0.725  0.3659  1.1490 -0.1682
 7740TIP3    H144711   5.808   4.960   0.706  0.6354  1.1315  0.6611
 7740TIP3    H244712   5.674   4.997   0.766  0.0918  1.2487 -0.5813
 7741TIP3   OH244713   2.372   6.789   4.461  0.2694 -0.5044  0.1620
 7741TIP3    H144714   2.396   6.829   4.377  1.7187 -1.5553  0.0353
 7741TIP3    H244715   2.455   6.761   4.499 -0.5804 -2.6034  0.6250
 7742TIP3   OH244716   2.254   3.782  12.650  0.4630 -0.3192  0.1080
 7742TIP3    H144717   2.253   3.800  12.556 -2.1678  0.3212  0.1765
 7742TIP3    H244718   2.297   3.858  12.689  0.1128  0.1888 -0.4856
 7743TIP3   OH244719   4.065   0.169   5.756  0.1087  0.5119  0.4501
 7743TIP3    H144720   4.069   0.141   5.664  0.2484 -1.9043  1.1217
 7743TIP3    H244721   4.077   0.264   5.752  1.0144  0.3914 -1.9626
 7744TIP3   OH244722   5.546   1.167   0.742 -0.2266  0.1354  0.0322
 7744TIP3    H144723   5.470   1.204   0.697  0.5911 -0.3805 -1.8745
 7744TIP3    H244724   5.512   1.090   0.787 -0.8658 -0.0115 -0.6838
 7745TIP3   OH244725   0.973   4.073  10.885 -0.5337  0.1329  0.7221
 7745TIP3    H144726   0.957   4.047  10.795 -1.4739  2.6867  0.0680
 7745TIP3    H244727   1.063   4.043  10.903  0.0632  0.4926 -1.4287
 7746TIP3   OH244728   6.563   0.451  11.400 -1.1302 -0.1666 -0.0412
 7746TIP3    H144729   6.658   0.441  11.407 -1.2351 -1.4464 -0.2830
 7746TIP3    H244730   6.547   0.456  11.305 -1.2228  1.1773  0.0145
 7747TIP3   OH244731   0.782   1.329  14.291 -0.0355 -0.7028 -0.0300
 7747TIP3    H144732   0.858   1.277  14.265 -0.1397 -0.5505 -0.6472
 7747TIP3    H244733   0.809   1.372  14.372  0.0391 -1.7604  0.5267
 7748TIP3   OH244734   4.982   4.756  14.534 -0.1260  0.0943  0.1474
 7748TIP3    H144735   4.893   4.725  14.518 -0.1178 -0.6879  1.4481
 7748TIP3    H244736   4.971   4.836  14.585 -0.0751  0.3446 -0.2240
 7749TIP3   OH244737   2.336   0.077  13.292 -0.4432  0.7308 -0.0796
 7749TIP3    H144738   2.361  -0.013  13.313 -0.9754  0.8132  0.9613
 7749TIP3    H244739   2.240   0.074  13.286 -0.4387  1.1615 -0.3762
 7750TIP3   OH244740   3.733   2.453   0.619 -0.0424  0.1279 -0.0958
 7750TIP3    H144741   3.818   2.419   0.647  0.7684  2.6040  0.6969
 7750TIP3    H244742   3.751   2.500   0.538 -0.7790  0.1112 -0.2731
 7751TIP3   OH244743   0.091   4.736  11.244 -0.0664 -0.5714  0.6358
 7751TIP3    H144744   0.063   4.804  11.305 -1.1558 -1.9281  1.7258
 7751TIP3    H244745   0.014   4.717  11.191  0.5789 -0.1266 -0.4960
 7752TIP3   OH244746   0.862   5.236   1.359 -0.1496  0.6557 -0.3018
 7752TIP3    H144747   0.912   5.177   1.416 -0.4731  0.9948  0.3431
 7752TIP3    H244748   0.863   5.320   1.405  1.7175  1.6438 -1.9773
 7753TIP3   OH244749   1.674   3.834  14.181 -0.0861 -0.2585  0.1072
 7753TIP3    H144750   1.591   3.790  14.162 -1.5934  2.9828 -1.6795
 7753TIP3    H244751   1.732   3.807  14.111 -0.3013 -0.9175  0.1735
 7754TIP3   OH244752   4.631   0.500   1.737  0.3746  0.1335 -0.5077
 7754TIP3    H144753   4.694   0.460   1.797  0.2360  0.6388 -0.0091
 7754TIP3    H244754   4.613   0.433   1.672 -1.1561 -1.2409  1.2530
 7755TIP3   OH244755   4.241   1.520  11.696  0.2437 -0.0337 -0.5761
 7755TIP3    H144756   4.179   1.447  11.709  1.9639 -1.7552 -1.4988
 7755TIP3    H244757   4.207   1.567  11.620 -1.2229  0.5380  0.3902
 7756TIP3   OH244758   0.905   1.409  14.543 -0.1136  0.0868  0.8482
 7756TIP3    H144759   0.949   1.475  14.598  1.8625 -0.2275 -0.2397
 7756TIP3    H244760   0.946   1.326  14.569  0.9334 -0.0568 -1.0735
 7757TIP3   OH244761   0.661   3.111   4.546 -0.0130 -0.0529 -0.0614
 7757TIP3    H144762   0.619   3.197   4.553 -1.4808 -0.7409  0.0470
 7757TIP3    H244763   0.661   3.077   4.635  2.4697  0.6551  0.2592
 7758TIP3   OH244764   1.698   4.324  13.169  0.1279 -0.1656 -0.0809
 7758TIP3    H144765   1.678   4.408  13.129  2.0015 -0.2586 -1.3229
 7758TIP3    H244766   1.628   4.266  13.141 -0.6688  0.7364  0.0146
 7759TIP3   OH244767   5.441   6.375   4.942 -0.0906  0.5334 -0.1293
 7759TIP3    H144768   5.398   6.306   4.993 -0.1125  1.6594  1.4611
 7759TIP3    H244769   5.478   6.329   4.866 -1.2938 -0.9840  0.1369
 7760TIP3   OH244770   3.234   1.163  14.574  0.5160 -0.2277 -0.2852
 7760TIP3    H144771   3.315   1.145  14.526  1.2526 -0.3597  0.9628
 7760TIP3    H244772   3.227   1.092  14.638  0.2979  0.6691  0.7180
 7761TIP3   OH244773   5.426   0.695   4.111 -0.1530  0.5422  0.0857
 7761TIP3    H144774   5.462   0.752   4.179  2.4864 -0.5047 -0.3277
 7761TIP3    H244775   5.385   0.756   4.049  1.3753  1.9231  0.3486
 7762TIP3   OH244776   1.996   1.785  15.094  0.1622  0.5294  0.2923
 7762TIP3    H144777   1.997   1.690  15.081 -0.5719  0.6629 -0.8979
 7762TIP3    H244778   2.086   1.812  15.080  0.3215  0.0422  0.3528
 7763TIP3   OH244779   5.193   2.119  12.494 -0.6132  0.3692 -0.1940
 7763TIP3    H144780   5.189   2.208  12.458  0.8208  1.8367  2.9581
 7763TIP3    H244781   5.283   2.108  12.523 -0.6783 -2.2727 -0.6872
 7764TIP3   OH244782   3.824   1.979  15.440  0.1519  0.2637 -0.1943
 7764TIP3    H144783   3.837   2.073  15.433 -0.2867  0.3038 -0.5706
 7764TIP3    H244784   3.754   1.960  15.378 -0.0995 -0.2371  0.2292
 7765TIP3   OH244785   4.328   3.019  16.721 -0.0403 -0.0112  0.1440
 7765TIP3    H144786   4.269   2.992  16.651 -0.5869 -0.9004  0.9357
 7765TIP3    H244787   4.357   2.938  16.762  1.9499  0.3862 -0.3692
 7766TIP3   OH244788   4.512   1.282  10.962 -0.6471 -0.1774  0.1337
 7766TIP3    H144789   4.515   1.332  10.880 -1.0105  0.3322  0.4308
 7766TIP3    H244790   4.565   1.204  10.944  1.3689  1.0952  0.1902
 7767TIP3   OH244791   4.868   5.149   4.384  0.3013 -0.3851 -0.2416
 7767TIP3    H144792   4.880   5.099   4.304 -0.4319 -1.5300  0.3419
 7767TIP3    H244793   4.777   5.177   4.382 -0.4665 -2.5273  1.3149
 7768TIP3   OH244794   2.098   1.467   5.034  0.0245 -0.8318 -0.3120
 7768TIP3    H144795   2.181   1.445   4.992  0.2196 -0.4032 -0.1609
 7768TIP3    H244796   2.047   1.386   5.031  0.6290 -1.2366  0.0108
 7769TIP3   OH244797   0.210   3.550  16.338  0.8676  0.4323 -0.4386
 7769TIP3    H144798   0.153   3.475  16.353  1.1146  0.5406  1.3630
 7769TIP3    H244799   0.187   3.581  16.251  0.5867 -1.5637 -1.1312
 7770TIP3   OH244800   4.928   4.161   0.679 -0.0441 -0.6078  0.4831
 7770TIP3    H144801   4.947   4.123   0.593  0.5539  1.2149 -0.2521
 7770TIP3    H244802   5.015   4.176   0.718 -0.3063 -1.1617  1.3033
 7771TIP3   OH244803   6.399   6.190   1.193  0.3459 -0.1561 -0.7064
 7771TIP3    H144804   6.448   6.201   1.112  0.2778  0.2206 -0.6990
 7771TIP3    H244805   6.460   6.218   1.262  0.3739 -0.3899 -0.6378
 7772TIP3   OH244806   0.040   5.229  15.602 -0.1419  0.6218  0.5872
 7772TIP3    H144807   0.051   5.297  15.668  0.4217 -0.1179  1.2844
 7772TIP3    H244808  -0.025   5.169  15.639  2.2704 -1.3820  1.8802
 7773TIP3   OH244809   2.084   4.939  16.144  0.2607  0.2553 -0.3500
 7773TIP3    H144810   2.169   4.980  16.162  0.9378 -1.3184  0.2092
 7773TIP3    H244811   2.024   4.982  16.205  1.0518  0.0802  0.5735
 7774TIP3   OH244812   5.973   4.892   2.249  0.3118  0.1007  0.0467
 7774TIP3    H144813   5.997   4.918   2.160 -1.6765 -1.8029 -1.1403
 7774TIP3    H244814   5.951   4.974   2.293  0.0032  0.9587 -1.6494
 7775TIP3   OH244815   1.568   0.385   1.639  0.0962  0.1651 -0.4090
 7775TIP3    H144816   1.563   0.478   1.661  2.5176  0.5631 -1.1719
 7775TIP3    H244817   1.479   0.361   1.613 -0.4284  2.5018 -1.0054
 7776TIP3   OH244818   0.831   4.148  11.598  0.1861  0.1323  0.5443
 7776TIP3    H144819   0.819   4.053  11.599  2.9838 -0.2899  0.3427
 7776TIP3    H244820   0.790   4.178  11.679 -2.2055 -0.9744 -0.1625
 7777TIP3   OH244821   3.542   6.827  13.805  0.9286  0.5434  0.3848
 7777TIP3    H144822   3.528   6.735  13.827  0.3970  0.4387 -0.3370
 7777TIP3    H244823   3.525   6.832  13.711  2.0534  1.1754  0.1958
 7778TIP3   OH244824   5.698   2.891  13.419  0.0562  0.2510 -0.0153
 7778TIP3    H144825   5.610   2.855  13.405 -0.1083  0.2140  1.0368
 7778TIP3    H244826   5.743   2.878  13.336 -0.9745  0.3761 -0.6105
 7779TIP3   OH244827   3.109   3.017  15.317 -0.2245  0.1992  0.1113
 7779TIP3    H144828   3.044   2.998  15.385 -0.1329 -0.0708  0.1259
 7779TIP3    H244829   3.114   3.112  15.314 -0.2834  0.2133  0.4364
 7780TIP3   OH244830   4.243   5.775   5.269  0.4864  0.2386 -0.0275
 7780TIP3    H144831   4.187   5.821   5.206  0.0899  0.9174  0.8134
 7780TIP3    H244832   4.184   5.714   5.314  0.6281  0.2463  0.1703
 7781TIP3   OH244833   1.883   3.096  11.994 -0.0943  0.0711 -0.4127
 7781TIP3    H144834   1.953   3.147  11.954  1.2583 -2.4098 -1.4067
 7781TIP3    H244835   1.920   3.068  12.078 -0.8399  0.6799  0.1367
 7782TIP3   OH244836   5.930   4.503   2.217 -0.3266 -0.1986 -0.1520
 7782TIP3    H144837   5.989   4.477   2.287  0.9148 -0.1605 -1.1528
 7782TIP3    H244838   5.864   4.434   2.213 -0.4382 -0.1726  1.0608
 7783TIP3   OH244839   6.009   6.098   2.694  0.4477  0.0469 -0.2596
 7783TIP3    H144840   6.029   6.191   2.682  2.2565 -0.2134  0.4399
 7783TIP3    H244841   5.916   6.091   2.676  0.5557  1.7458 -1.7599
 7784TIP3   OH244842   1.644   4.914   1.554 -0.2201  0.3676 -0.2884
 7784TIP3    H144843   1.714   4.850   1.548  0.1276  0.6632  0.4833
 7784TIP3    H244844   1.563   4.862   1.550  0.0206  0.0729 -1.6645
 7785TIP3   OH244845   4.782   3.542   1.158  0.4091 -0.3345  0.5235
 7785TIP3    H144846   4.715   3.518   1.221  1.0398  1.4123  1.9484
 7785TIP3    H244847   4.738   3.602   1.098  0.5679  0.5291  1.2461
 7786TIP3   OH244848   2.002   1.618   1.715  0.6142 -0.3917 -0.5458
 7786TIP3    H144849   1.967   1.612   1.804 -3.6948  2.3684 -1.7706
 7786TIP3    H244850   2.050   1.701   1.714  0.0474 -0.0677 -0.9671
 7787TIP3   OH244851   0.890   6.357  16.885 -0.1248  0.2458 -0.2747
 7787TIP3    H144852   0.944   6.324  16.813  0.9093 -2.7597  1.6626
 7787TIP3    H244853   0.833   6.283  16.907 -1.8634  1.7880  0.7203
 7788TIP3   OH244854   0.831   3.735   4.278  0.4548  0.2943 -0.1411
 7788TIP3    H144855   0.914   3.754   4.322 -0.0647 -0.6276  1.2997
 7788TIP3    H244856   0.813   3.643   4.299 -2.3250  1.1876  2.0550
 7789TIP3   OH244857   4.868   5.204  13.889 -0.1680 -0.5121  0.1157
 7789TIP3    H144858   4.857   5.253  13.807  1.5756  1.0352  0.7540
 7789TIP3    H244859   4.933   5.137  13.868  1.7790  1.1173  0.6576
 7790TIP3   OH244860   4.173   2.448  16.085  0.1813  0.7989  0.3667
 7790TIP3    H144861   4.171   2.377  16.150  1.2613 -0.1118 -0.5536
 7790TIP3    H244862   4.258   2.490  16.098 -0.5013  2.0223  0.9806
 7791TIP3   OH244863   4.144   6.588   0.128  0.4719 -0.3038 -0.2580
 7791TIP3    H144864   4.226   6.594   0.177  0.9194  0.3900 -1.0549
 7791TIP3    H244865   4.108   6.503   0.152  1.6728 -0.8296 -0.2465
 7792TIP3   OH244866   0.989   4.496   3.143 -0.4541 -0.1532  0.3104
 7792TIP3    H144867   1.068   4.442   3.151 -0.0908 -0.2328 -2.5818
 7792TIP3    H244868   0.922   4.435   3.114 -1.1896  0.2235  1.1721
 7793TIP3   OH244869   2.994   4.360   1.706  0.1267 -0.0404 -0.5665
 7793TIP3    H144870   3.034   4.421   1.768 -1.8267 -0.5492  1.3286
 7793TIP3    H244871   2.993   4.408   1.624  2.2192  0.9222 -0.1109
 7794TIP3   OH244872   0.860   0.094   1.924 -0.2921  0.3843 -0.7422
 7794TIP3    H144873   0.866   0.121   2.015 -1.7135 -4.9576  1.3344
 7794TIP3    H244874   0.767   0.096   1.903  0.0581  2.1532 -2.4409
 7795TIP3   OH244875   2.055   4.101   3.653 -0.3250 -0.3718  0.1384
 7795TIP3    H144876   1.980   4.157   3.670 -0.3764 -0.8573  1.6467
 7795TIP3    H244877   2.031   4.016   3.690 -0.1019 -1.3241 -1.7850
 7796TIP3   OH244878   1.317   5.158  13.100  0.0858 -0.1017  0.6737
 7796TIP3    H144879   1.330   5.170  13.006  1.6058 -0.4082  0.8294
 7796TIP3    H244880   1.369   5.226  13.141 -0.7381  0.1613  1.3020
 7797TIP3   OH244881   1.083   2.899   5.806 -0.5817 -0.3863  0.8941
 7797TIP3    H144882   1.016   2.901   5.738  0.2633  1.7298  0.0199
 7797TIP3    H244883   1.043   2.947   5.880 -0.8496 -1.1217  1.2307
 7798TIP3   OH244884   0.151   1.981   4.106 -0.3637  0.3147 -0.3378
 7798TIP3    H144885   0.155   2.035   4.186 -0.9382  2.8223 -1.8811
 7798TIP3    H244886   0.164   2.044   4.035  1.2327 -1.9768 -2.2312
 7799TIP3   OH244887   2.802   2.438  11.577  0.4882  0.1658  0.6208
 7799TIP3    H144888   2.806   2.348  11.608  2.2097 -0.6997 -1.7325
 7799TIP3    H244889   2.894   2.463  11.565  0.0475  2.2107  1.0850
 7800TIP3   OH244890   1.494   2.021  14.160 -0.0084 -0.0121 -0.5134
 7800TIP3    H144891   1.423   2.058  14.212  0.7929 -1.0768  1.4648
 7800TIP3    H244892   1.572   2.034  14.213  0.9145 -0.8899 -1.5991
 7801TIP3   OH244893   4.490   3.217   2.347  0.0129  0.1914 -0.3151
 7801TIP3    H144894   4.529   3.300   2.374 -0.1846  0.1029  0.2790
 7801TIP3    H244895   4.429   3.195   2.419  1.0219 -1.1124  0.1879
 7802TIP3   OH244896   4.399   6.055   2.082 -0.0853 -0.2295  0.5105
 7802TIP3    H144897   4.385   5.961   2.095 -0.6999 -0.1166  0.6958
 7802TIP3    H244898   4.463   6.060   2.010 -1.6190 -0.7722 -0.9646
 7803TIP3   OH244899   0.789   5.246   2.352  0.2794  0.0212 -0.4386
 7803TIP3    H144900   0.793   5.341   2.361 -0.4696  0.0777 -0.6254
 7803TIP3    H244901   0.851   5.226   2.282  0.1152  0.4197 -0.6996
 7804TIP3   OH244902   1.813   3.902  10.175  0.2802 -0.8525  0.1283
 7804TIP3    H144903   1.805   3.807  10.167 -0.0903 -0.8799  0.7235
 7804TIP3    H244904   1.900   3.915  10.213 -0.6221 -1.1262  2.4508
 7805TIP3   OH244905   3.860   0.510   5.389  0.0867 -0.3938 -0.3901
 7805TIP3    H144906   3.844   0.427   5.344 -0.9218  0.0437 -0.8745
 7805TIP3    H244907   3.943   0.541   5.354  0.9246 -1.6107  0.4412
 7806TIP3   OH244908   1.461   4.800  14.047 -0.8122 -0.7680  0.2046
 7806TIP3    H144909   1.410   4.871  14.008 -0.9396 -0.4113  1.0117
 7806TIP3    H244910   1.399   4.753  14.102 -0.9308 -2.0056 -0.9290
 7807TIP3   OH244911   1.111   4.947  13.181  0.7165 -0.4569  0.2029
 7807TIP3    H144912   1.159   4.926  13.261 -0.1373  0.6151  1.0330
 7807TIP3    H244913   1.124   5.041  13.169 -0.9768 -0.1706  0.3456
 7808TIP3   OH244914   4.851   1.823  12.198 -0.2908 -0.3104  0.0130
 7808TIP3    H144915   4.863   1.895  12.259  3.1234 -1.4606  0.8893
 7808TIP3    H244916   4.855   1.864  12.111 -1.5926  0.8841  0.4806
 7809TIP3   OH244917   6.141   3.839  13.040 -0.1600 -0.1245  0.2196
 7809TIP3    H144918   6.078   3.779  13.001  1.6801 -1.1783 -1.3033
 7809TIP3    H244919   6.131   3.920  12.991 -1.6733  0.4204  1.3445
 7810TIP3   OH244920   4.918   0.886  13.689  0.5199 -0.0327  0.1229
 7810TIP3    H144921   4.825   0.869  13.706  0.2452 -0.7950 -1.8444
 7810TIP3    H244922   4.963   0.836  13.756 -0.4724  0.7756  1.4451
 7811TIP3   OH244923   3.227   4.410   1.954 -1.0155 -0.0912  0.1092
 7811TIP3    H144924   3.183   4.495   1.947 -1.0198 -0.1409 -0.5431
 7811TIP3    H244925   3.259   4.392   1.865 -1.7015 -1.1339  0.0441
 7812TIP3   OH244926   3.061   0.130  13.309  0.1059  0.2575 -0.3130
 7812TIP3    H144927   2.969   0.154  13.300  0.1104  0.1203 -0.7687
 7812TIP3    H244928   3.108   0.212  13.296  0.1140  0.0632 -1.7036
 7813TIP3   OH244929   1.384   1.704  13.578 -0.2449  0.1511 -0.7481
 7813TIP3    H144930   1.306   1.710  13.634 -0.4449  0.5618 -1.0682
 7813TIP3    H244931   1.439   1.638  13.621 -0.4216  0.4187 -0.1011
 7814TIP3   OH244932   6.656   2.771   4.304 -0.1703 -0.0391 -0.4181
 7814TIP3    H144933   6.571   2.772   4.259  0.3326  0.0036 -1.3897
 7814TIP3    H244934   6.637   2.806   4.391 -1.6129 -2.2669  0.2592
 7815TIP3   OH244935   3.509   5.854   2.687 -0.0138  0.1643 -0.0969
 7815TIP3    H144936   3.508   5.794   2.762  0.8038 -1.7612 -1.5348
 7815TIP3    H244937   3.469   5.934   2.720 -0.5969 -0.9490  2.1109
 7816TIP3   OH244938   0.099   1.258   3.547 -0.0301  0.1237  0.1052
 7816TIP3    H144939   0.046   1.248   3.468  1.2243 -3.0470 -0.4997
 7816TIP3    H244940   0.189   1.247   3.517  0.5775  0.1187  1.8187
 7817TIP3   OH244941   2.928   6.234  10.882  0.0102  0.0120  0.2495
 7817TIP3    H144942   3.008   6.286  10.892  0.5108 -0.7973  0.5463
 7817TIP3    H244943   2.922   6.219  10.788  0.9392 -1.0124  0.3273
 7818TIP3   OH244944   1.591   6.530   2.124 -0.6598  0.5618  0.0631
 7818TIP3    H144945   1.682   6.505   2.139 -1.0523 -0.0096  1.8153
 7818TIP3    H244946   1.596   6.615   2.081  0.6975  0.0943 -0.7564
 7819TIP3   OH244947   2.234   0.026   3.332 -0.0416 -0.0844 -0.1791
 7819TIP3    H144948   2.320   0.029   3.374 -0.0901 -0.5452 -0.0416
 7819TIP3    H244949   2.254   0.013   3.239  0.0309 -0.5973 -0.0956
 7820TIP3   OH244950   6.097   1.256  13.701 -0.2295  0.4371 -0.1980
 7820TIP3    H144951   6.165   1.199  13.738 -2.2869 -0.3600  2.7478
 7820TIP3    H244952   6.078   1.319  13.771 -1.3055  1.7814 -1.6253
 7821TIP3   OH244953   4.960   3.873  11.329 -0.7555 -0.1028 -0.4140
 7821TIP3    H144954   4.964   3.785  11.292 -2.7160  0.6235 -2.5689
 7821TIP3    H244955   4.978   3.931  11.255 -3.7308  1.3956 -0.0837
 7822TIP3   OH244956   2.923   3.350   4.591  0.6376  0.0333  0.0949
 7822TIP3    H144957   2.928   3.416   4.523 -0.1045  0.3531  0.3337
 7822TIP3    H244958   2.848   3.377   4.644  0.2778 -1.0340  0.1519
 7823TIP3   OH244959   6.492   3.412  11.692 -0.0035  0.6868 -0.4784
 7823TIP3    H144960   6.511   3.453  11.777  0.0753 -1.5186  0.6661
 7823TIP3    H244961   6.573   3.423  11.642  1.0392 -0.4649  0.8584
 7824TIP3   OH244962   1.179   3.526  15.962 -0.0401 -0.4735 -0.1266
 7824TIP3    H144963   1.208   3.550  16.050  0.5865  0.2088 -0.5042
 7824TIP3    H244964   1.260   3.513  15.913 -0.2552  2.2416 -1.4288
 7825TIP3   OH244965   5.148   4.940   5.260 -0.0580 -0.0191  0.8631
 7825TIP3    H144966   5.122   4.848   5.258  0.7722 -0.2584  0.5939
 7825TIP3    H244967   5.230   4.942   5.211 -1.4593  1.3196 -1.6629
 7826TIP3   OH244968   1.134   2.961  15.893 -0.1268  0.5017 -0.2918
 7826TIP3    H144969   1.127   2.881  15.945  1.2248  0.5493 -0.0070
 7826TIP3    H244970   1.043   2.991  15.883 -0.4945 -0.0225  1.2241
 7827TIP3   OH244971   5.166   1.899  15.000  0.1475 -0.1598  0.0769
 7827TIP3    H144972   5.261   1.893  15.010  0.1469 -0.8229 -0.2910
 7827TIP3    H244973   5.135   1.808  15.003 -0.4629  0.0400  0.0579
 7828TIP3   OH244974   3.091   6.676  11.747 -0.3871  0.0653 -0.2674
 7828TIP3    H144975   3.021   6.632  11.699 -0.3325 -0.2634 -0.0494
 7828TIP3    H244976   3.087   6.637  11.834  0.0456  0.0700 -0.2472
 7829TIP3   OH244977   6.483   1.499   1.237  0.0542 -0.1854  0.3898
 7829TIP3    H144978   6.498   1.550   1.318  0.5130 -0.1175  0.2641
 7829TIP3    H244979   6.559   1.442   1.230  0.8884  1.0247 -0.9094
 7830TIP3   OH244980   0.013   0.371  11.090  0.1365 -0.0140  0.1302
 7830TIP3    H144981  -0.038   0.444  11.124 -2.0067 -1.3491 -0.0902
 7830TIP3    H244982  -0.051   0.315  11.047  1.3047 -3.1745  2.1826
 7831TIP3   OH244983   5.353   2.104  13.015  0.1184  0.6108 -0.0304
 7831TIP3    H144984   5.317   2.133  13.099 -0.3336  0.7188 -0.2576
 7831TIP3    H244985   5.312   2.161  12.950 -1.1830 -0.8491 -0.5440
 7832TIP3   OH244986   0.834   3.594  16.539 -0.1003 -0.1083 -0.3239
 7832TIP3    H144987   0.795   3.659  16.598  1.6638  0.0221  0.7693
 7832TIP3    H244988   0.783   3.514  16.554  0.7941 -0.3131  2.0432
 7833TIP3   OH244989   5.780   4.757   0.109 -0.8365  0.2412 -0.4320
 7833TIP3    H144990   5.715   4.761   0.039 -1.5257  0.1658  0.1982
 7833TIP3    H244991   5.830   4.838   0.100  0.0920 -0.4586 -1.9636
 7834TIP3   OH244992   3.279   2.427   3.394 -0.0964 -0.0510  0.4222
 7834TIP3    H144993   3.211   2.493   3.382  0.2682  0.3569  0.5496
 7834TIP3    H244994   3.233   2.348   3.421 -0.5601  0.0877  0.0344
 7835TIP3   OH244995   1.121   5.022   0.473 -0.3183  0.3199  0.2184
 7835TIP3    H144996   1.118   5.014   0.378  0.2371 -0.4427  0.2613
 7835TIP3    H244997   1.214   5.023   0.494 -0.4378 -0.3406  0.8159
 7836TIP3   OH244998   4.449   4.286   5.835  0.4355  0.1040 -0.1736
 7836TIP3    H144999   4.366   4.327   5.812  0.0450  0.4498  1.7736
 7836TIP3    H245000   4.454   4.209   5.777 -0.1287  1.2926 -1.8883
 7837TIP3   OH245001   5.677   1.527  11.826 -0.1348  0.0248  0.4101
 7837TIP3    H145002   5.676   1.432  11.812  0.4169  0.0988 -0.2057
 7837TIP3    H245003   5.763   1.544  11.864 -0.6935  0.1406  1.6773
 7838TIP3   OH245004   2.858   2.681   2.288 -0.6646 -0.0402 -0.4126
 7838TIP3    H145005   2.850   2.615   2.356 -1.6693 -0.1245 -0.6090
 7838TIP3    H245006   2.874   2.632   2.208  1.6199  0.0988 -0.1084
 7839TIP3   OH245007   2.080   1.804  13.816 -0.1532  0.4313 -0.0462
 7839TIP3    H145008   2.118   1.890  13.830  0.7432  0.1501 -0.6801
 7839TIP3    H245009   2.029   1.813  13.735  1.0994  0.0168 -0.9078
 7840TIP3   OH245010   1.105   5.058  14.051 -0.6611 -0.3358 -0.2475
 7840TIP3    H145011   1.195   5.077  14.025 -1.0754  1.9186 -0.2661
 7840TIP3    H245012   1.071   5.003  13.980  0.4894 -0.6535 -0.5722
 7841TIP3   OH245013   0.324   0.057   3.443 -0.1410  0.7322  0.5526
 7841TIP3    H145014   0.368   0.027   3.522 -0.1153  2.5041  1.2603
 7841TIP3    H245015   0.241   0.093   3.474 -0.8155  0.0625 -0.4225
 7842TIP3   OH245016   6.656   4.593   1.698  0.4347  0.3583 -0.4187
 7842TIP3    H145017   6.617   4.505   1.704  0.2520  0.5331  1.4817
 7842TIP3    H245018   6.632   4.635   1.780  0.5217  2.2167 -1.3000
 7843TIP3   OH245019   0.693   0.399   0.125 -0.1724  0.0204 -0.6728
 7843TIP3    H145020   0.675   0.309   0.154  0.4411 -0.5035 -1.8282
 7843TIP3    H245021   0.774   0.424   0.169 -2.2234  1.4733  2.6244
 7844TIP3   OH245022   3.385   6.055   2.858 -0.3829  0.0745  0.0127
 7844TIP3    H145023   3.346   6.107   2.929 -0.9724  1.5498 -1.3272
 7844TIP3    H245024   3.460   6.107   2.829  0.6318 -1.1392  0.3641
 7845TIP3   OH245025   2.911   3.901  15.594  0.0381 -0.1011 -0.1279
 7845TIP3    H145026   2.901   3.806  15.597 -0.9619  0.0077  0.2655
 7845TIP3    H245027   2.845   3.931  15.531 -0.7451  0.4502  0.9173
 7846TIP3   OH245028   4.446   2.734   4.533  0.3418  0.5070 -0.2131
 7846TIP3    H145029   4.476   2.733   4.623  0.9707 -0.2879 -0.4209
 7846TIP3    H245030   4.351   2.733   4.539  0.3864 -0.5755  0.4359
 7847TIP3   OH245031   5.249   0.780   1.663 -0.1059 -0.4552  0.0279
 7847TIP3    H145032   5.198   0.808   1.740 -0.7576  0.5432 -0.7332
 7847TIP3    H245033   5.339   0.802   1.685 -0.0427 -1.7195  1.1672
 7848TIP3   OH245034   1.760   2.986   3.469  0.2955  0.0097  0.1940
 7848TIP3    H145035   1.827   2.919   3.453  0.7296  0.0015  1.9101
 7848TIP3    H245036   1.681   2.951   3.428  0.7445 -1.1308  0.2687
 7849TIP3   OH245037   3.603   2.209  10.948 -0.1550 -0.3460  0.0233
 7849TIP3    H145038   3.697   2.216  10.961 -0.0705  0.0522 -0.8005
 7849TIP3    H245039   3.590   2.219  10.854 -0.9090 -1.6585 -0.0397
 7850TIP3   OH245040   4.584   6.488   5.096  0.3715  0.8129  0.0195
 7850TIP3    H145041   4.576   6.578   5.126 -1.7719  1.4313 -2.0526
 7850TIP3    H245042   4.540   6.487   5.011 -0.6461 -2.4022  0.4230
 7851TIP3   OH245043   2.349   2.349   5.102  0.0608 -0.2541 -0.2915
 7851TIP3    H145044   2.435   2.341   5.142 -0.2368 -0.1422  0.3958
 7851TIP3    H245045   2.347   2.281   5.035 -0.0613 -1.6435  1.0656
 7852TIP3   OH245046   3.248   2.997   5.103  0.3814 -0.6645  0.7017
 7852TIP3    H145047   3.260   2.902   5.100  0.7767 -0.5970 -0.0612
 7852TIP3    H245048   3.336   3.032   5.118  0.4700 -0.3653 -0.4171
 7853TIP3   OH245049   0.713   5.519  16.038  0.6762 -0.2661 -0.0652
 7853TIP3    H145050   0.800   5.559  16.030  1.3456 -1.7421 -0.4949
 7853TIP3    H245051   0.727   5.443  16.094 -0.5380  0.0075  0.6308
 7854TIP3   OH245052   6.756   0.205  11.918  0.3619  0.3646  0.9275
 7854TIP3    H145053   6.782   0.223  12.009 -0.7088  0.8183  1.1690
 7854TIP3    H245054   6.739   0.111  11.916  2.4637 -0.0549  0.6146
 7855TIP3   OH245055   3.170   3.193   4.106  0.6547 -0.1489  0.0472
 7855TIP3    H145056   3.260   3.206   4.137  0.8091 -0.0078 -0.4512
 7855TIP3    H245057   3.122   3.164   4.184  1.6209 -2.4788 -0.1336
 7856TIP3   OH245058   3.649   2.105  15.244 -0.1135 -0.1243 -0.1581
 7856TIP3    H145059   3.692   2.183  15.209 -1.3278  0.5075 -0.2944
 7856TIP3    H245060   3.629   2.128  15.335 -0.7654 -0.1372 -0.2934
 7857TIP3   OH245061   6.570   0.867   4.677 -0.1231 -0.9399  0.3817
 7857TIP3    H145062   6.514   0.793   4.653  0.3773 -1.3941  0.5946
 7857TIP3    H245063   6.509   0.935   4.704 -0.6160 -1.0799 -0.3321
 7858TIP3   OH245064   2.975   2.702   4.219 -0.4307 -0.4404 -0.0639
 7858TIP3    H145065   3.044   2.638   4.236 -0.9833 -1.1794 -0.4989
 7858TIP3    H245066   3.020   2.776   4.179 -0.0108 -1.3748 -1.4170
 7859TIP3   OH245067   1.534   4.422  12.221  0.1524 -0.0720  0.3920
 7859TIP3    H145068   1.591   4.451  12.150  0.0271 -2.0506 -0.5928
 7859TIP3    H245069   1.585   4.355  12.267 -1.3696 -2.1050 -0.6891
 7860TIP3   OH245070   1.467   1.698   5.816 -0.2244  0.3993  0.1975
 7860TIP3    H145071   1.404   1.768   5.832 -0.6694 -0.2544  1.3961
 7860TIP3    H245072   1.542   1.720   5.872  0.1798  0.5824 -0.3953
 7861TIP3   OH245073   5.701   6.797   4.292 -0.4102  0.2765 -0.3078
 7861TIP3    H145074   5.775   6.856   4.308 -0.6916  0.3015  0.9743
 7861TIP3    H245075   5.624   6.854   4.295 -0.5346  0.1631 -1.1216
 7862TIP3   OH245076   0.267   4.508   6.083  0.1374  0.1528  0.4124
 7862TIP3    H145077   0.228   4.596   6.081  0.9015  0.4971 -0.7080
 7862TIP3    H245078   0.360   4.524   6.098  0.1126 -0.5551  1.4010
 7863TIP3   OH245079   5.181   0.893  16.380  0.1111  0.0065  0.0013
 7863TIP3    H145080   5.214   0.949  16.310  0.3722 -0.9292 -0.6486
 7863TIP3    H245081   5.100   0.935  16.408 -1.8872 -1.3253 -3.2344
 7864TIP3   OH245082   4.867   4.848  14.063 -0.1433 -0.3080  0.3061
 7864TIP3    H145083   4.854   4.857  13.968 -1.1270 -0.7084  0.3823
 7864TIP3    H245084   4.863   4.937  14.097  0.0271 -0.1787 -0.0039
 7865TIP3   OH245085   6.544   1.947   6.221 -0.5369  0.0781 -0.1880
 7865TIP3    H145086   6.519   2.013   6.286  0.1488  0.2280 -0.0725
 7865TIP3    H245087   6.581   1.997   6.148  1.4484 -0.2385  0.5451
 7866TIP3   OH245088   4.381   3.582   1.763 -0.2620 -0.2004  0.0889
 7866TIP3    H145089   4.287   3.588   1.775 -0.3350  1.3276 -0.9837
 7866TIP3    H245090   4.414   3.669   1.786  0.9630 -0.8724  0.9851
 7867TIP3   OH245091   3.403   3.976   1.989 -0.0711 -0.4796  0.4526
 7867TIP3    H145092   3.404   4.010   2.079 -1.5221  1.3005 -0.1224
 7867TIP3    H245093   3.310   3.959   1.972  0.2933 -1.6618 -0.4180
 7868TIP3   OH245094   2.228   2.579  14.334 -0.3133 -0.7149  0.2632
 7868TIP3    H145095   2.229   2.641  14.260 -0.8299  0.9219  1.5539
 7868TIP3    H245096   2.290   2.511  14.309  0.6165  0.5421 -1.0735
 7869TIP3   OH245097   5.427   6.069   5.077 -0.7356  0.6576  0.7495
 7869TIP3    H145098   5.392   6.043   5.162 -1.3025  0.7475  0.5473
 7869TIP3    H245099   5.358   6.047   5.014  0.0970 -0.4165  0.1647
 7870TIP3   OH245100   1.897   0.620   4.007 -0.4688 -0.2704  0.0502
 7870TIP3    H145101   1.923   0.696   4.059  0.5183  0.4087 -1.3732
 7870TIP3    H245102   1.845   0.567   4.066 -0.7427  1.2671  1.2383
 7871TIP3   OH245103   3.619   3.405   3.033  0.1521  0.2089  0.4298
 7871TIP3    H145104   3.525   3.388   3.026 -0.0958 -0.2413  3.6844
 7871TIP3    H245105   3.624   3.491   3.074  1.2875  1.3322 -1.8420
 7872TIP3   OH245106   5.831   2.596   2.568  0.0569 -0.2414 -0.1252
 7872TIP3    H145107   5.902   2.643   2.611  0.4592 -0.9624  0.0194
 7872TIP3    H245108   5.875   2.538   2.505 -0.3141 -1.4392  0.6747
 7873TIP3   OH245109   2.937   2.555   0.298  0.7205  0.2308  0.1108
 7873TIP3    H145110   3.018   2.577   0.253  0.3408  0.6101 -0.3951
 7873TIP3    H245111   2.882   2.632   0.288 -0.2359 -0.5327 -0.7903
 7874TIP3   OH245112   4.385   6.012   5.755 -0.1952  0.0635  0.0259
 7874TIP3    H145113   4.314   5.989   5.816 -0.1250 -0.0841  0.0494
 7874TIP3    H245114   4.365   5.963   5.675  0.5205 -0.8960  0.4220
 7875TIP3   OH245115   3.437   1.043  12.747 -0.1995 -0.4618  0.1459
 7875TIP3    H145116   3.511   1.069  12.693 -1.2547  0.2528 -1.0065
 7875TIP3    H245117   3.451   0.950  12.764  0.4361 -0.5840 -0.9470
 7876TIP3   OH245118   6.292   4.673  12.876 -0.5650 -0.5880  0.0044
 7876TIP3    H145119   6.375   4.629  12.895  0.6251  2.1924  1.8761
 7876TIP3    H245120   6.227   4.619  12.921  0.5835 -1.3391  0.8334
 7877TIP3   OH245121   6.687   5.475   2.753 -0.0009  0.4299  0.3861
 7877TIP3    H145122   6.610   5.493   2.806  0.1332 -0.0163  0.7381
 7877TIP3    H245123   6.744   5.551   2.766  0.2843  0.0689  1.3452
 7878TIP3   OH245124   4.120   4.390   7.094 -0.3131 -0.2961 -0.0236
 7878TIP3    H145125   4.049   4.345   7.049 -1.3350  1.1284  0.0907
 7878TIP3    H245126   4.112   4.481   7.066 -0.1831  0.3912  1.9930
 7879TIP3   OH245127   2.176   5.223  11.910 -0.4130 -0.4291  0.3813
 7879TIP3    H145128   2.205   5.302  11.864  0.1170  0.0489  1.4939
 7879TIP3    H245129   2.081   5.231  11.912 -0.4716 -0.5916 -0.8374
 7880TIP3   OH245130   5.244   1.373   3.144 -0.3455  0.0236  0.0348
 7880TIP3    H145131   5.264   1.461   3.175  0.8832 -0.7990  1.8033
 7880TIP3    H245132   5.170   1.384   3.085  1.0093  2.4496 -1.3613
 7881TIP3   OH245133   0.199   6.765  15.555 -0.0241 -0.1959 -0.5030
 7881TIP3    H145134   0.121   6.717  15.581  0.7965 -0.6619  1.1864
 7881TIP3    H245135   0.223   6.728  15.470 -2.2198  0.7000 -1.5761
 7882TIP3   OH245136   2.866   0.830  14.504  0.2521 -0.0859  0.0022
 7882TIP3    H145137   2.877   0.738  14.480  1.5033 -0.4668  1.7849
 7882TIP3    H245138   2.844   0.874  14.423 -1.0567 -2.0553 -0.7914
 7883TIP3   OH245139   3.069   3.472   0.385 -0.0129 -0.6008  0.4063
 7883TIP3    H145140   3.060   3.379   0.364  1.0836 -0.4322 -0.9718
 7883TIP3    H245141   2.979   3.506   0.387 -0.3360 -1.3724 -0.6372
 7884TIP3   OH245142   0.611   1.561  11.670  0.1493 -0.6411 -0.1432
 7884TIP3    H145143   0.618   1.495  11.738  0.9733 -0.8592 -0.4319
 7884TIP3    H245144   0.517   1.584  11.668  0.3335  0.6864  2.2943
 7885TIP3   OH245145   5.177   0.978  12.667  0.2132 -0.7091  0.5768
 7885TIP3    H145146   5.085   0.952  12.654 -0.0004  0.0920  0.3982
 7885TIP3    H245147   5.209   0.996  12.579 -0.1280  1.1250  0.7773
 7886TIP3   OH245148   5.066   1.610  13.641 -0.1322  0.3807 -0.2065
 7886TIP3    H145149   5.005   1.633  13.711  0.1866  2.3637 -0.5244
 7886TIP3    H245150   5.072   1.515  13.645 -0.2182  0.4140  2.3544
 7887TIP3   OH245151   2.668   6.626   1.268  0.2588  0.6580 -0.0834
 7887TIP3    H145152   2.643   6.539   1.238 -0.2820  0.8320 -0.1538
 7887TIP3    H245153   2.763   6.629   1.257  0.5128 -0.5095  1.4720
 7888TIP3   OH245154   4.709   3.758  16.522  0.2081  0.8750  0.0026
 7888TIP3    H145155   4.643   3.824  16.501 -0.8133  0.2694  1.2120
 7888TIP3    H245156   4.670   3.675  16.497  0.4964  0.5134  0.7183
 7889TIP3   OH245157   4.101   4.275  15.738  0.1732  0.6883 -0.2859
 7889TIP3    H145158   4.126   4.255  15.828 -0.2685 -0.0442 -0.3131
 7889TIP3    H245159   4.040   4.348  15.745 -0.6646 -0.0238  0.1183
 7890TIP3   OH245160   5.624   4.248   3.332  0.0693 -0.0121  0.0686
 7890TIP3    H145161   5.649   4.157   3.350 -1.9496 -0.7605 -0.6298
 7890TIP3    H245162   5.601   4.283   3.418 -1.4601 -0.9599  0.0917
 7891TIP3   OH245163   5.704   1.256  14.249  0.0845  1.0427  0.0960
 7891TIP3    H145164   5.681   1.297  14.165 -0.4418  0.4300 -0.0587
 7891TIP3    H245165   5.629   1.274  14.306  1.3187  3.3349  1.1370
 7892TIP3   OH245166   4.157   2.103   3.414 -0.1004 -0.2962  0.4835
 7892TIP3    H145167   4.224   2.063   3.469 -2.1242 -3.1214  1.1057
 7892TIP3    H245168   4.089   2.131   3.475 -0.6257  0.2244 -0.3149
 7893TIP3   OH245169   4.690   3.741  14.137  0.3432  0.2212  0.0355
 7893TIP3    H145170   4.609   3.775  14.174  0.9825 -0.1020  1.8339
 7893TIP3    H245171   4.712   3.802  14.066 -1.1722  0.6021 -0.1309
 7894TIP3   OH245172   3.599   2.201  13.425  0.0478  0.7105 -0.3279
 7894TIP3    H145173   3.532   2.136  13.447 -0.3796  0.2093 -2.8442
 7894TIP3    H245174   3.673   2.180  13.483 -0.8678 -0.6203  0.4094
 7895TIP3   OH245175   6.282   4.586  14.034 -0.7054 -0.6625  0.3748
 7895TIP3    H145176   6.271   4.627  13.948 -1.3213 -0.4355  0.5538
 7895TIP3    H245177   6.370   4.613  14.062 -1.5900  1.8017  1.1053
 7896TIP3   OH245178   2.333   5.430  15.980 -0.5606 -0.4937 -0.2689
 7896TIP3    H145179   2.345   5.339  15.956  0.5850 -0.9041  1.5971
 7896TIP3    H245180   2.256   5.431  16.037  0.8990 -0.8164  1.8432
 7897TIP3   OH245181   5.843   0.204   2.018 -0.0039 -0.4653 -0.0735
 7897TIP3    H145182   5.791   0.172   2.091 -1.8842 -1.3027 -1.6793
 7897TIP3    H245183   5.846   0.131   1.956  0.1217  0.7254 -1.5374
 7898TIP3   OH245184   2.654   1.751   1.646  0.4336  0.1116  0.3780
 7898TIP3    H145185   2.610   1.713   1.571  1.8495 -0.1976 -0.3283
 7898TIP3    H245186   2.620   1.840   1.652  1.6464  0.7856 -1.8065
 7899TIP3   OH245187   2.969   2.381   5.454 -0.3537 -0.1297  0.1880
 7899TIP3    H145188   2.874   2.374   5.443 -0.3013 -1.5728  0.3820
 7899TIP3    H245189   3.005   2.325   5.385  0.3124 -0.5085  0.8253
 7900TIP3   OH245190   0.635   6.592  12.209 -1.0027  0.2929  0.5422
 7900TIP3    H145191   0.654   6.556  12.295  0.2625 -0.1329  0.1049
 7900TIP3    H245192   0.560   6.650  12.223  0.6057  2.0675  2.3889
 7901TIP3   OH245193   0.528   0.029   0.957  0.2914  0.2017 -0.3295
 7901TIP3    H145194   0.445   0.060   0.993  0.8669  1.4872 -0.0430
 7901TIP3    H245195   0.589   0.102   0.970  0.9738  0.0588 -2.3446
 7902TIP3   OH245196   4.245   2.973   4.530 -0.1992 -0.3947  0.6792
 7902TIP3    H145197   4.239   3.055   4.579  0.1292  0.0619 -0.0245
 7902TIP3    H245198   4.284   2.911   4.591 -0.4366 -0.0245  1.2161
 7903TIP3   OH245199   1.713   5.672  12.668 -0.1673 -0.3324 -0.2615
 7903TIP3    H145200   1.756   5.681  12.582 -0.6294  0.1615 -0.4494
 7903TIP3    H245201   1.697   5.578  12.677 -0.1302 -0.3856 -0.7250
 7904TIP3   OH245202   5.940   3.014   3.515 -0.3171  0.0538  0.5883
 7904TIP3    H145203   5.849   2.984   3.511 -0.2867  0.0141  0.1681
 7904TIP3    H245204   5.970   3.010   3.424  0.6532 -1.6498  0.9500
 7905TIP3   OH245205   6.628   1.085  13.226 -0.0537 -0.0534 -0.0681
 7905TIP3    H145206   6.674   1.140  13.289 -0.0010  0.1041 -0.2412
 7905TIP3    H245207   6.592   1.013  13.278  1.6856 -1.0218 -0.1485
 7906TIP3   OH245208   0.528   3.507   1.469  0.1521 -0.1991  1.1705
 7906TIP3    H145209   0.595   3.493   1.402  0.1119  0.3114  1.0236
 7906TIP3    H245210   0.529   3.601   1.485 -2.1797  0.2150 -0.5759
 7907TIP3   OH245211   5.817   2.674   4.907 -0.0327  0.3115  0.1009
 7907TIP3    H145212   5.826   2.610   4.837  0.6623  1.3933 -0.8329
 7907TIP3    H245213   5.886   2.738   4.890 -0.4192  1.0713  1.2635
 7908TIP3   OH245214   0.427   1.514  12.304 -0.6490  0.3571 -0.5505
 7908TIP3    H145215   0.511   1.559  12.315  0.0193 -1.1417  1.0193
 7908TIP3    H245216   0.418   1.460  12.383 -1.4333 -2.1861 -2.2463
 7909TIP3   OH245217   0.042   3.782   3.477  0.2986  0.7503  0.2102
 7909TIP3    H145218   0.039   3.780   3.381 -0.2883  0.5482  0.2341
 7909TIP3    H245219  -0.025   3.846   3.502 -2.3198 -1.9390  0.6168
 7910TIP3   OH245220   4.940   0.052  16.946  0.6846 -0.2866 -0.3393
 7910TIP3    H145221   5.006   0.118  16.970  0.9141 -0.3780 -0.7110
 7910TIP3    H245222   4.925   0.003  17.027  1.4006 -0.5482 -0.3554
 7911TIP3   OH245223   2.449   2.923   2.352 -0.6382 -0.0902  0.6281
 7911TIP3    H145224   2.423   2.949   2.441 -2.1176  0.9508 -0.0735
 7911TIP3    H245225   2.406   2.986   2.295  1.6175  0.3033 -0.7787
 7912TIP3   OH245226   4.765   4.835   3.191 -0.0371 -0.4671 -0.0455
 7912TIP3    H145227   4.706   4.780   3.242 -0.3375  0.8142  1.0660
 7912TIP3    H245228   4.728   4.923   3.198  0.6544 -0.0309 -1.4101
 7913TIP3   OH245229   5.203   4.641  13.717 -0.0734  0.6112 -0.5046
 7913TIP3    H145230   5.197   4.645  13.621  1.4670  1.7009 -0.5805
 7913TIP3    H245231   5.289   4.603  13.734  0.1508  1.5029  0.4432
 7914TIP3   OH245232   0.252   5.905   1.095 -0.2012  0.1112 -0.4752
 7914TIP3    H145233   0.291   5.958   1.163 -2.2795  0.5990  0.4170
 7914TIP3    H245234   0.239   5.819   1.135  2.9199 -1.1439 -1.8320
 7915TIP3   OH245235   4.448   5.247  11.724 -0.4351  0.1953 -0.9198
 7915TIP3    H145236   4.445   5.267  11.630  4.1240  0.8652 -1.1618
 7915TIP3    H245237   4.365   5.279  11.758 -2.0095  0.5498 -4.5792
 7916TIP3   OH245238   5.135   0.280  16.481  0.4380 -0.2368 -0.5352
 7916TIP3    H145239   5.112   0.193  16.515 -0.2696 -0.2642 -1.0549
 7916TIP3    H245240   5.229   0.288  16.498  0.3770 -0.8188  0.1415
 7917TIP3   OH245241   4.466   6.232  15.452  0.1674 -0.2577 -0.1106
 7917TIP3    H145242   4.422   6.158  15.494 -1.3163  0.1504 -0.8943
 7917TIP3    H245243   4.421   6.309  15.486  1.4526  0.2979  0.4046
 7918TIP3   OH245244   6.583   6.840   1.254  0.2801 -0.5048  0.7524
 7918TIP3    H145245   6.570   6.901   1.181 -0.1161 -0.8955  0.4838
 7918TIP3    H245246   6.529   6.876   1.325 -1.5151 -1.5382 -0.0156
 7919TIP3   OH245247   3.317   6.170   1.500 -0.8230 -0.2975  0.1761
 7919TIP3    H145248   3.354   6.088   1.533 -1.7432 -0.8344 -0.1051
 7919TIP3    H245249   3.235   6.144   1.457 -0.7962  0.6807 -0.4953
 7920TIP3   OH245250   4.159   5.983   0.736  0.2115 -0.6464  0.1851
 7920TIP3    H145251   4.193   5.907   0.784  0.9602  0.0699  0.8076
 7920TIP3    H245252   4.116   6.037   0.802  0.4724 -0.0846 -0.0989
 7921TIP3   OH245253   3.572   5.426   4.032 -0.3876 -0.0171  0.5659
 7921TIP3    H145254   3.625   5.404   3.956 -0.0597 -2.2126  1.3716
 7921TIP3    H245255   3.605   5.512   4.059  1.7406 -0.6330  0.1429
 7922TIP3   OH245256   5.175   0.800   0.327  0.0050 -0.4156 -0.0143
 7922TIP3    H145257   5.132   0.729   0.374 -0.3804 -0.8493 -1.0114
 7922TIP3    H245258   5.261   0.807   0.368 -1.0887  0.7219  2.2848
 7923TIP3   OH245259   0.836   1.497  11.513 -0.0136  0.3645 -0.4279
 7923TIP3    H145260   0.764   1.534  11.564  0.4046 -0.6839  1.0013
 7923TIP3    H245261   0.913   1.546  11.541  0.3669 -0.7919  0.6969
 7924TIP3   OH245262   5.749   3.168  15.277 -0.3255  0.4819  0.2940
 7924TIP3    H145263   5.742   3.240  15.339  0.6890  0.6755  0.2085
 7924TIP3    H245264   5.821   3.194  15.219 -0.4392 -0.2637 -0.1887
 7925TIP3   OH245265   3.741   5.445   1.006 -0.1357 -0.0331  0.2504
 7925TIP3    H145266   3.709   5.463   0.917  1.1297  0.4672 -0.1378
 7925TIP3    H245267   3.749   5.532   1.046 -0.4304 -0.2383  0.7526
 7926TIP3   OH245268   1.555   1.177   5.034  0.1849 -0.1288  0.6576
 7926TIP3    H145269   1.487   1.148   5.095  2.5524 -2.2801  2.5109
 7926TIP3    H245270   1.602   1.246   5.081  0.3594  0.1260  0.1126
 7927TIP3   OH245271   1.942   4.630   5.915 -0.1966  0.6728  0.0981
 7927TIP3    H145272   2.031   4.664   5.927 -0.4554  1.4664 -0.1703
 7927TIP3    H245273   1.945   4.542   5.952  0.4226  1.0789  1.0565
 7928TIP3   OH245274   0.772   0.472  14.577  0.0222 -0.1452 -0.4670
 7928TIP3    H145275   0.824   0.421  14.639 -0.4892 -1.1147 -0.8239
 7928TIP3    H245276   0.835   0.535  14.540  0.7450 -0.7461 -0.2879
 7929TIP3   OH245277   2.174   6.743   5.298  0.0382 -0.5241 -0.3211
 7929TIP3    H145278   2.162   6.821   5.244 -1.9447  0.9762  2.0657
 7929TIP3    H245279   2.122   6.675   5.254 -0.1231  0.1616 -1.2149
 7930TIP3   OH245280   6.748   5.377  12.093  0.2382  0.2727 -0.3746
 7930TIP3    H145281   6.831   5.395  12.137  0.2990 -0.9249  0.0497
 7930TIP3    H245282   6.683   5.427  12.142  0.3622 -0.7546  0.8968
 7931TIP3   OH245283   1.628   5.335  16.920 -0.4520  0.5423 -0.2042
 7931TIP3    H145284   1.699   5.391  16.891 -2.3817  2.3121 -1.7417
 7931TIP3    H245285   1.650   5.314  17.011  1.7775  1.3880 -0.4953
 7932TIP3   OH245286   0.035   4.140  13.367  0.4319 -0.8842 -1.0939
 7932TIP3    H145287  -0.007   4.058  13.392  1.2824 -1.1393 -0.4264
 7932TIP3    H245288   0.090   4.162  13.442  0.8578 -0.1440 -1.6084
 7933TIP3   OH245289   3.920   6.833  12.120 -0.6230  0.0427 -0.3906
 7933TIP3    H145290   3.889   6.923  12.122  0.4637  0.4313 -0.8279
 7933TIP3    H245291   3.930   6.812  12.027 -1.9648 -0.9321 -0.3532
 7934TIP3   OH245292   6.810   2.017   1.924  0.5756 -0.2528 -0.2170
 7934TIP3    H145293   6.867   2.020   2.001 -0.2939 -0.1019  0.4352
 7934TIP3    H245294   6.724   2.044   1.956  0.0164 -0.9378 -1.0749
 7935TIP3   OH245295   6.220   6.394   4.369  0.4149 -0.0301 -0.0725
 7935TIP3    H145296   6.261   6.359   4.290 -0.0271 -1.7948  0.4378
 7935TIP3    H245297   6.290   6.442   4.414  1.1137 -0.4597 -0.6879
 7936TIP3   OH245298   5.965   2.088   3.484  0.4248  0.5918  0.0017
 7936TIP3    H145299   5.928   2.170   3.515 -0.7931  1.3201 -3.1177
 7936TIP3    H245300   5.890   2.030   3.472  0.9130  0.1216 -0.8853
 7937TIP3   OH245301   1.510   1.424  13.830  0.0980 -0.4009  0.6211
 7937TIP3    H145302   1.428   1.439  13.783  0.1476 -1.2732  0.2242
 7937TIP3    H245303   1.567   1.383  13.765  0.4394 -0.8887  1.2162
 7938TIP3   OH245304   5.840   2.099   0.329  0.1265  0.8483  0.1491
 7938TIP3    H145305   5.862   2.028   0.268 -2.6607 -1.7087  1.7968
 7938TIP3    H245306   5.907   2.094   0.397 -1.1931 -1.8930  1.4056
 7939TIP3   OH245307   2.226   5.734  15.924  0.5119 -0.1452  0.2442
 7939TIP3    H145308   2.291   5.697  15.984 -1.0157 -2.3998  0.6314
 7939TIP3    H245309   2.173   5.792  15.977 -0.2182 -1.3754  0.9072
 7940TIP3   OH245310   3.485   5.437   3.437  0.1157 -0.5084  0.0410
 7940TIP3    H145311   3.511   5.511   3.492  0.4053 -0.0048 -0.7599
 7940TIP3    H245312   3.501   5.466   3.347 -0.4635 -1.2688 -0.3284
 7941TIP3   OH245313   3.052   3.175   1.343  0.2992  0.3144  0.0831
 7941TIP3    H145314   3.061   3.130   1.260  0.6726  1.2207 -0.3789
 7941TIP3    H245315   2.983   3.127   1.389  1.0024 -0.9926 -0.1907
 7942TIP3   OH245316   2.337   0.471  10.925 -0.5035 -0.8379  0.0431
 7942TIP3    H145317   2.407   0.449  10.864  0.2713 -0.4203  0.7589
 7942TIP3    H245318   2.299   0.551  10.889 -0.3108 -0.8139 -0.1103
 7943TIP3   OH245319   1.659   6.314   0.584 -0.3000 -0.0384  0.2523
 7943TIP3    H145320   1.738   6.309   0.637  1.4538  2.0640 -1.9316
 7943TIP3    H245321   1.665   6.240   0.523 -0.0234  0.0808  0.1321
 7944TIP3   OH245322   1.126   5.266  12.786  0.7226 -0.2453  0.4038
 7944TIP3    H145323   1.127   5.242  12.693  0.4010  0.6550  0.1537
 7944TIP3    H245324   1.084   5.192  12.830 -0.6009  0.0134 -0.3853
 7945TIP3   OH245325   6.852   0.733   6.510  0.5289  0.5235  0.1571
 7945TIP3    H145326   6.920   0.715   6.445 -0.5932  0.8589 -1.1533
 7945TIP3    H245327   6.839   0.649   6.555  1.6620  0.4102  0.2976
 7946TIP3   OH245328   5.253   2.103  12.221  0.0874  0.5222 -0.7337
 7946TIP3    H145329   5.230   2.017  12.186  0.8614  0.2407 -0.5816
 7946TIP3    H245330   5.241   2.093  12.316 -0.7848  0.8940 -0.7968
 7947TIP3   OH245331   6.166   3.317  12.542 -0.1751 -0.6410 -0.0656
 7947TIP3    H145332   6.143   3.278  12.457  0.7069  0.7678 -0.9838
 7947TIP3    H245333   6.085   3.311  12.593 -0.5506 -2.0722 -0.7706
 7948TIP3   OH245334   5.886   4.093  13.581  0.0902 -0.0324  0.0587
 7948TIP3    H145335   5.876   4.023  13.516 -1.0240 -2.0041  2.2268
 7948TIP3    H245336   5.953   4.061  13.641 -1.9595 -0.3855  2.3432
 7949TIP3   OH245337   1.649   0.369   2.446 -0.2640  0.4818  0.2376
 7949TIP3    H145338   1.569   0.368   2.393  0.2028  2.8692 -0.6476
 7949TIP3    H245339   1.706   0.430   2.400  1.1249  0.7270  2.2154
 7950TIP3   OH245340   6.530   3.034  11.592 -0.0611 -0.6095 -0.3783
 7950TIP3    H145341   6.458   3.026  11.655  0.6110  0.5095  0.5526
 7950TIP3    H245342   6.607   3.051  11.645  0.6246 -0.2212 -1.4729
 7951TIP3   OH245343   0.036   5.062  11.073  0.0725 -0.7141  1.1672
 7951TIP3    H145344   0.069   5.085  11.160  1.5085 -0.1559  0.4971
 7951TIP3    H245345   0.048   5.141  11.021 -0.4698 -1.1444  0.3672
 7952TIP3   OH245346   1.477   0.857  16.487 -0.2802  0.1788 -0.0751
 7952TIP3    H145347   1.408   0.838  16.551 -0.7249 -0.1891 -0.6530
 7952TIP3    H245348   1.513   0.771  16.464 -1.2859  0.1083 -1.5826
 7953TIP3   OH245349   4.469   6.044  14.995 -0.6517 -0.4217  0.3031
 7953TIP3    H145350   4.485   5.949  14.998 -2.0864 -0.7576 -1.1524
 7953TIP3    H245351   4.551   6.083  15.024  0.7643 -2.0948 -1.2062
 7954TIP3   OH245352   5.579   1.849  14.078  0.6311  0.1344 -0.1155
 7954TIP3    H145353   5.669   1.821  14.097  1.1939  1.1523 -1.1604
 7954TIP3    H245354   5.530   1.824  14.156  1.3731 -2.3330 -0.3493
 7955TIP3   OH245355   1.287   3.179  11.085  0.7143  0.6983  0.0618
 7955TIP3    H145356   1.374   3.143  11.074  0.3869 -0.2726  0.5447
 7955TIP3    H245357   1.236   3.107  11.123 -0.7390  0.6422 -1.8328
 7956TIP3   OH245358   4.275   2.904   4.803  0.1740 -0.1639 -0.0931
 7956TIP3    H145359   4.369   2.895   4.792  0.3645  2.7197 -1.9615
 7956TIP3    H245360   4.266   2.959   4.882  0.1150  0.1692 -0.3293
 7957TIP3   OH245361   0.289   1.551  15.824 -0.0576 -0.4179 -0.5940
 7957TIP3    H145362   0.374   1.527  15.860 -0.6295 -0.6931  0.6206
 7957TIP3    H245363   0.286   1.646  15.832  0.3766 -0.3495 -1.2030
 7958TIP3   OH245364   4.472   0.148  12.411 -1.0135 -0.3557 -0.2448
 7958TIP3    H145365   4.451   0.240  12.396 -0.8210 -0.1705  0.5889
 7958TIP3    H245366   4.403   0.117  12.469  0.5691  0.0783  1.9597
 7959TIP3   OH245367   2.575   3.055   5.076  0.1118  0.0520 -0.3286
 7959TIP3    H145368   2.625   3.051   4.995 -2.5084  1.5890 -2.1650
 7959TIP3    H245369   2.555   2.964   5.097  2.3594 -0.4871 -0.3269
 7960TIP3   OH245370   2.060   1.871  10.866  0.2984 -0.0151  0.0241
 7960TIP3    H145371   2.067   1.909  10.778  1.7803  0.7315  0.4398
 7960TIP3    H245372   2.072   1.946  10.925  0.6986 -0.7299  0.8689
 7961TIP3   OH245373   5.546   0.419   1.098 -0.1105  0.4077 -0.7132
 7961TIP3    H145374   5.508   0.401   1.012 -2.5522 -2.6942  0.8168
 7961TIP3    H245375   5.603   0.344   1.116 -2.7881 -1.2299  1.8599
 7962TIP3   OH245376   5.062   5.240  16.169  0.2662 -0.2610 -0.7424
 7962TIP3    H145377   5.135   5.285  16.212  1.6943 -1.0920 -2.2062
 7962TIP3    H245378   4.987   5.255  16.228  1.4017  1.2932  0.3972
 7963TIP3   OH245379   6.833   2.165   3.327 -0.2928  0.0872  0.3965
 7963TIP3    H145380   6.827   2.101   3.398  0.4309 -0.8790 -0.3811
 7963TIP3    H245381   6.790   2.123   3.253 -0.2444  0.7090  0.0081
 7964TIP3   OH245382   0.605   3.420  11.850  0.3976  0.7834 -0.2968
 7964TIP3    H145383   0.639   3.388  11.933 -0.2338 -0.3679 -0.4546
 7964TIP3    H245384   0.653   3.501  11.834  0.2405  1.2339  1.3690
 7965TIP3   OH245385   5.789   1.389  11.041 -0.2504  0.2620 -0.0488
 7965TIP3    H145386   5.764   1.340  11.120  2.2355  1.1221  1.3823
 7965TIP3    H245387   5.843   1.461  11.074  1.4791  0.2503 -2.6049
 7966TIP3   OH245388   1.671   5.837  10.990 -0.0383 -0.9127 -0.2446
 7966TIP3    H145389   1.697   5.752  10.955  1.2668 -0.3418 -0.7491
 7966TIP3    H245390   1.750   5.870  11.034 -0.8455 -0.4309  0.9064
 7967TIP3   OH245391   1.700   4.337  14.567  0.5107  0.6386  0.0689
 7967TIP3    H145392   1.737   4.262  14.521 -0.4985 -0.6874  1.3180
 7967TIP3    H245393   1.702   4.408  14.503 -0.4806 -1.0053 -1.9121
 7968TIP3   OH245394   1.796   1.830  17.015  0.0535 -0.0784  0.0624
 7968TIP3    H145395   1.769   1.791  16.932  2.2584 -0.0885 -0.7170
 7968TIP3    H245396   1.877   1.877  16.994  1.4418 -1.2171  2.4608
 7969TIP3   OH245397   5.277   0.624  15.491 -0.6190 -0.4281  0.2925
 7969TIP3    H145398   5.219   0.603  15.418  0.2497 -0.2906 -0.4580
 7969TIP3    H245399   5.366   0.619  15.454 -0.2476  2.1689  0.6380
 7970TIP3   OH245400   2.898   6.453   4.124  0.4759  0.2941 -0.4207
 7970TIP3    H145401   2.948   6.371   4.122 -0.5113 -0.3692  0.8105
 7970TIP3    H245402   2.909   6.486   4.213 -0.2150  0.8114 -0.5168
 7971TIP3   OH245403   0.874   0.645  11.493 -0.0233 -0.3890 -0.0048
 7971TIP3    H145404   0.817   0.650  11.569 -0.0620 -1.7973  0.0768
 7971TIP3    H245405   0.834   0.580  11.436  0.3966  0.1104 -0.9058
 7972TIP3   OH245406   1.844   0.577  16.903 -0.4830  0.0840 -0.2656
 7972TIP3    H145407   1.850   0.635  16.978 -1.6633  0.5339 -0.4948
 7972TIP3    H245408   1.932   0.577  16.865  1.0851 -2.6308  2.8507
 7973TIP3   OH245409   2.543   5.894   3.838 -0.3658  0.3785 -0.1648
 7973TIP3    H145410   2.474   5.852   3.786 -0.6395 -0.3073  0.7177
 7973TIP3    H245411   2.531   5.987   3.823 -0.1371  0.1950 -1.6994
 7974TIP3   OH245412   4.443   4.688  16.612  0.6947 -0.2321 -0.1944
 7974TIP3    H145413   4.413   4.755  16.550  1.9639  1.5697  1.0180
 7974TIP3    H245414   4.468   4.738  16.690  1.8354 -2.1406  0.7237
 7975TIP3   OH245415   5.777   6.172   5.214  0.3179  0.0527 -0.0118
 7975TIP3    H145416   5.871   6.163   5.231  0.4701  0.7142 -0.4693
 7975TIP3    H245417   5.772   6.232   5.140 -0.5354  1.8811  1.4431
 7976TIP3   OH245418   2.910   2.098  12.235  0.4432  0.2535 -1.0677
 7976TIP3    H145419   2.975   2.048  12.285  0.3392  0.4262 -0.7543
 7976TIP3    H245420   2.867   2.033  12.180  0.2363 -0.0280 -0.5865
 7977TIP3   OH245421   6.796   2.610   3.786  0.5777  0.1302  0.1715
 7977TIP3    H145422   6.867   2.548   3.769 -1.0128 -1.2931 -1.7621
 7977TIP3    H245423   6.837   2.696   3.775  2.4035 -0.5804  1.0279
 7978TIP3   OH245424   3.593   4.865   2.339 -0.1837  0.3187  0.3130
 7978TIP3    H145425   3.560   4.775   2.349  0.1919  0.1491  0.0678
 7978TIP3    H245426   3.687   4.857   2.355 -0.2780  0.8237  1.1598
 7979TIP3   OH245427   1.573   2.416   3.104  0.3396  0.5454 -0.3206
 7979TIP3    H145428   1.594   2.348   3.040  1.7897 -0.8350  1.5055
 7979TIP3    H245429   1.477   2.422   3.103  0.2062 -1.2257 -0.8267
 7980TIP3   OH245430   3.302   1.831  13.953  0.2963  0.6817 -0.0876
 7980TIP3    H145431   3.226   1.800  14.003 -0.9146 -0.1420 -2.3255
 7980TIP3    H245432   3.278   1.920  13.927 -0.8712 -0.2482 -2.4644
 7981TIP3   OH245433   5.254   2.627   3.667 -0.0974 -0.0802  0.4339
 7981TIP3    H145434   5.166   2.642   3.701 -1.3456 -1.1490 -2.0673
 7981TIP3    H245435   5.283   2.714   3.637 -1.1872 -0.0584 -0.6197
 7982TIP3   OH245436   6.374   0.371   3.495  0.0676 -0.4467 -0.1985
 7982TIP3    H145437   6.461   0.389   3.459 -0.1558 -2.0611 -1.6676
 7982TIP3    H245438   6.377   0.408   3.583  1.8391  0.5541 -0.6217
 7983TIP3   OH245439   5.713   2.052   5.106 -0.2722 -0.0633  0.5507
 7983TIP3    H145440   5.644   2.039   5.171 -0.1914  1.9166  1.0913
 7983TIP3    H245441   5.794   2.049   5.156 -0.0758 -0.4206  0.2196
 7984TIP3   OH245442   1.555   1.611  10.605 -0.0516 -0.3028 -0.2046
 7984TIP3    H145443   1.562   1.687  10.548 -0.7303 -0.7349 -0.8879
 7984TIP3    H245444   1.644   1.596  10.637  0.4137 -0.2813 -1.4607
 7985TIP3   OH245445   4.865   2.306   1.397 -0.3108 -0.2997 -0.0811
 7985TIP3    H145446   4.776   2.271   1.385 -0.2189  0.2118 -2.8915
 7985TIP3    H245447   4.906   2.297   1.311  1.9026  0.7892  0.7931
 7986TIP3   OH245448   1.901   5.168   2.270 -0.2931  0.2762 -0.4918
 7986TIP3    H145449   1.969   5.112   2.307 -0.6200 -0.3531 -0.8351
 7986TIP3    H245450   1.916   5.166   2.176 -1.9833 -1.5083 -0.7928
 7987TIP3   OH245451   6.186   2.927   2.377 -0.4172  0.0926  0.1106
 7987TIP3    H145452   6.094   2.904   2.367 -0.4304 -0.2906  1.0875
 7987TIP3    H245453   6.223   2.857   2.430 -0.1805  1.6324  2.0886
 7988TIP3   OH245454   0.197   0.636   6.300 -0.2744  0.0125 -0.7196
 7988TIP3    H145455   0.166   0.558   6.346  0.2500 -0.3845 -1.0372
 7988TIP3    H245456   0.134   0.649   6.229  0.0450 -0.5483 -1.1079
 7989TIP3   OH245457   6.682   4.301  12.527 -0.1238 -0.3369  0.1184
 7989TIP3    H145458   6.637   4.222  12.555 -0.3062 -0.3826 -0.2999
 7989TIP3    H245459   6.618   4.371  12.541 -0.2791 -0.3828 -0.3422
 7990TIP3   OH245460   2.060   0.698   4.320 -0.5240  0.0561  0.0161
 7990TIP3    H145461   2.106   0.774   4.355  0.7510 -0.6918  0.0501
 7990TIP3    H245462   1.995   0.734   4.259  0.3089  1.1528 -0.2527
 7991TIP3   OH245463   0.403   4.860  14.341  0.7257 -0.1142 -0.1347
 7991TIP3    H145464   0.396   4.942  14.293 -0.5377 -0.3085 -0.3344
 7991TIP3    H245465   0.483   4.820  14.310 -0.0815 -0.2668 -2.1491
 7992TIP3   OH245466   4.790   3.446   3.777  0.0026 -0.2103 -0.2510
 7992TIP3    H145467   4.871   3.485   3.810 -2.3568  2.8655  2.4827
 7992TIP3    H245468   4.741   3.422   3.855 -2.0848 -1.2941 -1.7993
 7993TIP3   OH245469   3.004   6.687  15.258 -0.7208 -0.0358 -0.2481
 7993TIP3    H145470   2.913   6.716  15.256 -0.1690  1.9007  0.1382
 7993TIP3    H245471   3.007   6.621  15.327 -1.9830 -0.7821 -0.8706
 7994TIP3   OH245472   0.715   5.840  16.646  0.1066 -0.0820 -0.3418
 7994TIP3    H145473   0.690   5.853  16.738 -1.3698  1.4850 -0.9133
 7994TIP3    H245474   0.765   5.918  16.624  0.2718 -0.3519 -0.9312
 7995TIP3   OH245475   4.422   4.779   3.875  0.2094 -0.0376 -0.0894
 7995TIP3    H145476   4.515   4.758   3.886  0.5705 -0.3228 -2.9360
 7995TIP3    H245477   4.418   4.874   3.881  0.3430 -0.1240  1.8840
 7996TIP3   OH245478   4.801   3.675  14.507  0.2484  0.2127 -0.2675
 7996TIP3    H145479   4.778   3.605  14.446 -0.4502 -0.7497  1.0516
 7996TIP3    H245480   4.745   3.659  14.583 -0.2060  2.4387 -0.0728
 7997TIP3   OH245481   5.133   4.835   0.701  0.2902  0.5284 -0.4322
 7997TIP3    H145482   5.151   4.773   0.771 -1.7105  0.3570 -0.0255
 7997TIP3    H245483   5.102   4.914   0.746 -0.6728  0.5401 -1.0890
 7998TIP3   OH245484   0.956   3.716  13.980 -0.4833 -0.3031 -0.1890
 7998TIP3    H145485   0.890   3.649  14.001  0.1954 -1.1856 -0.7776
 7998TIP3    H245486   1.010   3.675  13.913  1.4067 -0.0494  1.1158
 7999TIP3   OH245487   4.001   1.802  13.507  0.4398 -0.5794 -0.1448
 7999TIP3    H145488   3.966   1.740  13.571 -0.5989 -0.3014 -0.4330
 7999TIP3    H245489   4.066   1.751  13.458  0.7289 -0.9910  0.6446
 8000TIP3   OH245490   3.397   3.516  14.495 -0.3331 -0.3703  0.3233
 8000TIP3    H145491   3.324   3.558  14.450 -0.1444 -0.5827 -0.1981
 8000TIP3    H245492   3.439   3.463  14.427  1.0799  0.7598  0.2766
 8001TIP3   OH245493   5.587   4.352  16.372 -1.0691  0.2329 -0.0541
 8001TIP3    H145494   5.587   4.277  16.313 -0.5706 -0.0258  0.2700
 8001TIP3    H245495   5.619   4.425  16.319 -0.9072  0.0680 -0.1829
 8002TIP3   OH245496   1.144   2.633   5.986 -0.2354 -0.6587  0.0783
 8002TIP3    H145497   1.226   2.586   5.973 -0.0174 -0.0190 -0.9443
 8002TIP3    H245498   1.150   2.708   5.928 -1.6982 -0.8017 -0.2932
 8003TIP3   OH245499   0.684   6.099   1.393  1.2306 -0.6412 -0.0629
 8003TIP3    H145500   0.761   6.149   1.367  1.6536 -2.2115 -2.1030
 8003TIP3    H245501   0.713   6.047   1.468  1.1841  1.0404  1.1777
 8004TIP3   OH245502   1.524   2.011  15.061 -0.4144 -1.3306  0.0346
 8004TIP3    H145503   1.592   2.047  15.118 -0.6063 -2.0234  0.7088
 8004TIP3    H245504   1.529   1.916  15.074 -1.0247 -1.4347 -0.4601
 8005TIP3   OH245505   3.870   6.332   5.551 -0.4516 -0.1727  0.1209
 8005TIP3    H145506   3.942   6.286   5.593  0.1984 -0.2007 -0.9913
 8005TIP3    H245507   3.800   6.332   5.617  0.7544  0.4303  1.4766
 8006TIP3   OH245508   2.132   0.153  14.420  0.7958  0.6210 -0.8254
 8006TIP3    H145509   2.205   0.131  14.362 -0.0022 -3.7896 -0.5138
 8006TIP3    H245510   2.054   0.129  14.370 -0.1274  0.5369  0.5854
 8007TIP3   OH245511   2.158   3.539  11.688 -0.0406  0.4449 -0.0912
 8007TIP3    H145512   2.110   3.604  11.636  1.6831  0.5178 -1.6859
 8007TIP3    H245513   2.127   3.455  11.655  0.2016  0.4856 -0.4260
 8008TIP3   OH245514   0.475   5.846  13.547  0.1727  0.4335 -0.0098
 8008TIP3    H145515   0.493   5.753  13.531  2.3014  0.8102 -0.0507
 8008TIP3    H245516   0.392   5.846  13.594  0.1632 -1.4924  0.0595
 8009TIP3   OH245517   1.710   4.766  14.153  0.4811  0.2536  0.0157
 8009TIP3    H145518   1.687   4.748  14.244  2.8679  0.0775  0.6497
 8009TIP3    H245519   1.626   4.762  14.106 -0.7499 -0.0900  2.1026
 8010TIP3   OH245520   6.279   5.646   4.407  0.2102 -0.2025  0.2144
 8010TIP3    H145521   6.336   5.668   4.481  0.2143  0.7206 -0.0434
 8010TIP3    H245522   6.334   5.660   4.330  0.6977 -2.6628  0.0445
 8011TIP3   OH245523   0.845   5.237  13.425 -0.4360  0.0216  0.9524
 8011TIP3    H145524   0.870   5.314  13.475 -0.3072  0.0516  0.8420
 8011TIP3    H245525   0.752   5.224  13.445 -0.2040 -0.4326  1.8299
 8012TIP3   OH245526   3.658   4.955   4.187  0.2519  0.4732  0.4051
 8012TIP3    H145527   3.612   4.924   4.110  1.9171  1.5253 -1.0827
 8012TIP3    H245528   3.611   5.035   4.213 -1.4705 -0.8874  1.7061
 8013TIP3   OH245529   3.043   3.780  15.311 -0.1328 -0.2940  0.2718
 8013TIP3    H145530   3.011   3.767  15.222 -0.2716 -0.4419  0.3419
 8013TIP3    H245531   3.079   3.868  15.311 -2.0119  0.5204  0.6285
 8014TIP3   OH245532   2.132   5.961  16.039  0.3790 -0.1212 -0.3110
 8014TIP3    H145533   2.130   6.053  16.011  1.6552 -0.2506 -0.9039
 8014TIP3    H245534   2.168   5.965  16.128 -1.7502  0.1176  0.5917
 8015TIP3   OH245535   6.104   1.221   2.001 -0.3665  0.1152  0.1990
 8015TIP3    H145536   6.068   1.179   1.923  1.1588 -1.3933  0.2510
 8015TIP3    H245537   6.115   1.149   2.064  1.9461  0.6189  0.4545
 8016TIP3   OH245538   4.565   3.110   5.703  0.0722 -0.6618 -0.3650
 8016TIP3    H145539   4.656   3.112   5.673 -0.1103  0.2345 -0.9021
 8016TIP3    H245540   4.542   3.202   5.716 -0.0566 -0.9617  2.0048
 8017TIP3   OH245541   1.627   6.796   5.158  0.6371  0.2081 -0.0534
 8017TIP3    H145542   1.596   6.790   5.067 -1.3516  2.2762  0.4005
 8017TIP3    H245543   1.594   6.718   5.200 -0.0649  0.1641 -0.6702
 8018TIP3   OH245544   2.990   1.370  12.298 -0.2781 -0.8169  0.3550
 8018TIP3    H145545   2.929   1.441  12.281  0.3954 -0.2878  0.0944
 8018TIP3    H245546   3.039   1.361  12.217  0.2829 -0.9389  0.7012
 8019TIP3   OH245547   5.579   3.849  12.187  0.3256 -0.0430  0.3123
 8019TIP3    H145548   5.519   3.778  12.164  0.9298 -0.5431  0.2625
 8019TIP3    H245549   5.610   3.882  12.103  0.1139  0.2152  0.3381
 8020TIP3   OH245550   4.286   6.721  16.329  0.7754  0.0887  0.2678
 8020TIP3    H145551   4.277   6.639  16.377 -3.2828  1.3002  2.0433
 8020TIP3    H245552   4.347   6.773  16.382  0.0504 -0.3091  1.5430
 8021TIP3   OH245553   6.394   5.638   5.963 -0.9799 -0.5450 -0.0568
 8021TIP3    H145554   6.299   5.633   5.958 -1.0052 -0.4775  0.3210
 8021TIP3    H245555   6.417   5.585   6.039 -0.7063 -0.6509 -0.2106
 8022TIP3   OH245556   0.484   0.786   1.851 -0.5247 -0.2932 -0.4184
 8022TIP3    H145557   0.426   0.847   1.806  0.3749 -0.1432 -1.4062
 8022TIP3    H245558   0.486   0.709   1.794 -1.2565 -1.0714  0.5680
 8023TIP3   OH245559   2.462   6.743  15.650 -0.0998 -0.0562 -0.1967
 8023TIP3    H145560   2.551   6.726  15.619 -0.1467  0.4437 -0.6258
 8023TIP3    H245561   2.406   6.711  15.580 -0.2871 -0.9088  0.3282
 8024TIP3   OH245562   6.764   4.011   4.011  0.3591  0.2793 -1.0065
 8024TIP3    H145563   6.775   4.089   3.957  0.6195  0.7345 -0.3108
 8024TIP3    H245564   6.673   3.984   3.996  1.0460 -1.0239 -3.5235
 8025TIP3   OH245565   1.835   0.096  15.389  0.3579  0.1685  0.9848
 8025TIP3    H145566   1.755   0.148  15.385 -0.7449 -1.4711  0.4565
 8025TIP3    H245567   1.885   0.134  15.462 -1.5993  0.2949  2.3431
 8026TIP3   OH245568   1.616   1.710  12.051 -0.1617 -0.3459 -0.0362
 8026TIP3    H145569   1.652   1.767  11.983 -0.3436  0.4777  0.5375
 8026TIP3    H245570   1.521   1.721  12.043 -0.1994 -0.6565 -0.0019
 8027TIP3   OH245571   3.739   2.721   4.636  0.0777  0.6977  0.5088
 8027TIP3    H145572   3.650   2.756   4.636  0.3350  1.3651 -0.0771
 8027TIP3    H245573   3.747   2.677   4.720 -2.0640 -2.6170 -0.7990
 8028TIP3   OH245574   1.885   6.120   4.328  0.5608 -0.5387 -0.0969
 8028TIP3    H145575   1.803   6.108   4.279  1.4938  0.6783 -2.0593
 8028TIP3    H245576   1.885   6.047   4.391 -1.8554 -0.7633 -0.2301
 8029TIP3   OH245577   1.390   5.106   1.785 -0.8011  0.1290  0.5433
 8029TIP3    H145578   1.305   5.096   1.827 -1.4711  0.0653 -0.7690
 8029TIP3    H245579   1.418   5.195   1.808 -2.5380  1.2163 -1.2235
 8030TIP3   OH245580   6.267   5.128   1.266  0.9783  0.1018 -0.3021
 8030TIP3    H145581   6.326   5.082   1.207 -0.1504 -1.3877 -0.3262
 8030TIP3    H245582   6.247   5.066   1.335 -0.0749  0.7694  0.0279
 8031TIP3   OH245583   5.748   2.078  14.749  0.3112  0.1186  0.2660
 8031TIP3    H145584   5.839   2.109  14.753  0.7089 -0.9199 -0.1890
 8031TIP3    H245585   5.752   2.003  14.689 -1.0309  0.6698 -0.5533
 8032TIP3   OH245586   6.649   3.175   2.845  0.1128  0.6405 -0.2450
 8032TIP3    H145587   6.663   3.194   2.938  0.7075 -1.9471  0.2941
 8032TIP3    H245588   6.726   3.212   2.801  0.6554  0.4726  0.5447
 8033TIP3   OH245589   1.209   6.782   3.240 -0.3403  0.1180  0.2260
 8033TIP3    H145590   1.128   6.799   3.289 -1.7768 -1.0684 -1.6113
 8033TIP3    H245591   1.181   6.734   3.162  1.7424  2.3220 -2.0865
 8034TIP3   OH245592   6.200   1.759  10.955 -0.0543  0.2540 -0.1937
 8034TIP3    H145593   6.278   1.814  10.965 -0.9207  1.1512  2.4136
 8034TIP3    H245594   6.217   1.683  11.011 -0.0134 -0.8385 -1.6453
 8035TIP3   OH245595   6.426   2.849   4.819 -0.3127 -0.3434 -0.3379
 8035TIP3    H145596   6.347   2.889   4.854  0.7711  0.5682  1.1561
 8035TIP3    H245597   6.395   2.772   4.772 -1.9278 -1.3755  2.2197
 8036TIP3   OH245598   6.713   0.854   3.418 -0.7131 -0.1821  0.6464
 8036TIP3    H145599   6.685   0.802   3.343 -0.7824 -0.9049  1.1680
 8036TIP3    H245600   6.807   0.870   3.403 -0.8927  0.3610  0.0170
 8037TIP3   OH245601   1.054   4.885   5.538 -0.2145  0.1109 -0.1400
 8037TIP3    H145602   1.125   4.832   5.576  0.6857  2.6098  1.9351
 8037TIP3    H245603   0.983   4.823   5.523  0.3024 -1.5729  3.3263
 8038TIP3   OH245604   5.973   5.016  15.102  0.2871 -0.2350 -0.3420
 8038TIP3    H145605   5.878   5.021  15.107  0.3633  1.2588  0.0671
 8038TIP3    H245606   5.990   4.950  15.035 -1.0546  0.6204 -1.5899
 8039TIP3   OH245607   2.089   3.368  14.772 -0.9875  0.1929 -0.1349
 8039TIP3    H145608   2.099   3.463  14.776 -1.2735  0.1909  0.8184
 8039TIP3    H245609   2.178   3.335  14.765 -0.5662  0.4092  2.8264
 8040TIP3   OH245610   2.157   1.929  10.610  1.4846  0.0478  0.0209
 8040TIP3    H145611   2.200   1.843  10.613 -0.0974 -0.7632  0.7065
 8040TIP3    H245612   2.072   1.911  10.571  1.6428  1.5768 -1.1389
 8041TIP3   OH245613   5.948   6.293  14.634  0.1505  0.0369 -0.4993
 8041TIP3    H145614   5.910   6.306  14.547  1.0011  2.9079 -0.5650
 8041TIP3    H245615   6.042   6.305  14.621  0.7692 -3.1167  0.2959
 8042TIP3   OH245616   0.591   1.641  15.610  0.1413 -0.6237  0.1566
 8042TIP3    H145617   0.521   1.632  15.546 -0.8820  0.8145  1.0126
 8042TIP3    H245618   0.659   1.691  15.564 -0.2396 -0.3143 -0.0823
 8043TIP3   OH245619   6.104   0.622   2.780 -0.1763 -0.3011 -0.0956
 8043TIP3    H145620   6.060   0.546   2.820  1.0571 -1.3160 -0.6026
 8043TIP3    H245621   6.094   0.609   2.686 -1.8559  1.3582 -0.2163
 8044TIP3   OH245622   4.360   3.951   1.015  0.0320 -0.9459  0.5627
 8044TIP3    H145623   4.411   3.923   1.091 -1.2420 -2.2441  0.9989
 8044TIP3    H245624   4.269   3.946   1.044 -0.4119  0.1050 -0.5626
 8045TIP3   OH245625   2.723   4.476  15.465 -0.1826  0.1952 -0.1176
 8045TIP3    H145626   2.819   4.480  15.461 -0.2431  1.4527 -1.3052
 8045TIP3    H245627   2.696   4.567  15.476 -1.2281 -0.3123  1.9614
 8046TIP3   OH245628   4.852   6.239  13.736 -0.0299  0.0618 -0.7963
 8046TIP3    H145629   4.905   6.311  13.701 -0.8671  1.6578  1.0121
 8046TIP3    H245630   4.911   6.164  13.739  1.9203  1.5590  0.3443
 8047TIP3   OH245631   0.004   6.715  14.014  0.1098  0.0459 -0.0313
 8047TIP3    H145632  -0.017   6.729  14.107 -2.0154 -0.2767 -0.4073
 8047TIP3    H245633   0.039   6.626  14.011  1.9131  0.6755  0.6609
 8048TIP3   OH245634   1.413   6.396   4.587 -0.6899 -0.0342  0.2552
 8048TIP3    H145635   1.324   6.379   4.555 -0.4614 -1.2994  0.2565
 8048TIP3    H245636   1.461   6.315   4.570 -0.0965 -0.1470  2.2216
 8049TIP3   OH245637   4.843   0.722   2.261 -0.1822 -0.4698 -0.0873
 8049TIP3    H145638   4.931   0.749   2.285 -0.4239 -0.0205  0.3127
 8049TIP3    H245639   4.855   0.666   2.184  0.3919  0.2616 -0.5485
 8050TIP3   OH245640   2.026   6.478  13.473  0.3875 -0.4289 -0.2958
 8050TIP3    H145641   1.931   6.476  13.476  0.3955 -0.2622  0.1607
 8050TIP3    H245642   2.047   6.528  13.395  0.0850  2.9081  1.5904
 8051TIP3   OH245643   2.422   4.716   2.531 -0.3306  0.2797  0.1388
 8051TIP3    H145644   2.510   4.755   2.537 -0.0407 -0.2071 -0.6747
 8051TIP3    H245645   2.378   4.742   2.612  0.1288  1.5937 -0.0078
 8052TIP3   OH245646   2.230   4.113   4.843 -0.0568 -0.3029 -0.0222
 8052TIP3    H145647   2.141   4.078   4.845  0.7317 -2.4347  1.8021
 8052TIP3    H245648   2.228   4.187   4.904 -0.8328  0.4474 -0.9328
 8053TIP3   OH245649   2.719   6.514  10.986 -0.4591  0.3820  0.8893
 8053TIP3    H145650   2.741   6.513  10.893  1.5831 -0.2145  1.3337
 8053TIP3    H245651   2.683   6.427  11.003 -0.8645  0.5031  0.6510
 8054TIP3   OH245652   0.331   2.961   5.245  0.1161 -0.2318 -0.1427
 8054TIP3    H145653   0.336   3.037   5.303  0.7477 -0.4284  0.0707
 8054TIP3    H245654   0.341   2.886   5.304 -1.1372 -0.5185 -0.2640
 8055TIP3   OH245655   2.438   0.935  11.427  0.2717 -0.2115 -0.2463
 8055TIP3    H145656   2.455   0.925  11.334 -0.5038 -0.5623 -0.3612
 8055TIP3    H245657   2.461   1.026  11.446  0.7085 -0.2229 -0.7173
 8056TIP3   OH245658   6.662   6.840  16.727  0.0380 -0.0141 -0.4794
 8056TIP3    H145659   6.675   6.745  16.734  0.7000 -0.0423 -1.7414
 8056TIP3    H245660   6.698   6.862  16.641  0.2463  1.4456 -0.0382
 8057TIP3   OH245661   5.083   0.281   2.478  0.0372  0.2378  0.2285
 8057TIP3    H145662   5.103   0.214   2.544 -1.6201 -0.4737  0.0592
 8057TIP3    H245663   4.990   0.267   2.457  0.1868  1.3004 -1.2944
 8058TIP3   OH245664   4.978   3.654  14.859 -0.9702  0.1661  0.0405
 8058TIP3    H145665   4.910   3.720  14.846 -1.0853  0.3204  1.3428
 8058TIP3    H245666   4.950   3.604  14.936  0.1780 -0.0382  0.3472
 8059TIP3   OH245667   0.918   3.887   4.620  0.0003  0.1655  0.8390
 8059TIP3    H145668   1.008   3.866   4.641 -0.5812 -1.1873  2.1129
 8059TIP3    H245669   0.900   3.839   4.539  0.2753  0.0503  0.8465
 8060TIP3   OH245670   5.155   6.555   0.876  0.5533 -0.4563 -0.2135
 8060TIP3    H145671   5.110   6.547   0.792  0.0974 -0.3725  0.0211
 8060TIP3    H245672   5.247   6.565   0.853  0.1259  3.6047 -0.9597
 8061TIP3   OH245673   1.846   4.110   4.207 -0.3318 -0.5040 -0.3262
 8061TIP3    H145674   1.843   4.131   4.113  1.8751 -1.7682 -0.7686
 8061TIP3    H245675   1.807   4.186   4.250  0.8458  1.2746 -2.1666
 8062TIP3   OH245676   0.328   3.443  15.252 -0.2425 -0.0885  0.2594
 8062TIP3    H145677   0.400   3.473  15.195 -0.7315  0.7314  0.0555
 8062TIP3    H245678   0.357   3.465  15.340 -0.3933  0.5748  0.1483
 8063TIP3   OH245679   0.226   4.961  13.887  0.3770 -0.0096 -0.5494
 8063TIP3    H145680   0.140   5.001  13.877 -0.6129 -1.5803  1.0444
 8063TIP3    H245681   0.279   5.027  13.932 -0.2331  0.6664 -0.8046
 8064TIP3   OH245682   5.340   0.922   5.162  0.1769  0.5281 -0.4693
 8064TIP3    H145683   5.386   0.954   5.239 -2.3634  0.4815  1.1857
 8064TIP3    H245684   5.247   0.926   5.186 -0.6936  0.0517 -3.3672
 8065TIP3   OH245685   6.463   5.327  17.105 -0.0462 -0.1611  0.3001
 8065TIP3    H145686   6.434   5.260  17.167  0.8911 -0.8768 -0.0130
 8065TIP3    H245687   6.464   5.282  17.020 -2.4863  1.1113 -0.5196
 8066TIP3   OH245688   3.338   3.396   2.970 -0.0185  0.4296  0.7947
 8066TIP3    H145689   3.270   3.379   2.905  0.2549  0.1435  0.5776
 8066TIP3    H245690   3.304   3.359   3.051  1.2994 -2.9100 -0.0164
 8067TIP3   OH245691   5.703   0.294   5.147  0.2076  0.3340 -0.0622
 8067TIP3    H145692   5.637   0.295   5.216  0.2481 -1.6363  0.0636
 8067TIP3    H245693   5.659   0.333   5.071 -1.1034 -0.8964  0.0338
 8068TIP3   OH245694   0.099   2.154   1.678 -0.3884  0.2478 -0.0797
 8068TIP3    H145695   0.009   2.123   1.665  0.4409 -2.1444 -0.4532
 8068TIP3    H245696   0.100   2.184   1.769 -1.6410  0.6805 -0.1812
 8069TIP3   OH245697   1.649   3.388   6.732  0.0458 -0.3413  0.1972
 8069TIP3    H145698   1.627   3.296   6.723 -0.3335 -0.1268 -1.3681
 8069TIP3    H245699   1.591   3.433   6.670  1.2298  0.7977 -0.1324
 8070TIP3   OH245700   3.765   3.307  14.188 -0.2995  0.4497 -0.9584
 8070TIP3    H145701   3.728   3.287  14.102 -0.4173 -2.1886 -0.3751
 8070TIP3    H245702   3.850   3.263  14.189 -0.5024  0.0252  0.4169
 8071TIP3   OH245703   1.275   2.494  13.500  0.5614  0.1456 -0.2510
 8071TIP3    H145704   1.370   2.481  13.507  0.9703  1.0143 -2.8260
 8071TIP3    H245705   1.237   2.412  13.532  2.3632 -1.4723 -1.9169
 8072TIP3   OH245706   2.532   6.806  13.741  0.1584  0.2016 -0.0510
 8072TIP3    H145707   2.461   6.858  13.703  1.0427  0.5268 -1.3343
 8072TIP3    H245708   2.601   6.806  13.674  0.6181 -1.7483  0.3435
 8073TIP3   OH245709   3.183   5.801  11.100  0.1015 -0.4800  0.2584
 8073TIP3    H145710   3.167   5.753  11.019 -0.9177 -1.3799  0.9737
 8073TIP3    H245711   3.124   5.877  11.095  1.0993  0.2858 -0.4800
 8074TIP3   OH245712   4.066   3.726   4.004 -0.6081 -0.3589  0.0276
 8074TIP3    H145713   4.023   3.682   4.077  0.1516  0.9017  1.2874
 8074TIP3    H245714   4.072   3.660   3.936 -4.5691 -0.5982 -0.2973
 8075TIP3   OH245715   2.413   4.332  12.914  0.2377  0.2641  0.8472
 8075TIP3    H145716   2.407   4.348  12.820 -0.8155  1.5299  1.1071
 8075TIP3    H245717   2.497   4.286  12.925  0.0950 -0.4438 -0.7630
 8076TIP3   OH245718   3.370   1.352  12.603 -0.3477  0.0233  0.2955
 8076TIP3    H145719   3.379   1.313  12.516 -0.3004 -0.5667  0.5598
 8076TIP3    H245720   3.376   1.278  12.664 -0.3061  0.4365  0.8063
 8077TIP3   OH245721   6.316   4.512   5.032  0.1171  0.1895 -0.3193
 8077TIP3    H145722   6.250   4.509   5.101 -0.7967 -2.8798 -1.1767
 8077TIP3    H245723   6.395   4.542   5.076 -0.2679 -2.2363  2.2735
 8078TIP3   OH245724   4.063   2.442  13.158 -0.3571 -0.1155 -0.2532
 8078TIP3    H145725   4.037   2.402  13.075  0.8587 -1.2751 -0.1083
 8078TIP3    H245726   4.026   2.384  13.225  0.8584 -0.6572 -0.0325
 8079TIP3   OH245727   5.715   2.654  12.656 -0.2920 -0.1866 -0.2680
 8079TIP3    H145728   5.757   2.603  12.725  0.9024 -0.5228 -1.2082
 8079TIP3    H245729   5.781   2.719  12.631 -0.9595  0.3694 -0.6241
 8080TIP3   OH245730   6.334   4.167  14.834  0.3215  0.4081  0.0007
 8080TIP3    H145731   6.349   4.075  14.813  0.4843  0.9565 -2.7220
 8080TIP3    H245732   6.413   4.212  14.802  0.0891  1.5399  0.9496
 8081TIP3   OH245733   0.809   3.224   5.900 -0.1262 -0.3422  0.0513
 8081TIP3    H145734   0.852   3.273   5.830 -1.9756 -1.3589 -1.8967
 8081TIP3    H245735   0.754   3.289   5.944 -1.0746 -0.2207 -1.2543
 8082TIP3   OH245736   2.916   5.615  11.726 -0.3235 -0.7270  0.0670
 8082TIP3    H145737   2.890   5.671  11.799 -0.9330 -0.6625 -0.2008
 8082TIP3    H245738   2.988   5.663  11.684 -2.4061  1.0949 -1.6488
 8083TIP3   OH245739   0.798   4.308  11.861 -0.2829 -0.4543 -0.3839
 8083TIP3    H145740   0.797   4.292  11.955 -0.1330  0.8046 -0.1525
 8083TIP3    H245741   0.819   4.401  11.852  1.2696 -0.8872 -1.7187
 8084TIP3   OH245742   3.007   0.604   4.930 -0.4850 -0.1342  0.3310
 8084TIP3    H145743   3.021   0.511   4.911  2.4212  0.3794 -0.5605
 8084TIP3    H245744   2.914   0.618   4.914 -0.5349 -2.3797 -1.9704
 8085TIP3   OH245745   3.734   6.584   1.033  0.0995 -0.3850 -0.6776
 8085TIP3    H145746   3.683   6.578   0.952 -0.5984  0.8244 -0.3427
 8085TIP3    H245747   3.726   6.675   1.060  2.3940 -0.1326 -0.5760
 8086TIP3   OH245748   2.054   2.306  14.136 -0.1175  0.1737 -1.1371
 8086TIP3    H145749   2.097   2.273  14.215  0.2483  0.8087 -1.0574
 8086TIP3    H245750   2.118   2.366  14.098  0.0414 -0.7559 -2.3829
 8087TIP3   OH245751   1.642   0.673   1.400  0.0162  0.1514 -0.0865
 8087TIP3    H145752   1.731   0.656   1.372  0.2283  0.5868  0.3053
 8087TIP3    H245753   1.591   0.678   1.319  0.1561 -1.0775 -0.2701
 8088TIP3   OH245754   1.222   5.372   4.634  0.2205 -0.2526  0.1500
 8088TIP3    H145755   1.141   5.323   4.630  0.3981 -0.6537  1.3006
 8088TIP3    H245756   1.220   5.428   4.556 -2.1853  1.3528  1.2689
 8089TIP3   OH245757   0.685   3.774  15.502 -0.8520 -0.3701 -0.4157
 8089TIP3    H145758   0.611   3.715  15.519 -1.3535 -0.0639 -1.4496
 8089TIP3    H245759   0.715   3.801  15.589 -3.0322  0.7943  0.0569
 8090TIP3   OH245760   5.929   2.514   1.621  0.1658 -0.1412  0.0093
 8090TIP3    H145761   5.851   2.471   1.585  0.2790 -0.5636  0.2590
 8090TIP3    H245762   5.996   2.502   1.553 -0.5844  2.2858 -1.2865
 8091TIP3   OH245763   2.607   1.934   2.892 -0.3804  0.6797  0.2194
 8091TIP3    H145764   2.589   1.960   2.802 -0.2892  1.8340  0.5224
 8091TIP3    H245765   2.525   1.892   2.921 -0.3028  0.0129 -0.4779
 8092TIP3   OH245766   6.240   3.487   0.513  0.3913 -0.2855 -0.7120
 8092TIP3    H145767   6.328   3.454   0.494  0.2307 -0.8744 -0.4389
 8092TIP3    H245768   6.182   3.431   0.460  0.0875 -0.7072  0.0570
 8093TIP3   OH245769   5.934   6.206  11.654  0.2729  0.4311  0.2024
 8093TIP3    H145770   5.885   6.125  11.641  1.8437 -0.6306  0.6095
 8093TIP3    H245771   5.911   6.260  11.578  2.7885 -2.2873 -2.7826
 8094TIP3   OH245772   2.442   5.913  16.517 -0.3362  0.1232  0.2449
 8094TIP3    H145773   2.432   5.979  16.449  2.2591 -1.1783 -1.5890
 8094TIP3    H245774   2.411   5.832  16.476  0.0842 -0.4729  1.0801
 8095TIP3   OH245775   4.869   6.185  15.893  0.1436 -0.0581 -0.4953
 8095TIP3    H145776   4.877   6.240  15.971 -1.2191  0.4845 -0.7192
 8095TIP3    H245777   4.869   6.095  15.927 -1.6748  0.1896  0.2841
 8096TIP3   OH245778   0.393   5.006  16.041  0.6806 -0.4848  0.0266
 8096TIP3    H145779   0.483   5.035  16.056 -0.0486  0.7587  2.4909
 8096TIP3    H245780   0.354   5.077  15.990  0.6547 -0.2091  0.4257
 8097TIP3   OH245781   0.873   1.724  15.968  0.8515  1.0418  0.2622
 8097TIP3    H145782   0.827   1.760  15.892 -0.5254 -0.6930  0.1846
 8097TIP3    H245783   0.823   1.755  16.043  2.1752  2.7036  0.4940
 8098TIP3   OH245784   1.170   6.455  11.926  0.2344  0.2107  0.0479
 8098TIP3    H145785   1.242   6.485  11.983 -0.0487 -1.3704  1.3162
 8098TIP3    H245786   1.091   6.489  11.968  0.2111  3.1240 -2.0910
 8099TIP3   OH245787   5.963   5.601   5.699 -0.4654 -0.0260  0.0838
 8099TIP3    H145788   5.975   5.627   5.791  0.0408  1.3615 -0.3451
 8099TIP3    H245789   6.052   5.585   5.668 -0.5913  0.0761 -0.3244
 8100TIP3   OH245790   0.612   5.322  17.000  0.1597 -0.1590 -0.4993
 8100TIP3    H145791   0.571   5.406  16.981 -0.3347 -0.6704 -1.8248
 8100TIP3    H245792   0.556   5.258  16.957  1.0189 -1.0968 -0.2627
 8101TIP3   OH245793   2.694   3.593   6.607  0.4709 -0.4502 -0.2363
 8101TIP3    H145794   2.726   3.513   6.565  0.7522  0.1377 -1.1709
 8101TIP3    H245795   2.744   3.663   6.565  0.3668  0.1996  0.7148
 8102TIP3   OH245796   4.683   6.620  14.195  0.2210  0.1440  0.3336
 8102TIP3    H145797   4.610   6.679  14.214 -1.3421 -1.9437  1.2758
 8102TIP3    H245798   4.651   6.533  14.221  2.1455 -1.2482 -1.5767
 8103TIP3   OH245799   4.153   2.472   6.151  0.5319 -0.4304  0.7973
 8103TIP3    H145800   4.091   2.399   6.150  0.0678 -0.0415 -0.3393
 8103TIP3    H245801   4.215   2.453   6.080 -1.2183  1.5909 -1.4278
 8104TIP3   OH245802   2.011   1.324   5.631  1.0355 -0.0331  0.1419
 8104TIP3    H145803   1.970   1.408   5.650 -0.0710 -0.9678  2.2889
 8104TIP3    H245804   2.019   1.281   5.716 -0.7954 -3.1213 -1.0494
 8105TIP3   OH245805   3.405   4.281   5.642  0.2643 -0.3508  0.4853
 8105TIP3    H145806   3.450   4.262   5.724 -0.0878  0.5501  0.8901
 8105TIP3    H245807   3.475   4.281   5.576  0.5101 -1.3396  0.7287
 8106TIP3   OH245808   3.699   5.431  15.453 -0.3347 -0.1575  0.7233
 8106TIP3    H145809   3.692   5.396  15.541  0.8532  3.3855  2.4291
 8106TIP3    H245810   3.787   5.406  15.424  0.3321  0.9417  1.7275
 8107TIP3   OH245811   6.844   1.398  11.505 -0.1871 -0.6670  0.3409
 8107TIP3    H145812   6.841   1.373  11.413  0.0105  2.5345 -0.6572
 8107TIP3    H245813   6.790   1.333  11.549  0.3032 -2.7321 -1.8741
 8108TIP3   OH245814   0.585   4.824   1.394  0.6873  0.4093  0.2605
 8108TIP3    H145815   0.665   4.842   1.346  1.2877 -0.1222  1.0441
 8108TIP3    H245816   0.614   4.790   1.479 -0.3296 -2.5795 -0.4740
 8109TIP3   OH245817   5.365   5.597  16.924  0.1268 -0.0519  0.5160
 8109TIP3    H145818   5.336   5.521  16.975  3.2072 -1.1971  0.7940
 8109TIP3    H245819   5.461   5.594  16.930  0.4299  2.5348 -1.4514
 8110TIP3   OH245820   0.181   4.225   0.333 -0.5024  0.2492 -0.3909
 8110TIP3    H145821   0.171   4.320   0.324 -2.4322  0.1959  0.6301
 8110TIP3    H245822   0.170   4.209   0.427  1.5233 -0.8525 -0.2699
 8111TIP3   OH245823   6.499   5.838  15.913 -0.3588 -0.2079 -0.0815
 8111TIP3    H145824   6.587   5.876  15.920 -0.3296  0.4971 -2.9968
 8111TIP3    H245825   6.504   5.780  15.837 -2.6050  0.4994 -0.8452
 8112TIP3   OH245826   0.170   5.074   4.575  0.6192 -0.4210 -0.2965
 8112TIP3    H145827   0.250   5.120   4.550 -0.2378  2.4329  1.6759
 8112TIP3    H245828   0.101   5.116   4.524 -0.0157 -0.4801  0.4852
 8113TIP3   OH245829   1.295   4.442  14.489  0.7101  0.0155  0.2674
 8113TIP3    H145830   1.293   4.353  14.454 -0.7642 -0.3576  1.2168
 8113TIP3    H245831   1.215   4.482  14.456  0.0631  0.1395  1.8957
 8114TIP3   OH245832   3.863   6.424   0.036  0.3246  0.8800 -0.7862
 8114TIP3    H145833   3.790   6.368   0.062  0.3778 -0.1734 -2.7665
 8114TIP3    H245834   3.860   6.496   0.099 -1.2317 -0.0995  0.3534
 8115TIP3   OH245835   3.301   1.462   1.955  1.0310 -0.1864  0.1523
 8115TIP3    H145836   3.234   1.456   1.887  0.0926 -0.8186  1.0975
 8115TIP3    H245837   3.364   1.525   1.922 -0.6208  1.3095 -0.2814
 8116TIP3   OH245838   1.538   6.342  15.782  0.9056 -0.1775  0.0989
 8116TIP3    H145839   1.455   6.391  15.780  1.7999  1.5117  1.2894
 8116TIP3    H245840   1.515   6.257  15.819 -0.1319  0.6866  1.5688
 8117TIP3   OH245841   2.653   3.544   0.402  0.0667  0.4173  0.2478
 8117TIP3    H145842   2.557   3.551   0.407  0.1675  1.2846  1.3676
 8117TIP3    H245843   2.669   3.455   0.372 -1.0676 -0.1849  1.3557
 8118TIP3   OH245844   0.652   3.158   6.246  0.1752  0.1655  0.5580
 8118TIP3    H145845   0.699   3.196   6.171 -1.3375  1.1494  0.0727
 8118TIP3    H245846   0.711   3.089   6.278  1.1854  0.2054 -1.0720
 8119TIP3   OH245847   3.282   2.173   2.830  0.5709  0.0416 -0.3145
 8119TIP3    H145848   3.300   2.267   2.828 -0.1075  0.2522  1.4140
 8119TIP3    H245849   3.329   2.141   2.907 -1.1290 -0.5674  0.5128
 8120TIP3   OH245850   2.261   0.863   4.403 -0.1932  0.1768 -0.2611
 8120TIP3    H145851   2.285   0.943   4.356  0.9569 -0.5937 -1.0384
 8120TIP3    H245852   2.233   0.893   4.490 -1.6840  1.5660 -1.1754
 8121TIP3   OH245853   2.859   6.185  16.129  0.4008 -0.5050 -0.0866
 8121TIP3    H145854   2.776   6.181  16.177  0.3061  1.5309  0.0105
 8121TIP3    H245855   2.834   6.200  16.038  0.6547 -1.2272 -0.2842
 8122TIP3   OH245856   2.223   2.929   3.122  0.5047 -0.1462  0.4098
 8122TIP3    H145857   2.221   2.835   3.138  0.0679  0.0524  1.6519
 8122TIP3    H245858   2.302   2.960   3.167  2.2927 -0.2792 -2.4141
 8123TIP3   OH245859   3.549   1.167  14.883  0.4750 -0.0778 -0.4622
 8123TIP3    H145860   3.558   1.246  14.936 -0.5642 -0.2925  0.0630
 8123TIP3    H245861   3.629   1.165  14.830  0.2938  1.6002 -0.8758
 8124TIP3   OH245862   0.934   0.902   3.994  0.3047 -0.2220  0.0103
 8124TIP3    H145863   0.847   0.875   4.023  0.6554  0.6025  2.0080
 8124TIP3    H245864   0.921   0.989   3.956  0.3098  0.1821  0.8944
 8125TIP3   OH245865   3.167   2.508   1.543  0.1935 -0.3369  0.3972
 8125TIP3    H145866   3.103   2.575   1.566  0.0877 -0.8315  1.6293
 8125TIP3    H245867   3.244   2.557   1.513  0.6252  0.4299  2.5723
 8126TIP3   OH245868   6.616   1.404  13.385 -0.2359 -0.3364 -0.0146
 8126TIP3    H145869   6.647   1.324  13.344 -2.4710 -0.3173 -1.9406
 8126TIP3    H245870   6.681   1.423  13.453 -1.0558 -5.3098  2.5764
 8127TIP3   OH245871   5.041   1.493  12.132 -0.1428  0.1963 -0.7479
 8127TIP3    H145872   5.133   1.496  12.103  0.6443  0.5256  1.6128
 8127TIP3    H245873   5.006   1.579  12.109  0.8960  0.9955  0.5519
 8128TIP3   OH245874   0.283   2.764  11.035 -0.1927  0.0239  0.0884
 8128TIP3    H145875   0.233   2.684  11.046 -0.6868  0.4348  0.8852
 8128TIP3    H245876   0.326   2.778  11.120  1.8844 -0.7073 -0.7671
 8129TIP3   OH245877   2.880   4.330   0.871  0.4320  0.6162 -0.4053
 8129TIP3    H145878   2.963   4.356   0.910 -0.2436  1.2195  0.7016
 8129TIP3    H245879   2.867   4.390   0.798 -0.0289  1.9668  0.7420
 8130TIP3   OH245880   4.807   3.476  15.923 -0.2493  0.1099 -0.1958
 8130TIP3    H145881   4.739   3.540  15.901 -0.8438 -0.5930 -0.4614
 8130TIP3    H245882   4.868   3.524  15.979 -1.8197  0.3603  1.4234
 8131TIP3   OH245883   3.713   5.565  11.988  0.6728 -0.0889  0.7376
 8131TIP3    H145884   3.763   5.538  12.064  0.3360 -1.3791  0.5293
 8131TIP3    H245885   3.653   5.633  12.020 -0.6132 -1.7636  2.0078
 8132TIP3   OH245886   1.456   4.789  16.016  0.4018  0.9332  0.8202
 8132TIP3    H145887   1.552   4.790  16.018  0.4417 -0.2544  3.2749
 8132TIP3    H245888   1.431   4.777  16.107 -2.0750 -0.4985  0.0241
 8133TIP3   OH245889   0.632   1.970   3.131 -0.7913 -0.2541 -0.2078
 8133TIP3    H145890   0.668   1.889   3.093 -2.2876 -1.1569  0.2297
 8133TIP3    H245891   0.622   2.029   3.056 -0.3467 -0.7253 -0.6454
 8134TIP3   OH245892   6.811   1.882  13.596  0.5283  0.1342  0.6570
 8134TIP3    H145893   6.861   1.813  13.640 -0.9907  0.5157  3.1929
 8134TIP3    H245894   6.738   1.835  13.554  0.1153  0.0555  1.4396
 8135TIP3   OH245895   4.658   2.786   5.239  0.0659  0.1872  0.3153
 8135TIP3    H145896   4.693   2.875   5.240  0.3785  0.0634  0.9791
 8135TIP3    H245897   4.635   2.768   5.330  0.4555 -0.5770  0.2726
 8136TIP3   OH245898   2.202   2.175  13.493 -0.2577  0.9071  0.5804
 8136TIP3    H145899   2.136   2.226  13.446 -0.9013  0.8205  1.3748
 8136TIP3    H245900   2.259   2.240  13.533 -1.1072  1.0326  1.6337
 8137TIP3   OH245901   4.021   4.885  12.913  0.4715 -0.5448  0.5638
 8137TIP3    H145902   3.929   4.873  12.933  0.5387 -2.5015 -0.1191
 8137TIP3    H245903   4.065   4.887  12.998 -0.1268 -0.1867  0.8674
 8138TIP3   OH245904   4.073   4.186  14.364 -0.9676  0.1022 -0.3663
 8138TIP3    H145905   4.145   4.235  14.324 -0.3855 -0.1091  0.4111
 8138TIP3    H245906   3.995   4.238  14.345 -0.8081 -0.2575 -2.2598
 8139TIP3   OH245907   4.028   6.085   5.403  0.2067 -0.4155  0.9166
 8139TIP3    H145908   4.087   6.069   5.330 -1.5253  0.3690 -0.7267
 8139TIP3    H245909   3.973   6.006   5.407  0.4513 -0.5620  1.5668
 8140TIP3   OH245910   3.476   6.428  14.100  0.3242 -0.3892 -0.0022
 8140TIP3    H145911   3.529   6.349  14.094 -0.7225 -1.2207  1.2103
 8140TIP3    H245912   3.386   6.399  14.090 -0.1133  0.5760  0.8675
 8141TIP3   OH245913   0.733   2.090  11.255 -0.2096  0.5512  0.5519
 8141TIP3    H145914   0.708   2.167  11.204 -0.4162  0.8731  1.1294
 8141TIP3    H245915   0.674   2.091  11.330 -2.0590 -1.6794 -0.7667
 8142TIP3   OH245916   1.003   5.248  15.480  0.1397 -0.0437  0.0215
 8142TIP3    H145917   0.945   5.184  15.439 -2.1321  1.8028  0.1279
 8142TIP3    H245918   1.060   5.278  15.409 -0.1052 -0.7536 -0.4788
 8143TIP3   OH245919   2.179   6.098  15.441  0.7003 -0.6079 -0.0685
 8143TIP3    H145920   2.263   6.091  15.487 -0.1367 -0.5806  1.5486
 8143TIP3    H245921   2.129   6.162  15.493 -0.1438 -0.2355 -1.3002
 8144TIP3   OH245922   2.178   5.720   2.079 -0.1333 -0.5064 -0.4706
 8144TIP3    H145923   2.228   5.646   2.114  0.0194  0.2521  0.9738
 8144TIP3    H245924   2.232   5.754   2.008  2.1376  1.0619  1.8251
 8145TIP3   OH245925   1.884   0.158  14.301  0.1137 -0.3961 -0.3142
 8145TIP3    H145926   1.827   0.194  14.368  0.0405  1.5053 -1.3299
 8145TIP3    H245927   1.860   0.065  14.296 -2.0441  0.0865  0.1343
 8146TIP3   OH245928   0.019   6.386   1.125 -0.4768  0.1347 -0.1040
 8146TIP3    H145929  -0.034   6.458   1.091 -0.2018 -0.1110 -1.0590
 8146TIP3    H245930   0.041   6.414   1.215 -0.2691  1.3007 -0.4984
 8147TIP3   OH245931   4.056   4.621   4.917 -0.5916 -0.7382  0.4626
 8147TIP3    H145932   3.984   4.684   4.918 -1.8155 -1.9193 -2.7737
 8147TIP3    H245933   4.042   4.567   4.995 -1.8043  0.5051  1.1474
 8148TIP3   OH245934   4.142   1.079   5.040 -0.2272 -0.1990  0.1547
 8148TIP3    H145935   4.065   1.072   5.095 -0.8801  0.4831 -0.6391
 8148TIP3    H245936   4.215   1.051   5.096 -0.9069  0.1503  1.2426
 8149TIP3   OH245937   2.066   3.192   0.885  0.1081 -0.1635  0.0042
 8149TIP3    H145938   1.995   3.141   0.925 -1.4616  0.8370 -1.3954
 8149TIP3    H245939   2.030   3.280   0.876  0.8806 -0.0368 -2.3496
 8150TIP3   OH245940   0.255   5.182   2.288 -0.5742  0.2230 -0.6611
 8150TIP3    H145941   0.201   5.235   2.230 -0.7990  1.3995  0.5630
 8150TIP3    H245942   0.250   5.227   2.373  0.1230 -1.1634  0.1523
 8151TIP3   OH245943   3.420   2.307  15.047 -0.0798  0.3389 -0.4578
 8151TIP3    H145944   3.381   2.384  15.090  0.2248  0.9422 -1.2532
 8151TIP3    H245945   3.438   2.246  15.119  0.5451  1.3877  0.2886
 8152TIP3   OH245946   0.898   2.246  16.095  0.1885  0.3901 -0.8274
 8152TIP3    H145947   0.962   2.309  16.062 -0.3835  1.7423  0.5420
 8152TIP3    H245948   0.949   2.167  16.113  1.0245  0.6280 -1.9942
 8153TIP3   OH245949   0.189   6.049  14.828 -0.1992  0.1359 -0.3926
 8153TIP3    H145950   0.187   6.132  14.876 -1.9617  0.4593 -0.9446
 8153TIP3    H245951   0.195   5.982  14.896 -3.9213  0.5247  0.5103
 8154TIP3   OH245952   6.320   3.246   6.245 -0.1064 -0.0631  0.8856
 8154TIP3    H145953   6.237   3.283   6.215 -0.5916 -1.8263 -0.0750
 8154TIP3    H245954   6.294   3.184   6.314  0.4626 -0.3045  0.8844
 8155TIP3   OH245955   4.717   2.685  16.513 -0.2820 -0.2568  0.5450
 8155TIP3    H145956   4.742   2.669  16.604  0.2578 -0.6940  0.3239
 8155TIP3    H245957   4.643   2.745  16.519 -1.2215 -1.4468  1.3429
 8156TIP3   OH245958   0.220   2.957  15.996  0.1928 -0.5075  0.3734
 8156TIP3    H145959   0.199   3.038  16.043  0.9660  0.5278 -0.9924
 8156TIP3    H245960   0.146   2.899  16.015 -1.1844  1.0810  0.1291
 8157TIP3   OH245961   6.405   0.746   1.429  0.5106 -0.3695 -0.3413
 8157TIP3    H145962   6.374   0.659   1.404  0.7366 -0.8551  1.0137
 8157TIP3    H245963   6.472   0.768   1.364  1.0953 -1.5950 -0.1696
 8158TIP3   OH245964   2.956   4.940   2.742 -0.0137 -0.4141 -0.4206
 8158TIP3    H145965   2.976   4.921   2.834 -0.6418  0.0561 -0.1789
 8158TIP3    H245966   3.032   4.989   2.711  0.8280 -1.7592 -0.5577
 8159TIP3   OH245967   2.065   1.121   1.269 -1.0210 -0.0529 -0.0047
 8159TIP3    H145968   2.043   1.122   1.176  0.2670 -0.1268 -0.3385
 8159TIP3    H245969   2.049   1.030   1.296 -0.2026 -0.3640 -0.4935
 8160TIP3   OH245970   1.552   1.793   0.309 -0.3647  0.0444 -0.5418
 8160TIP3    H145971   1.527   1.886   0.309 -1.9280 -0.3366  0.5498
 8160TIP3    H245972   1.577   1.775   0.218 -0.4139  1.4272 -0.8519
 8161TIP3   OH245973   1.963   3.688  11.925  0.3635  0.2897 -0.1023
 8161TIP3    H145974   1.969   3.693  11.829  0.0511 -1.2282 -0.2217
 8161TIP3    H245975   1.881   3.734  11.946  0.1268  0.1160 -0.6188
 8162TIP3   OH245976   4.601   6.823  11.696 -0.3759 -0.4854 -0.2502
 8162TIP3    H145977   4.641   6.885  11.757 -1.1268 -0.2687  0.0369
 8162TIP3    H245978   4.508   6.846  11.696 -0.7883 -1.9542  0.2984
 8163TIP3   OH245979   1.361   2.233  11.647  0.0988  0.2810 -0.3350
 8163TIP3    H145980   1.278   2.185  11.651 -0.8206  1.5614 -2.4513
 8163TIP3    H245981   1.346   2.313  11.697 -0.3128  0.9528 -1.4864
 8164TIP3   OH245982   4.251   4.546   3.542 -0.4653 -0.3473 -0.3143
 8164TIP3    H145983   4.176   4.530   3.485 -1.9309  1.1924  1.0735
 8164TIP3    H245984   4.320   4.575   3.483 -1.6955  0.4696 -1.4060
 8165TIP3   OH245985   3.915   0.539   0.811 -0.4129 -0.1798 -0.4615
 8165TIP3    H145986   3.988   0.482   0.832 -0.6285 -0.3903 -0.2819
 8165TIP3    H245987   3.943   0.585   0.732  0.4031  0.6278  0.2780
 8166TIP3   OH245988   2.879   1.418   4.279  0.0953 -0.6661 -0.1715
 8166TIP3    H145989   2.837   1.333   4.271  0.0377 -0.7279  0.6691
 8166TIP3    H245990   2.848   1.468   4.203 -1.4219 -0.7478  0.3586
 8167TIP3   OH245991   2.937   3.212  12.440 -0.0314 -0.0390  0.5400
 8167TIP3    H145992   2.888   3.172  12.512  0.9830 -1.7233  0.3549
 8167TIP3    H245993   2.947   3.304  12.466 -2.4130  0.1395  1.0176
 8168TIP3   OH245994   0.472   0.624   0.460  0.3555  0.1931 -0.7493
 8168TIP3    H145995   0.437   0.539   0.486 -0.2741  0.7297  0.2145
 8168TIP3    H245996   0.450   0.682   0.532 -0.5029  1.5189 -2.0202
 8169TIP3   OH245997   0.345   4.153   4.221  0.2510  0.1859 -0.4568
 8169TIP3    H145998   0.282   4.105   4.166 -0.2750  0.3365  0.0001
 8169TIP3    H245999   0.412   4.088   4.243 -0.5268 -0.4029  0.2715
 8170TIP3   OH246000   5.336   4.732   4.333 -0.1832  0.0118 -0.0102
 8170TIP3    H146001   5.406   4.689   4.283  0.0497  1.3635 -0.8980
 8170TIP3    H246002   5.382   4.780   4.401 -0.5140 -2.0144  1.7404
 8171TIP3   OH246003   3.319   0.010   0.693 -0.0049 -0.3386  0.0911
 8171TIP3    H146004   3.250  -0.056   0.685 -1.4101  0.8344  1.7611
 8171TIP3    H246005   3.354   0.019   0.605 -1.5831 -1.3958 -0.6880
 8172TIP3   OH246006   3.950   4.386  15.973 -0.0533  0.2298  0.1083
 8172TIP3    H146007   3.857   4.397  15.993  0.0876  1.0461  0.3783
 8172TIP3    H246008   3.990   4.469  16.002  0.7263 -0.0475 -0.1597
 8173TIP3   OH246009   5.580   0.552  16.333  0.2169 -0.3902  0.2628
 8173TIP3    H146010   5.528   0.526  16.410 -0.8985 -0.7684 -0.5864
 8173TIP3    H246011   5.611   0.469  16.296  1.1288 -0.1828  0.5478
 8174TIP3   OH246012   1.397   3.559   5.042 -0.1025 -0.6347 -0.0148
 8174TIP3    H146013   1.380   3.646   5.004  0.0907 -0.9539 -0.8642
 8174TIP3    H246014   1.483   3.567   5.082 -0.4814 -0.1737  0.7246
 8175TIP3   OH246015   2.741   3.882   2.383 -0.4625  0.3741 -0.0913
 8175TIP3    H146016   2.649   3.906   2.398  0.0895  2.6354 -0.0562
 8175TIP3    H246017   2.778   3.957   2.337  1.5453 -0.2097  0.4989
 8176TIP3   OH246018   5.310   5.790   4.781 -0.1503  0.4944  0.4041
 8176TIP3    H146019   5.258   5.785   4.861 -1.6544 -0.0799 -0.5588
 8176TIP3    H246020   5.293   5.878   4.747  0.3255  0.6669  0.6149
 8177TIP3   OH246021   1.888   4.400  11.063 -0.6911  0.0078 -0.2830
 8177TIP3    H146022   1.897   4.357  10.978  2.2717 -2.1437  0.9193
 8177TIP3    H246023   1.852   4.332  11.121  0.5320  0.2894  0.8667
 8178TIP3   OH246024   6.096   1.655   6.035  0.5417  0.4633 -0.0584
 8178TIP3    H146025   6.100   1.590   5.964  1.0305  0.7115 -0.2562
 8178TIP3    H246026   6.086   1.603   6.114  0.8376  0.1485 -0.2266
 8179TIP3   OH246027   4.450   5.346  14.605  0.0958  0.4055  0.0862
 8179TIP3    H146028   4.495   5.333  14.522  0.2446 -1.1224  0.3808
 8179TIP3    H246029   4.518   5.336  14.671  0.1134  2.2939  0.3959
 8180TIP3   OH246030   6.009   0.605  11.514  0.0331 -0.0023  0.4672
 8180TIP3    H146031   6.027   0.688  11.469  0.7613  0.1854  1.0937
 8180TIP3    H246032   6.093   0.580  11.552 -0.0799 -1.2315 -0.0404
 8181TIP3   OH246033   5.407   4.735  16.614  0.2261 -0.0339  0.2056
 8181TIP3    H146034   5.492   4.780  16.621 -0.2844  0.7730  1.8085
 8181TIP3    H246035   5.415   4.660  16.673  0.2248 -0.6740 -0.5883
 8182TIP3   OH246036   0.417   1.175   5.097  0.2338  0.3476 -0.2977
 8182TIP3    H146037   0.457   1.226   5.027 -1.3327 -0.9115 -2.2435
 8182TIP3    H246038   0.344   1.229   5.127 -0.0072  0.2550 -0.7100
 8183TIP3   OH246039   5.453   3.227  14.569 -0.1212  0.2300 -0.3646
 8183TIP3    H146040   5.499   3.147  14.542  0.2134  0.4119 -0.3390
 8183TIP3    H246041   5.447   3.220  14.664 -0.1738  0.1928 -0.3702
 8184TIP3   OH246042   0.617   0.438   1.294 -0.0016  0.4653 -0.2840
 8184TIP3    H146043   0.708   0.446   1.323  0.5052  0.4940 -1.8212
 8184TIP3    H246044   0.610   0.349   1.260 -0.5507  0.4626 -0.1808
 8185TIP3   OH246045   0.088   6.130  17.085 -0.3802  0.2688 -0.1349
 8185TIP3    H146046   0.082   6.147  17.179  2.8188  0.3164  0.1792
 8185TIP3    H246047   0.123   6.211  17.048 -0.6007 -0.1159 -1.2063
 8186TIP3   OH246048   6.538   6.663   5.274  0.3812 -0.3419 -0.5302
 8186TIP3    H146049   6.619   6.711   5.255  1.2603 -1.2031  0.9056
 8186TIP3    H246050   6.546   6.638   5.365 -1.8343  0.1353 -0.1437
 8187TIP3   OH246051   1.121   6.348  16.687  0.5387 -0.0732  0.2997
 8187TIP3    H146052   1.166   6.278  16.640  0.5026 -0.7941  1.3009
 8187TIP3    H246053   1.091   6.407  16.618  0.2338 -1.2369 -0.6176
 8188TIP3   OH246054   4.517   0.175   0.126 -0.4245  0.3297 -0.1583
 8188TIP3    H146055   4.476   0.248   0.172 -0.6406  0.0942  0.0284
 8188TIP3    H246056   4.458   0.157   0.052  0.2245  1.0894 -0.8808
 8189TIP3   OH246057   4.747   0.993  15.840 -0.3332 -0.2287 -0.1387
 8189TIP3    H146058   4.729   0.929  15.772 -0.8761  0.4800 -0.6896
 8189TIP3    H246059   4.764   1.074  15.792  0.2408  0.0618  0.5421
 8190TIP3   OH246060   4.156   4.283  10.809  0.6898  0.3911  0.0183
 8190TIP3    H146061   4.142   4.294  10.715 -0.0908  1.4016  0.2354
 8190TIP3    H246062   4.078   4.238  10.840  1.2677 -0.5988  0.0882
 8191TIP3   OH246063   0.060   1.884  10.993 -0.5741  0.2956  0.0338
 8191TIP3    H146064   0.005   1.828  11.048  1.4987 -2.1258 -0.1585
 8191TIP3    H246065   0.146   1.883  11.037 -0.2760  3.0097 -0.2671
 8192TIP3   OH246066   3.911   5.492  12.599 -0.3464  0.6398  0.3900
 8192TIP3    H146067   3.915   5.456  12.511 -1.2948  1.9214 -0.2159
 8192TIP3    H246068   3.819   5.485  12.624  0.3979 -2.9685  2.7810
 8193TIP3   OH246069   3.124   3.916   4.375  0.0785  0.6478 -0.3004
 8193TIP3    H146070   3.142   3.825   4.352 -1.1310  0.4921 -0.7133
 8193TIP3    H246071   3.066   3.910   4.451 -0.0804  1.0664 -0.3888
 8194TIP3   OH246072   5.434   6.231  17.095  0.2462 -0.2022  0.1433
 8194TIP3    H146073   5.427   6.158  17.034  0.9499  0.3699 -0.6457
 8194TIP3    H246074   5.382   6.204  17.171 -1.8738 -0.3495 -1.2823
 8195TIP3   OH246075   4.700   6.143  16.881  0.9529  0.3897 -0.3754
 8195TIP3    H146076   4.701   6.218  16.941  1.0267 -0.3616  0.5765
 8195TIP3    H246077   4.612   6.144  16.844  0.1933 -0.3664  1.3387
 8196TIP3   OH246078   0.565   5.148  13.529  0.4009 -0.0727  0.6007
 8196TIP3    H146079   0.490   5.205  13.540 -0.0480 -0.5497  0.0719
 8196TIP3    H246080   0.590   5.123  13.618  0.5588  0.8689  0.8325
 8197TIP3   OH246081   6.147   1.349   3.258 -0.0373 -0.1818 -0.0515
 8197TIP3    H146082   6.237   1.316   3.266 -0.2247 -0.5557  0.5250
 8197TIP3    H246083   6.132   1.353   3.163  0.7825  0.4296 -0.1748
 8198TIP3   OH246084   3.818   2.441   2.420 -0.1718  0.1015 -0.4047
 8198TIP3    H146085   3.725   2.423   2.436 -0.1260  0.8249  0.8818
 8198TIP3    H246086   3.828   2.533   2.443  0.7087  0.2518 -1.3456
 8199TIP3   OH246087   4.934   3.945   5.734 -0.0550  0.0006  0.1483
 8199TIP3    H146088   4.858   3.996   5.709 -0.5092 -0.5268  0.4344
 8199TIP3    H246089   4.911   3.854   5.713  0.7019 -0.1059 -0.2645
 8200TIP3   OH246090   0.935   1.799  13.400 -0.1343  0.2673 -0.3435
 8200TIP3    H146091   0.983   1.731  13.447 -0.3725  0.4224  0.1310
 8200TIP3    H246092   0.954   1.880  13.448 -0.3551  0.4338 -0.5310
 8201TIP3   OH246093   6.744   3.156  16.900  0.1582 -0.3832 -0.2088
 8201TIP3    H146094   6.798   3.091  16.944  2.6847  0.3323 -2.0284
 8201TIP3    H246095   6.785   3.240  16.921 -0.6642  0.2658 -1.0796
 8202TIP3   OH246096   0.097   4.242  12.267  0.3810  0.2135  0.7966
 8202TIP3    H146097   0.008   4.209  12.278 -0.0461  1.3262  0.7481
 8202TIP3    H246098   0.087   4.329  12.229  1.4409  0.7430  1.6410
 8203TIP3   OH246099   5.627   6.838  12.092  0.6885 -0.1566  0.3747
 8203TIP3    H146100   5.585   6.802  12.170  0.6528 -1.9961 -0.4321
 8203TIP3    H246101   5.655   6.761  12.043  3.5028  0.9623  0.0394
 8204TIP3   OH246102   3.716   4.253  16.736 -0.4503  0.0447  0.2291
 8204TIP3    H146103   3.774   4.329  16.732  0.9255 -0.8299  1.8414
 8204TIP3    H246104   3.635   4.286  16.775 -0.6005  1.0424 -0.8963
 8205TIP3   OH246105   1.418   1.348   4.825 -0.7651  0.0015 -0.7172
 8205TIP3    H146106   1.396   1.382   4.912 -0.7786  0.0900 -0.7551
 8205TIP3    H246107   1.464   1.266   4.843  0.5487  0.7439 -0.5764
 8206TIP3   OH246108   2.022   3.475  15.903 -0.4986 -0.0961  0.0001
 8206TIP3    H146109   1.951   3.424  15.864 -0.5116 -0.0847  0.0095
 8206TIP3    H246110   1.978   3.547  15.949 -0.4195  0.4974 -0.8485
 8207TIP3   OH246111   6.757   5.104  14.957  0.1109 -0.1646 -0.2340
 8207TIP3    H146112   6.763   5.010  14.940  0.8133 -0.6165  2.1655
 8207TIP3    H246113   6.826   5.121  15.022 -1.0131  1.6911  0.5503
 8208TIP3   OH246114   1.405   4.141   4.883 -0.4518  0.1850 -0.4615
 8208TIP3    H146115   1.395   4.086   4.960 -3.2203  0.8731 -0.2462
 8208TIP3    H246116   1.496   4.127   4.856  0.8327  0.3400  3.1986
 8209TIP3   OH246117   0.260   4.376  13.535 -0.7193  0.2192  0.0959
 8209TIP3    H146118   0.187   4.420  13.493  0.6863 -0.3708 -3.2873
 8209TIP3    H246119   0.283   4.432  13.609 -1.8597  2.6855 -1.3072
 8210TIP3   OH246120   2.298   6.210  16.413  0.0162  0.7015 -0.0952
 8210TIP3    H146121   2.324   6.233  16.503 -0.6000 -1.8382  0.8112
 8210TIP3    H246122   2.380   6.200  16.366  0.5190 -0.9404  1.0424
 8211TIP3   OH246123   1.316   0.673   0.922 -0.6250  0.0354  0.0474
 8211TIP3    H146124   1.262   0.688   1.000 -1.2171 -0.6171 -0.2286
 8211TIP3    H246125   1.253   0.650   0.854 -0.0914  0.4157 -0.5798
 8212TIP3   OH246126   2.363   2.946  12.256  0.0163 -0.2315 -0.0091
 8212TIP3    H146127   2.358   2.973  12.164  1.1803  0.7740  0.1913
 8212TIP3    H246128   2.454   2.921  12.269  0.2307  1.0609  1.2219
 8213TIP3   OH246129   0.880   1.856  14.756  0.3170  0.4306 -0.3073
 8213TIP3    H146130   0.928   1.814  14.828  2.3581  1.7088 -0.8217
 8213TIP3    H246131   0.893   1.950  14.770 -0.9623  0.7782 -1.2432
 8214TIP3   OH246132   6.418   0.282  13.754  0.3368 -0.1000 -0.1045
 8214TIP3    H146133   6.357   0.211  13.773  2.2304 -1.9463 -0.5420
 8214TIP3    H246134   6.366   0.347  13.707 -1.4692 -1.1722  0.3233
 8215TIP3   OH246135   1.523   4.519  16.625 -0.2861 -0.0464  0.2133
 8215TIP3    H146136   1.475   4.601  16.618 -0.5034 -0.2722 -1.4764
 8215TIP3    H246137   1.557   4.504  16.537  0.3584 -1.4040  0.6651
 8216TIP3   OH246138   0.586   3.336  12.979 -0.2101  0.8550  0.0296
 8216TIP3    H146139   0.603   3.329  13.073 -1.3634  0.9498  0.2608
 8216TIP3    H246140   0.525   3.264  12.961  0.2750  0.6201 -0.7225
 8217TIP3   OH246141   6.204   5.373  11.572  1.1279 -0.0407 -0.4989
 8217TIP3    H146142   6.159   5.443  11.525  0.5657  0.7228  1.0877
 8217TIP3    H246143   6.278   5.349  11.516  1.3795  1.8863 -1.0515
 8218TIP3   OH246144   5.375   6.831  14.325  0.2405  0.3104  0.2187
 8218TIP3    H146145   5.391   6.740  14.350  1.0261  0.2326 -0.5030
 8218TIP3    H246146   5.314   6.865  14.391  0.3966 -0.5696  0.8210
 8219TIP3   OH246147   5.337   4.830   0.271 -0.1270  0.0311 -0.2022
 8219TIP3    H146148   5.303   4.826   0.182 -1.3210 -0.1425  0.2346
 8219TIP3    H246149   5.314   4.745   0.309 -0.1006  0.2936  0.4183
 8220TIP3   OH246150   0.780   4.053  17.025 -0.0272 -0.2571 -0.0844
 8220TIP3    H146151   0.874   4.038  17.029 -0.4020 -3.0148  2.4391
 8220TIP3    H246152   0.768   4.141  17.059  1.6718  1.0312 -2.5498
 8221TIP3   OH246153   5.493   6.136  15.009  0.1610 -0.1245 -0.1311
 8221TIP3    H146154   5.472   6.173  15.095  0.5856  3.6696 -1.4645
 8221TIP3    H246155   5.408   6.120  14.968 -0.0719  0.1939  0.2224
 8222TIP3   OH246156   5.701   5.211   2.466 -0.1835 -0.5436 -0.4406
 8222TIP3    H146157   5.749   5.257   2.536  0.2936 -1.7212  0.0275
 8222TIP3    H246158   5.609   5.221   2.490 -0.0467 -0.5355  0.0955
 8223TIP3   OH246159   3.299   3.787   0.964  0.1880 -0.0662  0.2474
 8223TIP3    H146160   3.273   3.817   1.052  0.3478  2.6550 -0.5467
 8223TIP3    H246161   3.216   3.770   0.920 -0.1147  2.0507 -0.1336
 8224TIP3   OH246162   2.142   1.589   5.278  0.1625 -0.1369  0.0835
 8224TIP3    H146163   2.168   1.508   5.322  1.1947 -0.2419 -0.6831
 8224TIP3    H246164   2.106   1.560   5.194 -0.4273  0.1425  0.2365
 8225TIP3   OH246165   1.616   1.117  16.179 -0.4646 -0.4249 -0.2993
 8225TIP3    H146166   1.674   1.147  16.110  0.2615 -0.6556  0.1949
 8225TIP3    H246167   1.650   1.159  16.258 -2.5130  1.4822 -0.3620
 8226TIP3   OH246168   2.824   6.139   0.293 -0.3660 -0.7101 -0.4457
 8226TIP3    H146169   2.871   6.221   0.277 -0.1418 -1.0531 -1.6583
 8226TIP3    H246170   2.867   6.101   0.369 -0.6904  0.4513  0.3382
 8227TIP3   OH246171   1.283   4.605  11.732 -0.1025 -0.1702 -0.0001
 8227TIP3    H146172   1.248   4.682  11.688 -0.5061 -0.8300 -0.8778
 8227TIP3    H246173   1.229   4.596  11.810 -1.7556 -0.9639 -1.1500
 8228TIP3   OH246174   2.725   4.453   4.396  0.0087  0.6954  0.7688
 8228TIP3    H146175   2.644   4.449   4.344  0.5849 -1.0478 -0.0752
 8228TIP3    H246176   2.791   4.485   4.334  0.0115  2.0231  1.4290
 8229TIP3   OH246177   4.996   1.001  15.037  0.1097  0.2446 -0.0510
 8229TIP3    H146178   4.911   1.022  15.076  0.1335 -0.6961  0.5220
 8229TIP3    H246179   5.053   1.074  15.064 -0.5722  1.0538 -0.7180
 8230TIP3   OH246180   6.665   0.222  10.445  0.0373 -0.0471  0.1037
 8230TIP3    H146181   6.715   0.173  10.511  1.0720  0.5685 -0.1962
 8230TIP3    H246182   6.728   0.238  10.375 -1.0011 -0.5367 -0.9683
 8231TIP3   OH246183   0.226   3.717  12.858 -0.2416 -0.5349  0.0783
 8231TIP3    H146184   0.134   3.720  12.887 -0.2610  1.0359 -0.0804
 8231TIP3    H246185   0.271   3.778  12.916  1.2727 -3.2423  1.9375
 8232TIP3   OH246186   6.323   0.514   1.257  0.2095 -0.0309 -0.0682
 8232TIP3    H146187   6.358   0.432   1.222 -3.3338 -0.7555 -2.5186
 8232TIP3    H246188   6.319   0.573   1.181  0.8195  1.7760  1.2299
 8233TIP3   OH246189   6.384   6.606   2.310  0.0097  0.4217  0.0215
 8233TIP3    H146190   6.473   6.640   2.295 -1.2187  4.3778  0.5360
 8233TIP3    H246191   6.366   6.626   2.402 -1.9359  1.1246 -0.4750
 8234TIP3   OH246192   1.080   4.313   4.599 -0.0146 -0.4534 -0.3214
 8234TIP3    H146193   1.107   4.373   4.529 -1.4894 -0.8270 -1.2412
 8234TIP3    H246194   1.158   4.260   4.614  0.2193 -0.6780 -2.0250
 8235TIP3   OH246195   4.281   2.372  13.399  0.2613  0.2140 -0.7317
 8235TIP3    H146196   4.186   2.387  13.396  0.0035 -1.1614 -0.1023
 8235TIP3    H246197   4.292   2.284  13.365  1.1621 -0.2159  0.6213
 8236TIP3   OH246198   1.815   6.594  12.646 -0.4371  0.3339  0.4481
 8236TIP3    H146199   1.907   6.603  12.620 -0.4842 -1.4561 -0.4819
 8236TIP3    H246200   1.766   6.619  12.568 -0.6390 -1.9027 -0.2045
 8237TIP3   OH246201   3.926   6.208  16.011  0.8233 -0.7108  0.7572
 8237TIP3    H146202   3.944   6.302  16.014  0.5916 -0.6768  1.0513
 8237TIP3    H246203   3.833   6.201  15.992  1.1639 -0.8925 -1.0409
 8238TIP3   OH246204   6.691   5.840  14.798 -0.2902 -0.0431 -0.4858
 8238TIP3    H146205   6.704   5.759  14.748 -1.0058 -0.7453  0.4334
 8238TIP3    H246206   6.617   5.883  14.754 -1.1750 -0.8514  0.1687
 8239TIP3   OH246207   1.954   5.145  17.133  0.5639  0.3263  0.3022
 8239TIP3    H146208   1.981   5.053  17.143 -0.8639  0.1108  3.1458
 8239TIP3    H246209   2.005   5.192  17.198 -0.4940  1.1138  0.5916
 8240TIP3   OH246210   2.286   0.385  14.095  0.3173 -0.4193  0.3801
 8240TIP3    H146211   2.311   0.476  14.084  0.4735 -0.7152 -2.4748
 8240TIP3    H246212   2.369   0.338  14.104  0.3937 -0.5300 -0.7903
 8241TIP3   OH246213   1.152   4.565  16.430 -0.4113 -0.1443 -0.6502
 8241TIP3    H146214   1.202   4.598  16.355 -0.7297  1.1823 -0.3058
 8241TIP3    H246215   1.186   4.613  16.505 -1.4822  0.0217 -0.2526
 8242TIP3   OH246216   6.007   6.785  13.058  0.1088  0.5088  0.0992
 8242TIP3    H146217   6.025   6.879  13.061 -1.5817  0.8631  0.8869
 8242TIP3    H246218   5.973   6.765  13.146 -1.5965 -0.3581 -0.7069
 8243TIP3   OH246219   5.241   4.680   4.075 -0.1105  0.4897  0.1349
 8243TIP3    H146220   5.280   4.694   4.161 -0.9780  0.9195  0.4739
 8243TIP3    H246221   5.190   4.760   4.059  0.0744  0.4283 -0.7916
 8244TIP3   OH246222   4.697   0.205  13.604  0.1591 -0.2090  0.2252
 8244TIP3    H146223   4.655   0.182  13.686  0.3516  1.4502  0.8199
 8244TIP3    H246224   4.640   0.169  13.536 -0.6243 -0.5577  1.0570
 8245TIP3   OH246225   1.360   0.274  16.035 -0.4673 -0.3481  0.5832
 8245TIP3    H146226   1.367   0.179  16.034 -1.2232 -0.4131 -0.3529
 8245TIP3    H246227   1.395   0.300  16.120  0.6433 -1.3784  0.4726
 8246TIP3   OH246228   6.289   1.950   5.820 -0.3039 -0.3531 -0.3129
 8246TIP3    H146229   6.257   1.929   5.908 -1.2652  0.0155 -0.5569
 8246TIP3    H246230   6.362   2.010   5.834  0.6039 -1.5415  0.2794
 8247TIP3   OH246231   2.612   2.434   0.743 -0.0205  0.1394  0.4903
 8247TIP3    H146232   2.568   2.513   0.774 -2.7230 -0.0446 -2.3527
 8247TIP3    H246233   2.681   2.466   0.684 -1.4292  0.4982 -1.0491
 8248TIP3   OH246234   5.042   1.677   5.380  0.0727 -0.0445 -0.2552
 8248TIP3    H146235   4.955   1.701   5.413  0.7582 -0.1086  1.6861
 8248TIP3    H246236   5.056   1.735   5.305 -1.3947  0.3582 -0.2510
 8249TIP3   OH246237   6.414   1.556  15.745  0.1659  0.0486  0.1491
 8249TIP3    H146238   6.450   1.633  15.790  0.1432  0.0244  0.2093
 8249TIP3    H246239   6.483   1.490  15.752  1.4083  0.9315 -2.3796
 8250TIP3   OH246240   3.120   1.428  15.441 -0.3655 -0.4971 -0.0545
 8250TIP3    H146241   3.025   1.430  15.426 -0.4834 -1.1279  0.5690
 8250TIP3    H246242   3.130   1.446  15.535  0.1249 -0.6456 -0.0752
 8251TIP3   OH246243   0.635   2.060  16.670  0.1497 -0.0279 -0.5151
 8251TIP3    H146244   0.690   2.137  16.682  1.1182 -0.6194 -1.0110
 8251TIP3    H246245   0.696   1.990  16.645 -0.7411 -0.8760 -0.4102
 8252TIP3   OH246246   5.747   6.417   1.369  0.2278  0.5439  0.6522
 8252TIP3    H146247   5.795   6.495   1.343 -0.0746  1.2279  2.0651
 8252TIP3    H246248   5.806   6.369   1.426 -0.2537  0.6964  1.2936
 8253TIP3   OH246249   4.031   4.644  16.031 -0.0141  0.6230 -0.0091
 8253TIP3    H146250   4.112   4.622  15.986  0.2391  0.4318  0.5295
 8253TIP3    H246251   4.059   4.687  16.111 -0.3689 -0.9120  0.9901
 8254TIP3   OH246252   5.582   3.510  17.131  0.1747  0.1394 -0.3644
 8254TIP3    H146253   5.531   3.435  17.158 -0.0022  0.2585 -0.3678
 8254TIP3    H246254   5.524   3.559  17.072 -0.8615  1.9048  1.9718
 8255TIP3   OH246255   5.115   2.837   0.286 -0.5997  0.0097  0.6983
 8255TIP3    H146256   5.110   2.927   0.253 -1.2128 -0.0294  0.6787
 8255TIP3    H246257   5.187   2.798   0.236  0.1590  0.7006  1.2313
 8256TIP3   OH246258   1.800   6.854  15.120  0.0476 -0.3876  0.2393
 8256TIP3    H146259   1.832   6.858  15.210 -1.0469 -1.6745  0.7290
 8256TIP3    H246260   1.801   6.760  15.099  0.5936 -0.0818 -1.2175
 8257TIP3   OH246261   1.506   1.695  11.668  0.2504 -0.0099  0.0472
 8257TIP3    H146262   1.514   1.730  11.580 -2.9629  1.8796  0.3273
 8257TIP3    H246263   1.556   1.614  11.667 -0.4958 -0.6081 -3.8057
 8258TIP3   OH246264   0.501   1.509  14.763 -0.2642 -0.2883  0.0361
 8258TIP3    H146265   0.431   1.502  14.698 -1.4340 -0.9169  1.3035
 8258TIP3    H246266   0.533   1.419  14.773  1.3911  0.1256 -1.1900
 8259TIP3   OH246267   0.939   2.114  14.807 -0.1255 -0.2771 -0.3451
 8259TIP3    H146268   0.955   2.195  14.856  0.0851 -0.6412  0.1985
 8259TIP3    H246269   1.021   2.097  14.761 -0.4720  0.3135 -1.2109
 8260TIP3   OH246270   3.351   5.453   4.804  0.1619 -0.3082 -0.4005
 8260TIP3    H146271   3.407   5.388   4.763 -0.8217  0.1468 -2.6256
 8260TIP3    H246272   3.281   5.469   4.740 -2.2293 -0.4370  1.9817
 8261TIP3   OH246273   6.250   1.870   6.081 -0.3822  0.2904 -0.1079
 8261TIP3    H146274   6.340   1.844   6.103 -0.7317  0.4200  1.6251
 8261TIP3    H246275   6.200   1.788   6.084 -0.4188  0.2968 -0.5448
 8262TIP3   OH246276   3.204   5.808  15.395 -0.0602  0.0162 -0.0636
 8262TIP3    H146277   3.182   5.826  15.487 -1.7035 -0.4966 -0.3259
 8262TIP3    H246278   3.140   5.741  15.368 -0.0323  0.6436 -1.7738
 8263TIP3   OH246279   3.419   0.944  14.165 -0.0953  0.3349 -0.1572
 8263TIP3    H146280   3.442   0.939  14.073 -1.8686 -0.8322 -0.5822
 8263TIP3    H246281   3.350   1.010  14.170 -1.2111 -0.8005  0.0167
 8264TIP3   OH246282   3.389   2.421   2.743 -0.0926 -0.4024  0.1820
 8264TIP3    H146283   3.454   2.429   2.673 -0.2644 -0.7495 -0.0214
 8264TIP3    H246284   3.305   2.414   2.697 -0.2259 -0.4219  0.4276
 8265TIP3   OH246285   3.201   5.808   4.350  0.3692  0.0093  0.1088
 8265TIP3    H146286   3.169   5.729   4.393  0.3018  1.1394  2.2648
 8265TIP3    H246287   3.219   5.869   4.422  3.1384  0.9984 -1.2703
 8266TIP3   OH246288   5.940   1.034  15.763  0.3153 -0.6748  0.5699
 8266TIP3    H146289   5.875   1.051  15.831 -0.8547  0.1369 -0.6934
 8266TIP3    H246290   5.948   1.117  15.716  1.3144 -1.1325 -0.1105
 8267TIP3   OH246291   2.941   2.548  13.494  0.0230  0.0603 -0.2341
 8267TIP3    H146292   2.890   2.498  13.430 -2.0177  0.3184  1.0819
 8267TIP3    H246293   3.024   2.501  13.501 -0.0122 -0.4381 -2.4267
 8268TIP3   OH246294   5.136   6.561   2.238 -0.1147 -0.1840 -0.0071
 8268TIP3    H146295   5.059   6.504   2.240  0.1612 -0.6632 -1.4987
 8268TIP3    H246296   5.161   6.571   2.330 -1.7754 -0.2499  0.4815
 8269TIP3   OH246297   6.313   1.255  13.262  0.2066  0.2619  0.3997
 8269TIP3    H146298   6.296   1.324  13.325  1.9048  1.0972  0.0030
 8269TIP3    H246299   6.400   1.223  13.284  0.1863 -0.4996 -0.5602
 8270TIP3   OH246300   6.466   3.344   5.966  0.1038 -0.2590 -0.1300
 8270TIP3    H146301   6.448   3.348   5.872 -1.8825  1.3105  0.2373
 8270TIP3    H246302   6.467   3.436   5.994  1.8129 -0.6468  1.2150
 8271TIP3   OH246303   3.514   4.881  15.695  0.1927 -0.6025  0.0118
 8271TIP3    H146304   3.485   4.959  15.649  0.6709 -0.0894  0.5673
 8271TIP3    H246305   3.435   4.828  15.704 -0.1889 -0.0684 -0.1394
 8272TIP3   OH246306   2.501   5.739   1.229 -0.1236 -0.1029 -0.4081
 8272TIP3    H146307   2.586   5.772   1.199  0.2731 -0.5188  0.2338
 8272TIP3    H246308   2.499   5.648   1.199 -0.7059  0.1421 -1.1426
 8273TIP3   OH246309   0.499   2.766  14.860  0.5160 -0.5543  0.0369
 8273TIP3    H146310   0.563   2.694  14.867  0.3128 -0.7784 -0.3713
 8273TIP3    H246311   0.454   2.750  14.777  0.1474 -0.2162  0.1677
 8274TIP3   OH246312   4.003   5.575  15.713 -0.0868  0.5244  0.2950
 8274TIP3    H146313   4.090   5.540  15.696 -0.4854 -0.2473 -0.2197
 8274TIP3    H246314   4.017   5.668  15.732  0.7310  0.6496 -0.8640
 8275TIP3   OH246315   6.424   1.526   2.522 -0.2315 -0.8429  0.3589
 8275TIP3    H146316   6.461   1.447   2.484 -2.2560 -1.2890 -0.8331
 8275TIP3    H246317   6.431   1.592   2.452  1.6760  0.1625  1.4256
 8276TIP3   OH246318   2.674   4.918   0.343 -0.0748 -0.4760 -0.3253
 8276TIP3    H146319   2.655   4.988   0.282 -0.2630 -0.9614 -0.8348
 8276TIP3    H246320   2.622   4.939   0.421 -1.5073 -0.9377 -1.1133
 8277TIP3   OH246321   3.983   4.842   1.227  0.0614  0.1720  0.7449
 8277TIP3    H146322   3.947   4.931   1.233 -1.5005 -0.2537 -1.2680
 8277TIP3    H246323   3.910   4.789   1.197  1.7754 -1.1767 -1.3586
 8278TIP3   OH246324   3.889   5.909   5.930 -0.4204 -0.0096  0.3837
 8278TIP3    H146325   3.878   5.933   5.838  1.9070  0.1691  0.0949
 8278TIP3    H246326   3.910   5.991   5.974  0.2870 -0.3767  0.7374
 8279TIP3   OH246327   5.850   5.081   0.129 -0.0758  0.0029  0.2591
 8279TIP3    H146328   5.813   5.155   0.177 -0.9631 -0.2165 -0.0641
 8279TIP3    H246329   5.944   5.100   0.124 -0.3167  1.2319 -0.0278
 8280TIP3   OH246330   3.960   0.607   6.143 -0.3078  0.3280  0.1549
 8280TIP3    H146331   3.935   0.699   6.148 -0.6085  0.2289  0.5142
 8280TIP3    H246332   4.043   0.602   6.192 -0.1753  0.4489 -0.0572
 8281TIP3   OH246333   0.594   6.506   3.407 -0.3555 -0.8902  0.3508
 8281TIP3    H146334   0.666   6.529   3.465 -0.5068 -0.3075  0.3110
 8281TIP3    H246335   0.635   6.494   3.321 -0.5271  1.1467 -0.0489
 8282TIP3   OH246336   5.264   4.662  12.051 -0.3298  0.0121  0.4564
 8282TIP3    H146337   5.299   4.615  12.127 -1.6690 -1.6180  0.1306
 8282TIP3    H246338   5.194   4.716  12.087  0.7320  1.2687  0.7206
 8283TIP3   OH246339   5.719   3.558   1.258 -0.3294 -0.2322 -0.2500
 8283TIP3    H146340   5.695   3.541   1.167 -0.7326 -0.8145 -0.0393
 8283TIP3    H246341   5.813   3.536   1.263 -0.2704 -0.0506 -0.5566
 8284TIP3   OH246342   0.043   1.870  15.659 -0.4463  0.4122 -0.5444
 8284TIP3    H146343   0.109   1.875  15.728 -0.9493 -2.1161  0.2417
 8284TIP3    H246344   0.092   1.845  15.581 -0.1792  0.9398 -0.5495
 8285TIP3   OH246345   5.049   5.499  13.469 -0.1457  1.0150  0.2927
 8285TIP3    H146346   4.959   5.522  13.447  0.3025  2.0346 -0.5594
 8285TIP3    H246347   5.055   5.510  13.564 -1.9733 -2.9426  1.0661
 8286TIP3   OH246348   6.659   3.728  16.425  0.2108  0.1570  0.4391
 8286TIP3    H146349   6.751   3.739  16.403 -0.2338  3.0082 -0.4844
 8286TIP3    H246350   6.647   3.634  16.434  2.8716 -0.4068 -0.8996
 8287TIP3   OH246351   3.692   2.304  16.137 -0.3989  0.7926  0.2348
 8287TIP3    H146352   3.693   2.215  16.173 -0.9538  1.2707  1.4854
 8287TIP3    H246353   3.740   2.297  16.055 -0.0360 -0.5725  0.5377
 8288TIP3   OH246354   4.620   4.993   3.924  0.0147 -0.2010  0.5266
 8288TIP3    H146355   4.671   4.969   3.846 -0.3288  0.0182  0.2343
 8288TIP3    H246356   4.602   5.086   3.912  0.7286  0.0467  1.3063
 8289TIP3   OH246357   2.378   2.571   4.725  0.0107 -0.1092  0.0032
 8289TIP3    H146358   2.431   2.631   4.673  0.7267 -0.5975  0.1623
 8289TIP3    H246359   2.324   2.525   4.661  0.0535  0.1136 -0.1941
 8290TIP3   OH246360   1.319   0.748  16.687 -0.9203  0.1310  0.1021
 8290TIP3    H146361   1.333   0.661  16.724 -1.6952  0.2846  0.7915
 8290TIP3    H246362   1.347   0.809  16.756 -1.5028  0.4189  0.0980
 8291TIP3   OH246363   5.345   0.021   0.631 -1.0523 -0.0251  0.2502
 8291TIP3    H146364   5.275  -0.004   0.570 -1.3301 -0.2521  0.6538
 8291TIP3    H246365   5.362   0.113   0.612 -1.3741 -0.0034  0.0618
 8292TIP3   OH246366   5.023   3.897   2.837  0.5716  0.1280  0.5242
 8292TIP3    H146367   4.979   3.837   2.898 -0.1304  0.3185  0.2155
 8292TIP3    H246368   5.055   3.840   2.767 -1.9665  0.2992 -0.8742
 8293TIP3   OH246369   5.470   5.698  11.032 -0.9651  0.0572 -0.7208
 8293TIP3    H146370   5.436   5.717  11.120  0.8067  1.1961 -0.2192
 8293TIP3    H246371   5.510   5.611  11.040  0.4707  0.7512  0.0506
 8294TIP3   OH246372   3.231   0.508  15.598  0.5683  0.3980  0.7567
 8294TIP3    H146373   3.143   0.529  15.631 -0.1529  0.8258 -1.2814
 8294TIP3    H246374   3.290   0.560  15.653 -0.5904  1.5285  0.9900
 8295TIP3   OH246375   5.675   1.437   2.249  0.2676 -0.3041  0.4102
 8295TIP3    H146376   5.747   1.474   2.197  0.3799 -2.2971 -0.9351
 8295TIP3    H246377   5.698   1.459   2.339  3.2074 -1.7855  0.1501
 8296TIP3   OH246378   0.062   1.266  11.271  0.3220 -0.3627 -0.1566
 8296TIP3    H146379   0.053   1.327  11.198 -0.3932 -1.4839 -1.0433
 8296TIP3    H246380   0.152   1.275  11.300 -0.0713  1.9749  0.5322
 8297TIP3   OH246381   5.477   1.442   2.468  0.1189  0.0201  0.0440
 8297TIP3    H146382   5.439   1.500   2.535 -0.8961 -0.1991 -0.3177
 8297TIP3    H246383   5.496   1.499   2.394 -0.1842  0.0154 -0.0382
 8298TIP3   OH246384   5.540   4.158  13.786  0.2885 -0.0208 -0.5788
 8298TIP3    H146385   5.581   4.091  13.841  1.2507  1.2384  0.2800
 8298TIP3    H246386   5.471   4.195  13.840  0.7304  0.6955 -0.5024
 8299TIP3   OH246387   6.514   0.536  15.910  0.7901 -0.2170 -0.1959
 8299TIP3    H146388   6.582   0.494  15.858  1.8758 -0.9920  1.7540
 8299TIP3    H246389   6.556   0.611  15.950 -0.6571  1.7584 -2.1653
 8300TIP3   OH246390   4.139   6.745  12.679  0.4818  0.1016  0.2406
 8300TIP3    H146391   4.061   6.692  12.692  0.9822 -0.9376 -0.8056
 8300TIP3    H246392   4.211   6.683  12.679  1.3687  1.0789  1.4772
 8301TIP3   OH246393   6.265   4.535   4.429  0.6455  0.0986 -0.4047
 8301TIP3    H146394   6.287   4.470   4.497  2.0489  1.3095  0.3546
 8301TIP3    H246395   6.276   4.619   4.473  0.4169  0.8896 -1.8241
 8302TIP3   OH246396   4.872   3.714  12.724 -0.6440  0.3299 -0.2278
 8302TIP3    H146397   4.933   3.679  12.789 -0.7523  0.7740  0.1168
 8302TIP3    H246398   4.879   3.654  12.649 -0.0553  0.1741 -0.0493
 8303TIP3   OH246399   1.446   5.403   5.301  0.1189 -0.5718  0.1047
 8303TIP3    H146400   1.381   5.449   5.249  2.2392  1.7147 -0.7368
 8303TIP3    H246401   1.462   5.321   5.253  0.9544  0.8143 -2.1528
 8304TIP3   OH246402   6.703   5.438  15.027  0.1638  0.2434  0.2001
 8304TIP3    H146403   6.632   5.442  15.091 -0.5478  2.1851 -0.6335
 8304TIP3    H246404   6.680   5.365  14.970  0.2465 -0.8193  1.4887
 8305TIP3   OH246405   2.061   1.599  10.864  0.3895  0.1923 -0.4754
 8305TIP3    H146406   2.062   1.694  10.867  1.8845  0.2009 -0.2853
 8305TIP3    H246407   2.141   1.576  10.816  0.5360 -0.9844  0.2855
 8306TIP3   OH246408   1.612   5.320  16.254 -0.0218  0.3671  0.1998
 8306TIP3    H146409   1.625   5.226  16.250 -2.2537 -0.0817  1.5275
 8306TIP3    H246410   1.686   5.353  16.305 -0.0972 -0.9264  1.1854
 8307TIP3   OH246411   0.779   4.241  14.712  0.4679  0.0035 -0.0270
 8307TIP3    H146412   0.748   4.236  14.622 -0.9553 -1.0436  0.4835
 8307TIP3    H246413   0.762   4.153  14.748 -1.2004  1.0336  1.9166
 8308TIP3   OH246414   2.719   5.772  15.341 -0.1841 -0.0321  0.1402
 8308TIP3    H146415   2.687   5.840  15.401 -0.7445 -3.0688  3.7024
 8308TIP3    H246416   2.642   5.747  15.291 -0.9693 -0.5433  1.5374
 8309TIP3   OH246417   1.755   6.692  11.276  0.0022  0.4511 -0.6765
 8309TIP3    H146418   1.760   6.785  11.296  0.5750 -0.4700  5.1529
 8309TIP3    H246419   1.834   6.654  11.316 -0.7388 -2.6935 -1.8666
 8310TIP3   OH246420   1.085   1.381  16.469  0.3683 -0.3988 -0.0067
 8310TIP3    H146421   1.130   1.465  16.461  4.1877 -1.9923  2.2527
 8310TIP3    H246422   1.116   1.330  16.394 -0.7245 -0.3738 -0.5035
 8311TIP3   OH246423   1.387   3.514  16.152  1.0419 -0.0732 -0.0701
 8311TIP3    H146424   1.473   3.479  16.177  1.6410  1.5938  0.3092
 8311TIP3    H246425   1.334   3.507  16.232  1.0263 -0.4374 -0.1075
 8312TIP3   OH246426   0.868   5.579  15.648  0.2932  0.1394  0.7596
 8312TIP3    H146427   0.785   5.560  15.691  0.3167 -0.7674  0.4367
 8312TIP3    H246428   0.883   5.503  15.591  0.1289  1.4368 -1.0672
 8313TIP3   OH246429   6.583   1.641   5.125  0.2068 -0.2396  0.1132
 8313TIP3    H146430   6.613   1.606   5.209  0.3708 -1.4320 -0.4227
 8313TIP3    H246431   6.604   1.735   5.129 -1.4582  0.1361  2.1309
 8314TIP3   OH246432   6.519   6.836  16.178  0.4593  0.3122 -0.2523
 8314TIP3    H146433   6.565   6.772  16.125  0.4744  0.0269  0.0981
 8314TIP3    H246434   6.566   6.918  16.163 -0.3024  0.5136 -1.6486
 8315TIP3   OH246435   1.490   3.058  11.717  0.2540 -0.0399  0.1170
 8315TIP3    H146436   1.495   2.987  11.782  1.2538 -0.2573 -0.1806
 8315TIP3    H246437   1.433   3.023  11.648 -0.0029 -0.1899  0.4008
 8316TIP3   OH246438   5.129   2.393  15.405  0.4524 -0.3891  0.1164
 8316TIP3    H146439   5.084   2.362  15.484 -0.7774 -1.0749 -0.8086
 8316TIP3    H246440   5.060   2.398  15.339  1.6395 -0.9735 -1.2270
 8317TIP3   OH246441   0.169   4.696   3.420 -0.5393 -0.0322  0.1369
 8317TIP3    H146442   0.248   4.742   3.394  0.9926 -3.4038 -1.9220
 8317TIP3    H246443   0.173   4.692   3.516  1.8177 -0.1232  0.0767
 8318TIP3   OH246444   1.144   5.026   2.148 -0.2209 -0.0897  0.3290
 8318TIP3    H146445   1.095   4.945   2.163 -1.1273  0.3377 -0.2360
 8318TIP3    H246446   1.235   4.999   2.149 -0.5402 -1.3311 -1.0864
 8319TIP3   OH246447   6.401   1.584   3.287  0.1509  0.0396 -0.0140
 8319TIP3    H146448   6.490   1.559   3.260 -0.3569 -2.2164  0.2305
 8319TIP3    H246449   6.362   1.621   3.208  0.6229 -0.9773 -0.7474
 8320TIP3   OH246450   4.133   2.917   5.478  0.2961  0.3387 -0.2617
 8320TIP3    H146451   4.164   2.951   5.562  2.1507 -1.1712 -0.2606
 8320TIP3    H246452   4.149   2.988   5.416 -1.3391  1.5651  0.6663
 8321TIP3   OH246453   5.920   5.991  14.308  0.2836  0.1752  0.0495
 8321TIP3    H146454   5.848   5.940  14.271 -0.9759  1.1325  1.0882
 8321TIP3    H246455   5.897   6.001  14.400  0.7001  2.2387 -0.0227
 8322TIP3   OH246456   5.395   5.553  15.339 -0.3175 -1.0245 -0.5593
 8322TIP3    H146457   5.375   5.519  15.427  0.0260 -1.3962 -0.6223
 8322TIP3    H246458   5.336   5.504  15.281  0.9463 -2.3593 -0.7837
 8323TIP3   OH246459   4.697   6.135   0.238  0.3928 -0.3196  0.2854
 8323TIP3    H146460   4.721   6.048   0.206  1.1514 -0.2373  0.6021
 8323TIP3    H246461   4.756   6.195   0.191  0.3078 -0.0370  0.5364
 8324TIP3   OH246462   3.704   5.956   4.765  0.1740  0.0813  0.3506
 8324TIP3    H146463   3.769   5.888   4.744 -0.3789 -0.2923 -0.2172
 8324TIP3    H246464   3.743   6.037   4.733  0.8110  0.0205  0.9612
 8325TIP3   OH246465   2.344   4.973   4.788 -0.1705  0.1045  0.3541
 8325TIP3    H146466   2.406   4.991   4.858 -0.0839  1.9651 -0.1664
 8325TIP3    H246467   2.368   4.886   4.756  2.7938  1.1074 -0.4365
 8326TIP3   OH246468   1.764   5.631  16.159 -0.5141  0.3553  0.1768
 8326TIP3    H146469   1.739   5.601  16.247 -0.8865  1.5638  0.4968
 8326TIP3    H246470   1.707   5.582  16.100 -1.1222  0.4350  0.6849
 8327TIP3   OH246471   4.718   0.873   6.717  1.0605 -0.1946 -0.2826
 8327TIP3    H146472   4.642   0.895   6.770  0.2063 -2.2384 -0.5413
 8327TIP3    H246473   4.741   0.954   6.672 -1.4270  0.3501 -0.7251
 8328TIP3   OH246474   3.013   6.089   0.481  0.9427 -0.1337  0.5120
 8328TIP3    H146475   3.059   6.007   0.497  0.5268 -1.4640 -3.9929
 8328TIP3    H246476   3.077   6.143   0.434 -0.2050  0.3315 -0.5489
 8329TIP3   OH246477   2.450   6.034   1.920 -0.3071  0.2811  0.5933
 8329TIP3    H146478   2.517   6.002   1.860 -0.3734 -0.8824  1.0977
 8329TIP3    H246479   2.461   6.129   1.922 -0.3083  0.3548 -1.2565
 8330TIP3   OH246480   0.487   5.872  15.713 -0.0098  0.2634 -0.0251
 8330TIP3    H146481   0.401   5.833  15.704  0.2138 -0.8508  1.9921
 8330TIP3    H246482   0.487   5.910  15.801  1.2516  1.0191 -0.3191
 8331TIP3   OH246483   1.386   4.368  11.539  0.7084 -0.0662 -0.3132
 8331TIP3    H146484   1.454   4.425  11.575  0.6028 -1.2179  1.9235
 8331TIP3    H246485   1.405   4.363  11.446  3.5541 -0.1753  0.1955
 8332TIP3   OH246486   2.941   3.463   2.402  0.1830 -0.5049  0.2890
 8332TIP3    H146487   2.998   3.432   2.472 -0.8117 -0.7001  1.0350
 8332TIP3    H246488   2.997   3.521   2.350  1.8875 -2.9128 -0.7372
 8333TIP3   OH246489   4.880   6.743   3.503 -0.3453  0.1232 -0.1499
 8333TIP3    H146490   4.799   6.734   3.452  0.3058 -0.6099 -1.0911
 8333TIP3    H246491   4.855   6.718   3.592 -0.8008 -1.7499 -0.7537
 8334TIP3   OH246492   3.141   1.912  12.667 -0.6255  0.2405  0.9481
 8334TIP3    H146493   3.213   1.859  12.632  0.7173  2.1405  0.6519
 8334TIP3    H246494   3.120   1.873  12.751  0.7679 -0.3620  1.0359
 8335TIP3   OH246495   6.122   6.790  13.809 -0.0448  0.2774 -0.3190
 8335TIP3    H146496   6.137   6.885  13.806 -0.6173  0.4277  0.9529
 8335TIP3    H246497   6.191   6.753  13.754  2.4221  1.2023  1.9382
 8336TIP3   OH246498   6.614   0.633  11.660 -0.2459 -0.2061 -0.2714
 8336TIP3    H146499   6.627   0.707  11.601 -0.3389 -0.6154 -0.8099
 8336TIP3    H246500   6.565   0.568  11.608 -0.8064 -0.3560  0.4156
 8337TIP3   OH246501   2.510   4.605   3.054  0.1121 -0.0625  0.3394
 8337TIP3    H146502   2.509   4.690   3.010 -2.2592 -0.4958 -0.6318
 8337TIP3    H246503   2.466   4.621   3.138 -0.5003 -0.3453  0.0770
 8338TIP3   OH246504   4.726   4.753  14.787  0.2121 -0.0765 -0.1669
 8338TIP3    H146505   4.687   4.825  14.737 -0.4978 -0.0153  0.4509
 8338TIP3    H246506   4.789   4.795  14.845  0.8367 -0.1178 -0.7970
 8339TIP3   OH246507   0.467   6.741   2.911  0.1187  0.1573 -0.2947
 8339TIP3    H146508   0.437   6.762   2.822  1.1045  0.2830 -0.6113
 8339TIP3    H246509   0.391   6.758   2.966 -0.5232  0.0363 -1.1190
 8340TIP3   OH246510   1.497   5.611   1.507 -0.4666 -0.3300 -0.2246
 8340TIP3    H146511   1.547   5.683   1.545  1.2710 -1.7736  0.3480
 8340TIP3    H246512   1.449   5.573   1.580 -0.1036 -0.7612 -0.2093
 8341TIP3   OH246513   4.850   3.351  13.958 -0.1943  0.5083 -0.2719
 8341TIP3    H146514   4.831   3.389  13.872  0.2488 -2.1725 -1.6494
 8341TIP3    H246515   4.764   3.326  13.993 -0.3587  1.4537  0.0477
 8342TIP3   OH246516   2.749   5.234   5.750  0.5640 -0.8948  0.1585
 8342TIP3    H146517   2.803   5.308   5.775 -0.4558  0.8365 -2.3294
 8342TIP3    H246518   2.791   5.198   5.672 -0.5380 -1.0167 -0.4110
 8343TIP3   OH246519   1.510   6.609   3.047  0.2569 -0.2852  0.4185
 8343TIP3    H146520   1.580   6.665   3.012  0.5857  0.1579  1.7166
 8343TIP3    H246521   1.430   6.659   3.034  0.3191 -0.3211 -0.1017
 8344TIP3   OH246522   5.268   6.414  11.414 -0.0461 -0.0294  0.2289
 8344TIP3    H146523   5.256   6.420  11.319  2.1384  0.0091 -0.1011
 8344TIP3    H246524   5.232   6.328  11.438  2.7838 -1.7843 -1.3137
 8345TIP3   OH246525   6.845   3.339   4.627  0.1336  0.2872  0.3634
 8345TIP3    H146526   6.938   3.327   4.610 -0.2786 -1.6230 -0.7548
 8345TIP3    H246527   6.832   3.305   4.715  0.2684 -0.7256 -0.0000
 8346TIP3   OH246528   5.467   0.661  13.639 -0.2540 -1.2973 -0.9304
 8346TIP3    H146529   5.405   0.731  13.658  0.3261 -0.7574 -0.9892
 8346TIP3    H246530   5.458   0.600  13.713  0.2381 -0.4449 -0.1490
 8347TIP3   OH246531   5.957   2.516   4.152  0.6059  0.8915  0.1478
 8347TIP3    H146532   5.948   2.548   4.242  1.4583  0.5280  0.3675
 8347TIP3    H246533   5.924   2.587   4.098  0.9273  1.4707  0.7075
 8348TIP3   OH246534   4.009   2.361   0.619 -0.4102  0.9188 -0.2156
 8348TIP3    H146535   3.999   2.269   0.596 -1.2838  0.2999  2.3854
 8348TIP3    H246536   4.092   2.386   0.578 -0.5655 -0.7399 -1.6945
 8349TIP3   OH246537   2.774   2.257  13.920  0.3839 -0.9834 -0.2246
 8349TIP3    H146538   2.815   2.186  13.870  1.8390  0.3995 -1.0560
 8349TIP3    H246539   2.778   2.333  13.862  1.8967  0.6354  1.8804
 8350TIP3   OH246540   3.068   0.853  13.296  0.0006 -0.1108  0.0473
 8350TIP3    H146541   3.140   0.901  13.255 -0.1907  0.6450  0.5871
 8350TIP3    H246542   3.018   0.919  13.343  0.0939 -0.9188  1.3363
 8351TIP3   OH246543   1.582   4.552  13.524  0.3181  0.2037 -0.1654
 8351TIP3    H146544   1.569   4.576  13.616  0.6024 -1.8804  0.4675
 8351TIP3    H246545   1.544   4.625  13.475  0.2517  1.4119  1.5879
 8352TIP3   OH246546   2.380   0.152  14.309  0.1644 -0.0380  0.1121
 8352TIP3    H146547   2.398   0.215  14.239 -0.7395 -0.8025 -0.8455
 8352TIP3    H246548   2.394   0.067  14.268 -1.9047 -0.5498  0.3614
 8353TIP3   OH246549   1.735   1.396  10.503 -0.0291 -0.1844 -0.6392
 8353TIP3    H146550   1.812   1.429  10.458  0.9351  1.2947  1.8938
 8353TIP3    H246551   1.758   1.308  10.530  0.6883  0.1425 -0.1602
 8354TIP3   OH246552   1.045   2.324   4.884  0.3474 -0.5847 -0.3324
 8354TIP3    H146553   1.111   2.257   4.899  0.6110 -0.2581 -0.0124
 8354TIP3    H246554   1.067   2.360   4.798  1.6762  0.7283  0.5089
 8355TIP3   OH246555   0.377   6.784  11.802 -0.0934  0.0436  0.0328
 8355TIP3    H146556   0.447   6.818  11.746 -0.6962  3.1268  0.9586
 8355TIP3    H246557   0.385   6.834  11.883 -1.1351 -2.1472  1.5784
 8356TIP3   OH246558   3.889   4.916  15.033  0.2485 -0.6259 -0.8653
 8356TIP3    H146559   3.949   4.926  14.959  0.6678 -0.2514 -0.4766
 8356TIP3    H246560   3.870   5.005  15.061  1.0442 -0.7855  0.2379
 8357TIP3   OH246561   6.415   2.245  14.028 -0.1628 -0.1066  0.7475
 8357TIP3    H146562   6.435   2.196  13.948 -0.5494  0.2935  0.4052
 8357TIP3    H246563   6.394   2.178  14.092 -0.6998 -0.3937  0.2775
 8358TIP3   OH246564   5.283   1.529   5.110  0.3705  0.0929  0.0458
 8358TIP3    H146565   5.200   1.488   5.086  1.1445 -0.6889 -1.5064
 8358TIP3    H246566   5.268   1.623   5.098 -0.2107 -0.0630 -0.5426
 8359TIP3   OH246567   2.818   3.888   1.080 -0.2355 -0.7079  0.6209
 8359TIP3    H146568   2.834   3.797   1.058 -1.2993 -1.3382  2.3079
 8359TIP3    H246569   2.850   3.897   1.170  1.2932  1.0048 -0.0275
 8360TIP3   OH246570   1.233   4.368   3.171  0.3078 -0.0108 -0.4173
 8360TIP3    H146571   1.301   4.304   3.150 -0.0923 -0.0543 -1.6569
 8360TIP3    H246572   1.263   4.449   3.131 -0.1860  0.0613 -0.6451
 8361TIP3   OH246573   0.345   1.593  11.239 -0.2677  0.3729  0.3400
 8361TIP3    H146574   0.336   1.555  11.151  1.0691  0.0338  0.3178
 8361TIP3    H246575   0.409   1.537  11.282 -0.1053  1.1774  1.1631
 8362TIP3   OH246576   1.570   4.037  12.499  0.3897 -0.1054  0.0877
 8362TIP3    H146577   1.552   3.974  12.429  1.0914 -1.4885  1.1020
 8362TIP3    H246578   1.540   3.993  12.579 -0.1215  1.3140  0.6982
 8363TIP3   OH246579   3.196   4.869  11.188  0.2183 -0.2707 -0.3699
 8363TIP3    H146580   3.133   4.932  11.224 -1.2635 -1.5939 -0.5665
 8363TIP3    H246581   3.223   4.816  11.264  2.2931  1.1894  0.0152
 8364TIP3   OH246582   2.093   6.323  16.947  0.1744 -0.9250 -0.5497
 8364TIP3    H146583   2.079   6.353  16.857 -1.0016  4.1218  0.9992
 8364TIP3    H246584   2.005   6.318  16.984  0.6480 -2.7869  0.4212
 8365TIP3   OH246585   1.467   4.699  12.672  0.0365  0.0092  0.5525
 8365TIP3    H146586   1.485   4.720  12.763  1.7527  0.3080  0.1737
 8365TIP3    H246587   1.540   4.644  12.644  2.0478  3.5228 -1.8669
 8366TIP3   OH246588   5.242   4.982  13.639 -0.2884 -0.1328 -0.0231
 8366TIP3    H146589   5.289   4.955  13.559  0.6237 -0.9342  0.7608
 8366TIP3    H246590   5.303   5.039  13.685 -0.3168 -0.6782  0.7060
 8367TIP3   OH246591   5.476   6.796   3.982 -0.0069 -0.2118 -0.1411
 8367TIP3    H146592   5.420   6.866   3.948 -1.2887  0.4797  3.0278
 8367TIP3    H246593   5.563   6.816   3.947 -1.0848  0.4596 -2.7057
 8368TIP3   OH246594   6.690   1.580   3.132  0.6241 -0.0554  0.5177
 8368TIP3    H146595   6.731   1.500   3.097 -0.1285 -0.7128  1.0813
 8368TIP3    H246596   6.680   1.637   3.056  1.3832 -0.4069  0.1470
 8369TIP3   OH246597   3.126   4.191   4.532  0.1307  0.4723 -0.5468
 8369TIP3    H146598   3.032   4.193   4.546 -0.0790  2.7026 -1.8231
 8369TIP3    H246599   3.163   4.237   4.608  0.2616 -0.7493  0.1554
 8370TIP3   OH246600   2.721   6.384   3.664  0.3417  0.6021  0.0202
 8370TIP3    H146601   2.723   6.368   3.758 -1.5606  0.2159  0.0362
 8370TIP3    H246602   2.811   6.373   3.635  0.6406 -1.2089  1.4937
 8371TIP3   OH246603   0.050   5.943   0.864  0.1925  0.3460  0.2766
 8371TIP3    H146604   0.141   5.918   0.848 -0.0938 -1.3083  1.0113
 8371TIP3    H246605   0.013   5.870   0.913 -1.4307  1.1722  0.3668
 8372TIP3   OH246606   5.426   0.268   6.159  0.2032  0.6285 -0.0355
 8372TIP3    H146607   5.342   0.271   6.204  1.4259 -1.7872  2.7757
 8372TIP3    H246608   5.471   0.348   6.185 -0.5270  1.0686 -0.0992
 8373TIP3   OH246609   1.829   6.740   4.546 -0.3354 -0.4180  0.0978
 8373TIP3    H146610   1.734   6.732   4.554 -0.7769  1.3953 -2.2886
 8373TIP3    H246611   1.860   6.746   4.637 -2.4468 -1.2637  0.9342
 8374TIP3   OH246612   6.576   2.512  12.115 -0.2237  0.2318 -0.0105
 8374TIP3    H146613   6.513   2.534  12.047 -0.9761 -0.2357  0.5160
 8374TIP3    H246614   6.569   2.417  12.125 -0.5770  0.3554  1.1302
 8375TIP3   OH246615   4.269   2.006  13.719  0.0396 -0.5575 -0.3975
 8375TIP3    H146616   4.246   1.918  13.690  1.9555 -1.7360  1.3743
 8375TIP3    H246617   4.259   2.004  13.814 -0.3635  1.3140 -0.3564
 8376TIP3   OH246618   1.839   2.045   2.437 -0.0737 -0.5174  0.6198
 8376TIP3    H146619   1.749   2.028   2.463 -0.1416 -0.4913  0.4002
 8376TIP3    H246620   1.844   2.018   2.346  0.6322 -2.2593  1.1396
 8377TIP3   OH246621   4.225   0.102   2.247  0.2330  0.4303  0.7223
 8377TIP3    H146622   4.134   0.084   2.269  0.4617 -1.1526  0.5474
 8377TIP3    H246623   4.236   0.066   2.159  1.3381 -0.5966  1.2450
 8378TIP3   OH246624   3.907   5.627  13.722 -0.4777 -0.5421 -0.3021
 8378TIP3    H146625   3.865   5.549  13.758  2.1382 -1.5066  0.9080
 8378TIP3    H246626   3.989   5.596  13.685  0.5004  1.5834 -0.0957
 8379TIP3   OH246627   6.439   2.811  16.355 -0.5120  0.3034  0.7411
 8379TIP3    H146628   6.500   2.742  16.330  0.9128  1.7695  0.0300
 8379TIP3    H246629   6.352   2.774  16.336  0.2206 -1.1368  0.0295
 8380TIP3   OH246630   6.839   1.456  14.936  0.1956  0.0206  0.1170
 8380TIP3    H146631   6.885   1.531  14.899 -0.5577  0.2868 -0.3183
 8380TIP3    H246632   6.752   1.460  14.896 -0.7458  0.4477  2.1051
 8381TIP3   OH246633   5.469   2.082   0.772 -0.2325 -0.1190  0.0386
 8381TIP3    H146634   5.529   2.157   0.778 -0.3138 -0.0169 -0.3705
 8381TIP3    H246635   5.430   2.090   0.685 -1.1004  0.0135  0.4354
 8382TIP3   OH246636   4.987   6.578  11.055 -0.1136 -0.0172  0.0959
 8382TIP3    H146637   5.069   6.583  11.104 -0.0217 -1.2634  0.0959
 8382TIP3    H246638   4.921   6.615  11.115  0.3263  0.2945  0.3902
 8383TIP3   OH246639   0.507   4.553   3.378  0.2836 -0.4364  0.4606
 8383TIP3    H146640   0.479   4.502   3.454  3.0860  1.2799  2.8483
 8383TIP3    H246641   0.564   4.494   3.328 -0.5781 -1.1824  0.3462
 8384TIP3   OH246642   6.790   4.437  13.201 -0.4464  0.6092  0.7417
 8384TIP3    H146643   6.699   4.468  13.207 -0.5491  0.5998 -0.4961
 8384TIP3    H246644   6.841   4.517  13.188 -0.4936  0.4766 -0.3973
 8385TIP3   OH246645   4.637   6.334  10.616 -0.1189  0.3915 -0.3649
 8385TIP3    H146646   4.657   6.414  10.567 -1.1082  1.3755  0.7716
 8385TIP3    H246647   4.612   6.270  10.549  0.1929  1.1845 -1.2573
 8386TIP3   OH246648   4.661   1.960   2.613  0.6061  0.0153 -0.0126
 8386TIP3    H146649   4.565   1.963   2.608  0.4944  4.3116  0.9935
 8386TIP3    H246650   4.688   1.925   2.528 -1.7565 -2.2782  0.0450
 8387TIP3   OH246651   4.316   4.708   1.381 -0.5492 -0.0564 -0.0135
 8387TIP3    H146652   4.252   4.715   1.452 -1.3865 -1.1268 -0.6343
 8387TIP3    H246653   4.381   4.646   1.414 -0.5750 -0.0453  0.0597
 8388TIP3   OH246654   4.277   1.018   2.853 -0.4746  0.4843 -0.0198
 8388TIP3    H146655   4.323   0.987   2.931 -1.2050 -0.5765  0.0177
 8388TIP3    H246656   4.221   0.945   2.828  1.8007 -0.3433 -3.2408
 8389TIP3   OH246657   1.767   5.594   2.865 -0.5956 -0.5228 -0.7091
 8389TIP3    H146658   1.793   5.532   2.796  0.0602 -0.4852 -0.5087
 8389TIP3    H246659   1.761   5.540   2.944 -1.6086 -0.6134 -0.8426
 8390TIP3   OH246660   4.329   2.815   3.966 -0.0551  0.1310  0.1430
 8390TIP3    H146661   4.283   2.887   3.923  0.6027  0.2996 -0.2944
 8390TIP3    H246662   4.291   2.736   3.929 -0.2894  0.2574  0.1075
 8391TIP3   OH246663   2.898   2.807  13.472  0.3791  0.0154 -0.0064
 8391TIP3    H146664   2.936   2.720  13.477 -0.1896 -0.1683  1.6600
 8391TIP3    H246665   2.884   2.821  13.378  0.6161 -1.6222 -0.3238
 8392TIP3   OH246666   0.366   3.865   1.678 -0.4943 -0.2186 -0.4318
 8392TIP3    H146667   0.320   3.914   1.610  0.0398  1.1879  0.1930
 8392TIP3    H246668   0.450   3.841   1.636 -0.6613 -0.4173 -0.6590
 8393TIP3   OH246669   4.213   0.990  15.030  0.2581  0.3569  0.4207
 8393TIP3    H146670   4.192   0.963  14.941  0.0230  0.4180  0.4573
 8393TIP3    H246671   4.234   1.083  15.023  1.2080  0.1393  0.2714
 8394TIP3   OH246672   1.051   2.920  13.559 -0.5223 -0.7583  0.4282
 8394TIP3    H146673   1.019   2.833  13.581 -2.6438  0.4493  2.6969
 8394TIP3    H246674   1.146   2.913  13.564 -0.6210 -2.9665  0.3243
 8395TIP3   OH246675   3.470   1.932   5.203 -0.1812  0.0926 -0.8848
 8395TIP3    H146676   3.502   1.957   5.116  0.4918  0.2894 -0.5791
 8395TIP3    H246677   3.375   1.920   5.190  0.2647 -2.9002 -2.3836
 8396TIP3   OH246678   0.740   0.689   4.062 -0.1769 -0.3346 -0.1963
 8396TIP3    H146679   0.690   0.722   3.987 -1.5503 -1.9702 -0.0575
 8396TIP3    H246680   0.791   0.616   4.027  0.9682  0.3492  0.0009
 8397TIP3   OH246681   0.999   4.983  12.319 -0.2722  0.1336  0.3288
 8397TIP3    H146682   0.987   4.959  12.411 -0.1549 -1.1385  0.0314
 8397TIP3    H246683   0.956   5.069  12.311  0.5745  0.7261  1.7789
 8398TIP3   OH246684   5.918   2.000   0.743 -0.3736 -0.6164  0.1193
 8398TIP3    H146685   5.838   1.970   0.786  0.6221 -2.9713  0.4928
 8398TIP3    H246686   5.976   2.027   0.815  0.2727 -1.9164  0.1220
 8399TIP3   OH246687   2.385   6.116  17.127  0.2107  0.4959 -0.8133
 8399TIP3    H146688   2.328   6.041  17.111 -0.9487  1.1038  0.2717
 8399TIP3    H246689   2.463   6.078  17.168 -0.5314 -0.0809  0.0963
 8400TIP3   OH246690   3.809   1.582   0.434  0.0343 -0.1729 -0.1658
 8400TIP3    H146691   3.889   1.604   0.482  0.1500  1.4406 -1.0386
 8400TIP3    H246692   3.834   1.507   0.380  1.4530  1.2150 -1.5475
 8401TIP3   OH246693   2.625   4.170  14.378  0.4144 -0.0713 -0.0518
 8401TIP3    H146694   2.680   4.159  14.457 -0.7001 -0.7281  0.6601
 8401TIP3    H246695   2.647   4.094  14.323 -0.3024 -0.7545  0.5750
 8402TIP3   OH246696   1.040   1.585  15.448  0.4165 -0.1902 -0.0734
 8402TIP3    H146697   1.091   1.612  15.525  1.0015  0.9404 -0.8334
 8402TIP3    H246698   1.036   1.489  15.454  2.9436 -0.3649 -0.1628
 8403TIP3   OH246699   2.101   6.117  16.595 -0.7366  0.1695  0.0923
 8403TIP3    H146700   2.096   6.206  16.627  1.9321  0.0512  1.0172
 8403TIP3    H246701   2.083   6.124  16.501 -0.1047  1.7309  0.0676
 8404TIP3   OH246702   2.250   1.290   3.062  0.9394 -0.5831 -0.4664
 8404TIP3    H146703   2.245   1.347   3.139  1.6734  0.4888 -1.1933
 8404TIP3    H246704   2.171   1.237   3.066  0.2074  0.5334  0.1973
 8405TIP3   OH246705   2.541   0.801   2.765 -0.6378  0.0329  0.2759
 8405TIP3    H146706   2.594   0.847   2.829 -3.4748  1.1933  1.9759
 8405TIP3    H246707   2.510   0.723   2.810  0.9825 -1.6182 -1.3027
 8406TIP3   OH246708   2.304   3.400  14.290  0.8957 -0.2270 -0.1755
 8406TIP3    H146709   2.258   3.378  14.209  0.9446 -2.1234  0.2834
 8406TIP3    H246710   2.236   3.404  14.356  0.9971  0.2429 -0.0952
 8407TIP3   OH246711   4.573   5.848   3.558 -0.1029 -0.4389  0.2409
 8407TIP3    H146712   4.619   5.922   3.518  1.2299 -1.3459  0.0088
 8407TIP3    H246713   4.638   5.808   3.615 -0.9844 -1.0971  0.8048
 8408TIP3   OH246714   3.895   5.095   1.274 -0.6126 -0.2470 -0.4414
 8408TIP3    H146715   3.966   5.150   1.239 -0.3886  1.0136  1.7677
 8408TIP3    H246716   3.817   5.150   1.269 -0.7697 -0.4132  0.0581
 8409TIP3   OH246717   5.486   2.374  11.530  0.1048 -0.0722  0.0701
 8409TIP3    H146718   5.425   2.339  11.596  0.1478  0.2260  0.2703
 8409TIP3    H246719   5.432   2.385  11.452  0.3852 -1.8589 -0.4094
 8410TIP3   OH246720   4.521   1.140  11.637  0.0945  0.9873  0.4476
 8410TIP3    H146721   4.516   1.141  11.541 -3.0138  0.3357  0.4916
 8410TIP3    H246722   4.597   1.086  11.656  0.8514  1.1997 -1.6346
 8411TIP3   OH246723   4.985   0.082   3.357 -0.2309  0.1128  0.0852
 8411TIP3    H146724   4.937   0.055   3.279 -0.1720  0.5597 -0.1061
 8411TIP3    H246725   4.959   0.019   3.424 -1.5178  0.6595  0.1381
 8412TIP3   OH246726   3.415   3.551   4.415 -0.2505 -0.3789  0.1186
 8412TIP3    H146727   3.326   3.575   4.391 -0.4105 -1.9553 -1.0256
 8412TIP3    H246728   3.470   3.596   4.352 -0.3636 -0.8075 -0.2893
 8413TIP3   OH246729   0.131   2.552   3.455  0.6555  0.4821  0.4846
 8413TIP3    H146730   0.105   2.643   3.464  0.3876  0.3836  0.7249
 8413TIP3    H246731   0.049   2.504   3.445  0.8468  0.3958 -0.8437
 8414TIP3   OH246732   4.862   4.136   5.994  0.2902  0.2915 -0.1728
 8414TIP3    H146733   4.939   4.159   5.943 -0.2915  0.2854 -1.0624
 8414TIP3    H246734   4.856   4.041   5.986 -0.8529  0.4533 -1.6578
 8415TIP3   OH246735   2.998   1.834  13.825 -0.0227 -0.1028 -0.1271
 8415TIP3    H146736   3.081   1.787  13.832  0.0648 -0.1708 -1.3835
 8415TIP3    H246737   2.939   1.773  13.781 -1.0811 -0.4505  1.6746
 8416TIP3   OH246738   3.952   4.034  12.634  0.0786  0.4547  0.4378
 8416TIP3    H146739   3.891   4.108  12.642 -1.1456 -0.6154  1.5129
 8416TIP3    H246740   3.896   3.956  12.637  1.1388 -0.5472 -2.4634
 8417TIP3   OH246741   4.193   4.523   3.819  0.4522 -0.0112 -0.0297
 8417TIP3    H146742   4.238   4.525   3.734  1.8894 -0.1859  0.7044
 8417TIP3    H246743   4.200   4.612   3.853  0.7704 -0.1799  0.3544
 8418TIP3   OH246744   1.738   2.438   1.885 -0.2473 -0.3411 -0.1744
 8418TIP3    H146745   1.714   2.530   1.879 -0.0760 -0.2607  0.3591
 8418TIP3    H246746   1.686   2.395   1.817  0.0462  0.2198 -0.7615
 8419TIP3   OH246747   3.496   6.390   3.892  0.3813 -0.3801 -0.6353
 8419TIP3    H146748   3.537   6.474   3.875  1.9455 -0.9358  0.1598
 8419TIP3    H246749   3.565   6.337   3.931 -0.7091 -1.8664 -0.6144
 8420TIP3   OH246750   1.653   3.409  11.174  0.3966  0.0340  0.2075
 8420TIP3    H146751   1.651   3.341  11.106  1.0465 -0.2078  0.4268
 8420TIP3    H246752   1.607   3.483  11.134 -2.4508 -1.2746  0.8117
 8421TIP3   OH246753   3.184   3.911   3.105  0.2352 -0.6288 -0.0374
 8421TIP3    H146754   3.148   3.823   3.121  0.4903 -0.8161 -0.4573
 8421TIP3    H246755   3.108   3.968   3.100 -0.1404 -1.2462 -2.3754
 8422TIP3   OH246756   4.629   0.849  13.686 -0.4828  0.3955  0.2168
 8422TIP3    H146757   4.591   0.900  13.758 -3.1440 -1.1186  0.0354
 8422TIP3    H246758   4.554   0.805  13.647  1.1316 -0.2070 -2.4076
 8423TIP3   OH246759   1.529   2.087   2.457  0.5565  0.0441  0.4159
 8423TIP3    H146760   1.544   2.099   2.551  1.6139  0.8593  0.1608
 8423TIP3    H246761   1.434   2.077   2.449  0.4899 -0.4261  1.6098
 8424TIP3   OH246762   4.664   3.011   2.892  1.2819  0.3054  0.0155
 8424TIP3    H146763   4.759   3.019   2.897  1.1650  1.2283  2.4282
 8424TIP3    H246764   4.635   3.097   2.862  1.1326  1.2802  2.6598
 8425TIP3   OH246765   2.544   0.292  14.122 -0.1894 -0.0571  0.0892
 8425TIP3    H146766   2.617   0.326  14.173  0.6569 -0.1635 -1.0276
 8425TIP3    H246767   2.582   0.223  14.068 -1.1023 -0.0582 -0.5731
 8426TIP3   OH246768   3.915   3.484   3.523  0.1371 -0.1966  0.0636
 8426TIP3    H146769   3.835   3.451   3.483 -0.1952  0.7624 -0.0927
 8426TIP3    H246770   3.978   3.487   3.451 -0.2321  0.7837 -0.2365
 8427TIP3   OH246771   0.934   3.855  10.644  0.5809  0.2075 -0.2481
 8427TIP3    H146772   0.902   3.931  10.596 -2.7426  0.2199  1.6336
 8427TIP3    H246773   0.887   3.781  10.607  1.3345 -0.4451  0.0608
 8428TIP3   OH246774   3.504   1.065   2.237  0.0648  0.2612 -0.0754
 8428TIP3    H146775   3.484   1.132   2.303 -0.2783  2.6092 -2.3931
 8428TIP3    H246776   3.555   1.112   2.171 -0.8445 -1.6076 -2.1921
 8429TIP3   OH246777   3.248   2.240   4.062  0.3535  0.2919  0.4336
 8429TIP3    H146778   3.331   2.283   4.081  0.5560  0.5174 -0.8398
 8429TIP3    H246779   3.187   2.313   4.047  0.0016  0.1271  1.0452
 8430TIP3   OH246780   5.759   4.063   5.671  0.1761  0.3381  0.5570
 8430TIP3    H146781   5.706   4.137   5.701  0.9666  0.5619  1.4499
 8430TIP3    H246782   5.695   3.993   5.654 -0.4963  0.9379  0.5885
 8431TIP3   OH246783   1.416   0.058   0.553 -0.4026  0.7681  0.6047
 8431TIP3    H146784   1.380   0.003   0.484 -0.3432  0.8269  0.5281
 8431TIP3    H246785   1.476   0.000   0.601 -0.8392  0.5749  0.9323
 8432TIP3   OH246786   3.495   2.757   5.175 -0.0480 -0.0001 -0.6072
 8432TIP3    H146787   3.539   2.835   5.141  1.8195 -0.3227  0.9279
 8432TIP3    H246788   3.566   2.695   5.192 -1.3570 -1.4847 -0.3519
 8433TIP3   OH246789   1.772   5.780   5.489 -0.4858  0.0095 -0.9289
 8433TIP3    H146790   1.702   5.717   5.475 -1.0479  0.2924  0.4294
 8433TIP3    H246791   1.773   5.795   5.584  0.6067  0.9270 -1.0537
 8434TIP3   OH246792   4.649   4.528   0.946  0.0222  0.6164  0.0720
 8434TIP3    H146793   4.560   4.519   0.979  0.4946 -2.2417  0.8114
 8434TIP3    H246794   4.660   4.455   0.885  1.7932  1.0798 -0.2211
 8435TIP3   OH246795   3.383   3.063   4.709 -0.5566  0.2033  0.9749
 8435TIP3    H146796   3.430   3.083   4.628 -1.2674  2.2027  1.0048
 8435TIP3    H246797   3.452   3.042   4.772  0.0553 -0.5398  0.0932
 8436TIP3   OH246798   5.478   3.518  15.025 -0.3322 -0.5346  0.5356
 8436TIP3    H146799   5.397   3.471  15.003 -1.0384  1.8168 -2.6242
 8436TIP3    H246800   5.548   3.460  14.994 -1.1882  0.2930 -3.5508
 8437TIP3   OH246801   0.994   0.238   1.672  0.6807 -0.7855 -0.3593
 8437TIP3    H146802   0.943   0.176   1.726  0.8621 -1.0528 -0.4947
 8437TIP3    H246803   0.941   0.318   1.672 -0.0752 -1.2689 -1.0486
 8438TIP3   OH246804   5.178   0.530   0.726  0.1242 -0.8139 -0.0314
 8438TIP3    H146805   5.128   0.588   0.669 -0.7851 -1.0365  0.5194
 8438TIP3    H246806   5.141   0.443   0.711  0.4957 -1.0210  0.2163
 8439TIP3   OH246807   2.480   2.906   0.480  0.2462  0.2376  0.0633
 8439TIP3    H146808   2.457   2.998   0.478  2.3650  0.9390  2.1530
 8439TIP3    H246809   2.478   2.883   0.573  0.7141 -1.5471 -0.3252
 8440TIP3   OH246810   6.469   3.759  14.356 -0.1269 -0.3776  0.1185
 8440TIP3    H146811   6.432   3.687  14.306 -0.1884 -1.0487  1.0998
 8440TIP3    H246812   6.400   3.785  14.417 -0.7036  1.6042 -1.2752
 8441TIP3   OH246813   2.455   6.604   2.084 -0.2833  0.1691  0.1500
 8441TIP3    H146814   2.456   6.650   2.000 -0.3622  0.7344  0.4589
 8441TIP3    H246815   2.362   6.599   2.107 -0.1583  1.5021  1.0139
 8442TIP3   OH246816   5.968   4.030   5.427  0.3938  0.4543  0.5050
 8442TIP3    H146817   5.932   4.110   5.389 -2.0298 -0.9696 -0.3691
 8442TIP3    H246818   5.930   4.025   5.515 -1.0020 -0.6710 -0.1391
 8443TIP3   OH246819   4.365   6.276   2.431 -0.0433 -0.2222 -0.7687
 8443TIP3    H146820   4.286   6.284   2.377  1.0726 -1.8816 -2.8018
 8443TIP3    H246821   4.354   6.342   2.499 -2.6671  0.3353 -1.6069
 8444TIP3   OH246822   2.450   5.055   3.886  0.4630 -0.0203  0.2607
 8444TIP3    H146823   2.356   5.046   3.871  0.7326  0.1029 -1.8020
 8444TIP3    H246824   2.490   4.995   3.823  1.8099  1.8576 -0.7871
 8445TIP3   OH246825   4.363   0.170   5.146  0.2582  0.7240 -0.1865
 8445TIP3    H146826   4.352   0.250   5.095 -0.9871 -0.3579 -1.7013
 8445TIP3    H246827   4.370   0.101   5.081  1.4912 -0.4167  1.0878
 8446TIP3   OH246828   0.763   5.060  12.754  0.2168 -0.3030 -0.1582
 8446TIP3    H146829   0.709   4.986  12.781 -0.6727 -0.0963 -1.3057
 8446TIP3    H246830   0.795   5.036  12.666  0.9021  0.1565 -0.0445
 8447TIP3   OH246831   2.024   5.184   6.476 -0.1219 -0.3443 -0.2713
 8447TIP3    H146832   2.058   5.252   6.533 -0.8787 -0.2820  0.1111
 8447TIP3    H246833   1.931   5.204   6.466 -0.0818 -0.5670 -1.2275
 8448TIP3   OH246834   4.503   5.241  13.112  0.2113 -0.4818  0.2812
 8448TIP3    H146835   4.527   5.153  13.083 -2.7403 -1.6604  1.0146
 8448TIP3    H246836   4.564   5.261  13.183 -0.3450 -2.8661  1.5227
 8449TIP3   OH246837   0.029   4.659   5.272  0.0389 -0.2092  0.4086
 8449TIP3    H146838  -0.034   4.680   5.341  0.4822  0.0484  0.7397
 8449TIP3    H246839   0.054   4.744   5.235 -0.3953 -0.3664 -0.2465
 8450TIP3   OH246840   2.760   3.045  11.846 -0.5758  0.0689 -0.0793
 8450TIP3    H146841   2.827   3.075  11.785 -1.0091 -0.5410 -0.8806
 8450TIP3    H246842   2.809   2.995  11.912 -0.3998 -2.2475 -1.8412
 8451TIP3   OH246843   0.307   4.910  14.987  0.4780 -0.1138 -0.3392
 8451TIP3    H146844   0.292   4.981  14.925 -0.8501  0.8800  1.0634
 8451TIP3    H246845   0.333   4.953  15.068  2.7868 -1.4251 -0.3014
 8452TIP3   OH246846   3.232   4.471   0.551 -0.2504 -0.0891 -0.1532
 8452TIP3    H146847   3.268   4.438   0.633  1.6408  1.6674 -0.1999
 8452TIP3    H246848   3.247   4.401   0.488  0.3520 -0.5596  0.4957
 8453TIP3   OH246849   3.553   5.887   5.577 -0.2819  0.9166 -0.3897
 8453TIP3    H146850   3.478   5.888   5.636 -0.0220 -0.9266  0.0511
 8453TIP3    H246851   3.544   5.805   5.528  0.6300  1.4038 -1.4146
 8454TIP3   OH246852   6.196   0.010  14.334 -0.4049 -0.0577  0.2673
 8454TIP3    H146853   6.151  -0.069  14.365  0.1088 -0.3926  0.1740
 8454TIP3    H246854   6.257   0.032  14.405 -0.4931  0.2144  0.2595
 8455TIP3   OH246855   1.133   4.085  17.054  0.5235  0.1944 -0.3799
 8455TIP3    H146856   1.167   4.162  17.100 -1.3484  0.5976  0.4138
 8455TIP3    H246857   1.108   4.117  16.968  1.6001  0.0126 -0.7741
 8456TIP3   OH246858   1.563   2.740  15.632 -0.7700  0.2196 -0.1000
 8456TIP3    H146859   1.564   2.794  15.711  0.6377 -0.7140  0.5426
 8456TIP3    H246860   1.497   2.673  15.649 -0.5299  0.0724  0.2398
 8457TIP3   OH246861   1.048   5.699  12.214 -0.0221  0.1808  0.0364
 8457TIP3    H146862   1.099   5.639  12.268  1.3207 -1.2645 -2.6556
 8457TIP3    H246863   0.960   5.698  12.253 -0.0234 -3.4394  0.2121
 8458TIP3   OH246864   2.565   3.563  14.715 -0.5857  0.6793 -0.4165
 8458TIP3    H146865   2.618   3.533  14.642  1.1222  2.9672 -0.2242
 8458TIP3    H246866   2.484   3.593  14.675 -0.2621  0.5407 -1.1844
 8459TIP3   OH246867   0.153   2.292   3.123 -0.1228 -0.0575  0.2451
 8459TIP3    H146868   0.159   2.387   3.114  2.0370 -0.1692  0.1012
 8459TIP3    H246869   0.085   2.279   3.189  0.7270  1.6634  1.5424
 8460TIP3   OH246870   4.406   0.467   5.746 -0.3594 -0.0329 -0.5237
 8460TIP3    H146871   4.424   0.537   5.809 -0.3799  0.4743 -1.0687
 8460TIP3    H246872   4.469   0.398   5.768  0.5352  0.6767 -0.7830
 8461TIP3   OH246873   6.682   4.288   0.962  0.5191  0.1306 -0.1524
 8461TIP3    H146874   6.661   4.263   1.052  0.2521 -0.1443 -0.2915
 8461TIP3    H246875   6.607   4.340   0.933  0.8182  0.6222 -0.0565
 8462TIP3   OH246876   1.514   4.797  15.397 -0.2785 -0.3129  0.2639
 8462TIP3    H146877   1.434   4.744  15.397 -1.2334  1.0009 -1.5069
 8462TIP3    H246878   1.517   4.835  15.309  2.0057  0.1483  0.4872
 8463TIP3   OH246879   2.722   2.000   4.435 -0.2777 -0.1778 -0.1176
 8463TIP3    H146880   2.777   1.959   4.369  1.4033 -0.1194  1.1709
 8463TIP3    H246881   2.758   2.088   4.445 -1.1594  0.1660  0.1664
 8464TIP3   OH246882   1.226   2.220   0.003  0.4670 -0.5556  0.7099
 8464TIP3    H146883   1.315   2.187  -0.011  0.3579 -0.2684 -0.8970
 8464TIP3    H246884   1.183   2.208  -0.082 -1.2760 -1.3977  1.6583
 8465TIP3   OH246885   5.095   6.805  15.706 -0.7853  0.0328  1.0740
 8465TIP3    H146886   5.097   6.797  15.611  0.9579  0.8486  1.0043
 8465TIP3    H246887   5.007   6.838  15.726 -1.0542  0.1641 -0.2767
 8466TIP3   OH246888   4.437   3.263  16.734  0.2408  0.2976 -0.6241
 8466TIP3    H146889   4.408   3.176  16.709  0.7350  0.0716 -0.4229
 8466TIP3    H246890   4.476   3.252  16.821 -1.0124  0.9792  0.0567
 8467TIP3   OH246891   1.225   6.658   4.518 -0.0881 -0.3538 -0.3269
 8467TIP3    H146892   1.285   6.728   4.492  0.7257 -1.3764 -1.2827
 8467TIP3    H246893   1.247   6.642   4.610  0.0819  0.2844 -0.2485
 8468TIP3   OH246894   2.317   5.725   1.818  0.4465  0.1263  0.0339
 8468TIP3    H146895   2.229   5.756   1.799  1.3433  2.9038 -0.1124
 8468TIP3    H246896   2.373   5.772   1.755  2.4472  1.8555  2.8599
 8469TIP3   OH246897   3.799   4.577   0.750 -0.1266  0.1518  0.6591
 8469TIP3    H146898   3.788   4.521   0.827 -1.0612  0.3429  0.6751
 8469TIP3    H246899   3.765   4.525   0.677  1.2936 -0.2573  0.2623
 8470TIP3   OH246900   2.094   6.655   1.256 -0.5570  0.3560 -0.3628
 8470TIP3    H146901   2.047   6.696   1.183 -0.2800 -0.2639 -0.9062
 8470TIP3    H246902   2.055   6.568   1.263 -0.6750  0.4645  0.3241
 8471TIP3   OH246903   6.046   4.420   3.734 -0.0699  0.4681  0.4763
 8471TIP3    H146904   5.951   4.429   3.729  0.0278  1.3646 -0.1616
 8471TIP3    H246905   6.069   4.450   3.822 -0.3631  0.4353  0.5637
 8472TIP3   OH246906   5.759   5.155  14.454 -0.1703  0.0095  0.3257
 8472TIP3    H146907   5.831   5.207  14.488  0.8396 -1.3384  0.3523
 8472TIP3    H246908   5.728   5.204  14.378  2.9023 -0.8238 -1.6557
 8473TIP3   OH246909   6.449   3.628   0.773 -0.7610 -0.2589  0.5359
 8473TIP3    H146910   6.393   3.702   0.747  0.4610 -0.6599 -4.1291
 8473TIP3    H246911   6.398   3.550   0.751  0.1266 -0.6712 -0.1236
 8474TIP3   OH246912   4.415   5.947  12.769  0.1023  0.1304 -0.2524
 8474TIP3    H146913   4.396   5.853  12.772  0.2879  0.0910 -0.3130
 8474TIP3    H246914   4.510   5.952  12.764  0.0380  0.3002 -1.3434
 8475TIP3   OH246915   5.292   1.024  15.698 -0.5348 -0.3787 -0.2982
 8475TIP3    H146916   5.306   0.938  15.737  1.0854 -1.4331 -2.9739
 8475TIP3    H246917   5.198   1.027  15.680 -0.7774 -1.1318  0.7351
 8476TIP3   OH246918   2.978   6.396   0.254 -0.2167  0.0160  0.0954
 8476TIP3    H146919   3.002   6.477   0.209  1.8644 -0.0582  1.0054
 8476TIP3    H246920   3.061   6.352   0.272 -1.2818 -2.3139 -0.2958
 8477TIP3   OH246921   2.815   4.896  17.112 -0.2074  0.1621 -0.3579
 8477TIP3    H146922   2.821   4.854  17.027  0.7297 -0.3855 -0.0254
 8477TIP3    H246923   2.905   4.914  17.138 -0.5573  2.8437 -0.6979
 8478TIP3   OH246924   0.816   6.281  12.087 -0.1564  0.2261  0.7855
 8478TIP3    H146925   0.785   6.222  12.156  1.1234 -0.0211  1.1681
 8478TIP3    H246926   0.737   6.328  12.059 -0.9999 -0.8694  1.2390
 8479TIP3   OH246927   3.528   1.858  15.160 -0.6600 -0.0543  0.1800
 8479TIP3    H146928   3.529   1.818  15.247 -1.1112 -1.0365 -0.2475
 8479TIP3    H246929   3.567   1.944  15.173 -0.4908 -0.2797  1.3070
 8480TIP3   OH246930   1.959   6.646   0.728  0.1246 -0.7988 -0.3079
 8480TIP3    H146931   1.863   6.639   0.731 -0.0998  1.4066 -0.4877
 8480TIP3    H246932   1.979   6.667   0.637  0.7937 -1.2008 -0.2614
 8481TIP3   OH246933   6.387   5.609   0.957  0.2362  0.5377 -0.2308
 8481TIP3    H146934   6.392   5.517   0.934  0.1216  1.2125 -3.3456
 8481TIP3    H246935   6.348   5.651   0.881 -0.6960  3.0528  1.4882
 8482TIP3   OH246936   4.510   2.906   0.154 -0.3202 -0.2056 -0.1377
 8482TIP3    H146937   4.597   2.888   0.120  0.3154 -1.7152  2.0851
 8482TIP3    H246938   4.456   2.920   0.076  1.1019 -2.9851 -1.7534
 8483TIP3   OH246939   1.987   2.722   0.806  0.0740 -0.5769 -0.5004
 8483TIP3    H146940   1.911   2.669   0.783  0.5882 -1.8502  0.5598
 8483TIP3    H246941   2.046   2.713   0.730  0.2647 -1.7854 -0.2295
 8484TIP3   OH246942   2.258   4.546   5.974  0.6131 -0.0011  0.1563
 8484TIP3    H146943   2.354   4.550   5.975  0.6798 -0.5232 -1.3438
 8484TIP3    H246944   2.230   4.628   6.014  1.7261  1.0424 -1.1011
 8485TIP3   OH246945   1.882   5.906   5.715 -0.1070  0.4181 -0.6836
 8485TIP3    H146946   1.934   5.910   5.795  0.6308  3.1157 -1.1862
 8485TIP3    H246947   1.806   5.962   5.733 -0.0837  0.8151 -1.7622
 8486TIP3   OH246948   6.133   1.315   1.069 -0.4756  0.2043 -0.6527
 8486TIP3    H146949   6.056   1.333   1.015 -0.9995 -0.0853 -0.0285
 8486TIP3    H246950   6.204   1.363   1.027 -0.9628  0.3503 -1.3333
 8487TIP3   OH246951   1.778   2.265  11.394 -0.0418 -0.4500 -0.1102
 8487TIP3    H146952   1.781   2.258  11.299 -0.9962  2.1341 -0.4325
 8487TIP3    H246953   1.685   2.258  11.416  0.1692 -1.0062  0.6413
 8488TIP3   OH246954   1.829   4.795  13.503  0.2514  0.1812  0.8655
 8488TIP3    H146955   1.866   4.882  13.519 -0.9834  0.6331  1.3865
 8488TIP3    H246956   1.801   4.798  13.411 -0.4696  0.6242  1.0842
 8489TIP3   OH246957   4.608   2.103   5.209  0.1271  0.1886 -0.6989
 8489TIP3    H146958   4.581   2.187   5.245  0.6167  0.2934 -0.5645
 8489TIP3    H246959   4.621   2.119   5.116  2.4513  0.8646 -0.3217
 8490TIP3   OH246960   0.873   2.083   0.817 -0.4219 -0.2305 -0.8404
 8490TIP3    H146961   0.870   2.038   0.733  1.8509 -1.0605 -0.5596
 8490TIP3    H246962   0.809   2.038   0.871  0.6349 -2.0985 -1.0718
 8491TIP3   OH246963   6.338   2.070   3.277 -0.0372 -0.1923  0.0520
 8491TIP3    H146964   6.381   2.133   3.335  0.0308  0.4671 -0.6833
 8491TIP3    H246965   6.389   1.990   3.287  0.4788  0.1555  0.2893
 8492TIP3   OH246966   3.574   1.341   2.078  0.2141 -0.1988 -0.3983
 8492TIP3    H146967   3.635   1.406   2.112  0.2080 -0.6377  0.4909
 8492TIP3    H246968   3.504   1.338   2.143 -0.5315 -0.0269 -1.1832
 8493TIP3   OH246969   1.874   3.941   3.782 -0.0998  0.2758  0.2389
 8493TIP3    H146970   1.914   3.874   3.838 -0.7011  0.2081  0.6001
 8493TIP3    H246971   1.781   3.938   3.805 -0.3695  0.2135 -0.8125
 8494TIP3   OH246972   1.156   4.760  15.990 -0.4803 -0.0617  0.2283
 8494TIP3    H146973   1.209   4.745  16.069 -1.5218  0.2463  1.0041
 8494TIP3    H246974   1.152   4.675  15.947 -0.5691 -0.4218  0.9350
 8495TIP3   OH246975   1.405   2.360  13.891  0.3759 -0.4491  0.1303
 8495TIP3    H146976   1.317   2.341  13.921 -1.0767  0.0465 -3.3013
 8495TIP3    H246977   1.451   2.276  13.895  0.0033 -0.6109  2.3983
 8496TIP3   OH246978   0.765   3.611  15.314  0.4845  0.0597 -0.4035
 8496TIP3    H146979   0.748   3.690  15.364  0.6994 -0.3940  0.4031
 8496TIP3    H246980   0.678   3.581  15.288  0.2550 -0.3941  0.8084
 8497TIP3   OH246981   5.046   6.249   2.567  1.0478 -0.2836 -0.3201
 8497TIP3    H146982   5.094   6.257   2.649  0.8245 -1.5669 -0.0556
 8497TIP3    H246983   5.010   6.161   2.568  0.5617 -0.1188 -1.5404
 8498TIP3   OH246984   6.494   1.431  15.333  0.3713 -0.0362  0.3399
 8498TIP3    H146985   6.443   1.470  15.403  0.7250  0.3227  0.4002
 8498TIP3    H246986   6.431   1.380  15.282 -0.2047  1.0378 -0.0565
 8499TIP3   OH246987   2.710   6.442   1.633  0.4873  0.3221  0.0088
 8499TIP3    H146988   2.644   6.415   1.569 -0.2055 -0.3151  0.9694
 8499TIP3    H246989   2.781   6.478   1.580 -0.2213  0.1410 -1.0981
 8500TIP3   OH246990   3.369   4.457  12.540  0.7925  0.0623  0.4892
 8500TIP3    H146991   3.301   4.399  12.576 -0.7678  2.2360  1.3359
 8500TIP3    H246992   3.362   4.446  12.445  0.5785 -1.1424  0.6263
 8501TIP3   OH246993   5.693   1.818  13.359 -0.4840 -0.9727  0.1621
 8501TIP3    H146994   5.635   1.746  13.331 -1.9197  1.1856 -3.0062
 8501TIP3    H246995   5.633   1.890  13.379  0.9095  1.0324 -2.2628
 8502TIP3   OH246996   3.933   6.436  12.241  0.4811 -0.5050 -0.9657
 8502TIP3    H146997   3.885   6.508  12.282 -0.3631 -0.8022 -1.4180
 8502TIP3    H246998   3.956   6.468  12.154  0.7340 -0.5230 -0.9076
 8503TIP3   OH246999   2.190   5.354   0.909 -0.1961 -0.0775  0.1896
 8503TIP3    H147000   2.205   5.315   0.995  2.5662  1.0663  0.3397
 8503TIP3    H247001   2.156   5.441   0.928 -1.6246 -0.5693  0.0067
 8504TIP3   OH247002   5.439   6.491  16.448 -0.1252 -0.2347  0.1396
 8504TIP3    H147003   5.364   6.453  16.403  0.4948  0.6575 -1.7651
 8504TIP3    H247004   5.414   6.582  16.464 -0.0994 -0.3829  1.1142
 8505TIP3   OH247005   5.484   5.453  12.106  0.3883 -0.0096 -0.2958
 8505TIP3    H147006   5.561   5.504  12.081 -1.1644  2.7884  0.2243
 8505TIP3    H247007   5.520   5.373  12.144  3.3227  2.6675  3.3255
 8506TIP3   OH247008   1.727   5.738   0.829  0.1900  0.1202  0.2708
 8506TIP3    H147009   1.749   5.704   0.742 -0.5307 -0.2702  0.2288
 8506TIP3    H247010   1.752   5.667   0.889  2.1943  1.0125  0.5603
 8507TIP3   OH247011   1.519   5.314  12.365 -0.4644 -0.3631  0.2509
 8507TIP3    H147012   1.580   5.385  12.346 -0.5132 -0.0158  1.3449
 8507TIP3    H247013   1.516   5.263  12.284 -0.8237  1.1464 -0.7225
 8508TIP3   OH247014   1.800   3.532   5.312  0.1956  0.3814 -0.3593
 8508TIP3    H147015   1.812   3.499   5.223  0.6270  0.9251 -0.5110
 8508TIP3    H247016   1.738   3.472   5.352 -0.0491  0.1666 -1.0508
 8509TIP3   OH247017   4.285   0.745   2.241  0.1416 -0.0919  0.2162
 8509TIP3    H147018   4.197   0.709   2.249 -0.4743  1.2452 -0.3917
 8509TIP3    H247019   4.273   0.838   2.224  1.6845  0.2402  0.7044
 8510TIP3   OH247020   0.743   1.037   1.030 -0.1966 -0.3373  0.3929
 8510TIP3    H147021   0.817   1.084   1.069  1.1438 -2.2237  0.2881
 8510TIP3    H247022   0.707   1.098   0.965  1.8813  0.3016 -0.2387
 8511TIP3   OH247023   6.724   3.039   0.658 -0.2596  1.1161  0.3885
 8511TIP3    H147024   6.644   2.989   0.644  0.8980 -1.1593  1.3212
 8511TIP3    H247025   6.740   3.084   0.575 -1.0324 -0.6137 -0.7521
 8512TIP3   OH247026   3.013   0.965   0.805 -0.0973  0.4676  0.2240
 8512TIP3    H147027   3.100   0.996   0.780 -0.9583  1.8355 -1.2982
 8512TIP3    H247028   2.989   1.020   0.881 -0.1338  1.0080 -0.1689
 8513TIP3   OH247029   1.225   6.784  15.233 -0.3213 -0.6516  0.3477
 8513TIP3    H147030   1.158   6.715  15.238 -0.3789 -0.5305  2.3350
 8513TIP3    H247031   1.235   6.801  15.140 -0.0582 -3.5635 -0.2678
 8514TIP3   OH247032   0.936   2.761   4.602 -0.5591  0.1833 -0.0679
 8514TIP3    H147033   0.906   2.830   4.543 -0.0495  2.4772  2.1518
 8514TIP3    H247034   0.876   2.767   4.677  0.8213 -0.3008  1.1155
 8515TIP3   OH247035   5.774   3.123  13.022 -0.7515 -0.1199 -0.1018
 8515TIP3    H147036   5.744   3.203  12.979 -2.2170  0.5704  2.0976
 8515TIP3    H247037   5.834   3.153  13.090  0.6940 -1.1215 -0.8814
 8516TIP3   OH247038   4.149   6.351   5.858  0.5220  0.2144 -0.0656
 8516TIP3    H147039   4.100   6.410   5.801 -0.1161 -1.1071 -0.9241
 8516TIP3    H247040   4.231   6.397   5.875 -0.8003  2.3044  1.0996
 8517TIP3   OH247041   4.459   1.287   2.154 -0.2252 -0.5641 -0.0257
 8517TIP3    H147042   4.519   1.348   2.110 -3.5602  1.3356 -2.3993
 8517TIP3    H247043   4.407   1.342   2.212 -0.0644 -2.0709  1.6153
 8518TIP3   OH247044   2.119   6.810  11.083  0.2350  0.7408 -0.1729
 8518TIP3    H147045   2.205   6.835  11.115 -0.5595 -0.3420  3.1972
 8518TIP3    H247046   2.107   6.719  11.113 -2.5009  1.2435  0.5986
 8519TIP3   OH247047   5.613   3.374   3.581  0.5678 -0.0014 -0.1195
 8519TIP3    H147048   5.544   3.352   3.519  0.7175  0.9858 -0.6578
 8519TIP3    H247049   5.569   3.379   3.665  0.0070  0.4335 -0.4279
 8520TIP3   OH247050   6.737   5.769   5.822  0.0804 -0.1063  0.3558
 8520TIP3    H147051   6.712   5.824   5.896 -0.2553  0.5182 -0.2046
 8520TIP3    H247052   6.817   5.725   5.850  0.7487  1.2116  0.5582
 8521TIP3   OH247053   4.478   1.755   1.085 -0.3885 -0.2138 -0.4284
 8521TIP3    H147054   4.563   1.789   1.113  0.0281 -1.8262  0.3397
 8521TIP3    H247055   4.478   1.767   0.990  0.3378  0.5842 -0.3379
 8522TIP3   OH247056   2.383   0.772   4.052  0.3734  0.7952 -0.5537
 8522TIP3    H147057   2.347   0.813   3.973  0.6984 -0.6653 -1.4997
 8522TIP3    H247058   2.477   0.763   4.033  0.3256 -0.2581 -0.3251
 8523TIP3   OH247059   3.770   0.398   6.078 -0.1563 -0.0250 -0.0823
 8523TIP3    H147060   3.814   0.479   6.101  1.1625 -0.5175 -0.7537
 8523TIP3    H247061   3.731   0.367   6.160 -1.1200  1.5121  0.0766
 8524TIP3   OH247062   5.559   2.528  14.364  0.2774  0.3104 -0.3496
 8524TIP3    H147063   5.465   2.519  14.348 -0.0983  0.3615  1.6105
 8524TIP3    H247064   5.589   2.439  14.383  0.3552  0.4727  0.3135
 8525TIP3   OH247065   0.084   0.346  15.356 -0.4682  0.1462  0.2886
 8525TIP3    H147066   0.083   0.317  15.265  0.8686  0.3707  0.1851
 8525TIP3    H247067   0.116   0.436  15.353 -2.1352  0.7976  0.8393
 8526TIP3   OH247068   1.559   5.835  13.521  0.0501  0.0140  0.0256
 8526TIP3    H147069   1.645   5.806  13.549 -0.6390 -1.6671  0.5399
 8526TIP3    H247070   1.558   5.929  13.537  1.7927  0.0628 -0.0439
 8527TIP3   OH247071   4.202   4.824  17.038 -0.4698  0.6745  0.3850
 8527TIP3    H147072   4.115   4.815  16.999 -0.8509  2.2713  0.8195
 8527TIP3    H247073   4.209   4.917  17.061  1.3385  0.5681  0.3892
 8528TIP3   OH247074   1.853   2.301   2.555  0.4315 -0.2651 -0.4600
 8528TIP3    H147075   1.859   2.222   2.502  0.6842 -0.6376  0.1193
 8528TIP3    H247076   1.829   2.270   2.642 -0.6917  0.3986 -0.5078
 8529TIP3   OH247077   2.645   2.083   1.833 -0.2363 -0.7575 -0.0252
 8529TIP3    H147078   2.683   2.067   1.919 -0.2873 -0.9720 -0.0401
 8529TIP3    H247079   2.711   2.052   1.771 -0.1138 -0.4127 -0.0685
 8530TIP3   OH247080   1.887   6.293  15.806  0.1840 -0.1799  0.1985
 8530TIP3    H147081   1.878   6.388  15.817 -0.6349 -0.3233  0.8161
 8530TIP3    H247082   1.799   6.259  15.819  0.3940 -0.9972 -0.4545
 8531TIP3   OH247083   1.789   3.336  15.869 -0.0934 -0.0972 -0.4810
 8531TIP3    H147084   1.694   3.324  15.879 -0.5799  2.3919 -1.4351
 8531TIP3    H247085   1.825   3.247  15.873 -2.1878 -0.9525  2.1931
 8532TIP3   OH247086   4.743   2.893   3.955  0.5896  0.5996  0.0097
 8532TIP3    H147087   4.774   2.983   3.953  1.1062  0.4252 -0.1985
 8532TIP3    H247088   4.692   2.886   4.035  3.1444  0.2716  1.7441
 8533TIP3   OH247089   5.583   4.375   1.592  0.4208  0.3981 -0.3269
 8533TIP3    H147090   5.495   4.337   1.595  0.7898 -0.5631 -1.1176
 8533TIP3    H247091   5.606   4.389   1.684 -1.1145  2.0404 -0.1258
 8534TIP3   OH247092   4.117   5.098  15.603  0.3875  0.0056 -0.3165
 8534TIP3    H147093   4.187   5.034  15.610  1.1928  0.8423 -0.4543
 8534TIP3    H247094   4.054   5.059  15.543  0.0256 -1.3686  0.9008
 8535TIP3   OH247095   4.532   5.663  13.296  0.2636  0.5873 -0.0680
 8535TIP3    H147096   4.476   5.669  13.373  1.9039 -0.8959  1.3094
 8535TIP3    H247097   4.476   5.694  13.224 -1.9784  0.1320  1.3668
 8536TIP3   OH247098   0.383   1.828  16.351  0.0888 -0.3065 -0.3831
 8536TIP3    H147099   0.411   1.917  16.371  0.1113  0.0852 -2.0441
 8536TIP3    H247100   0.464   1.779  16.341  0.0937 -0.2819 -0.4634
 8537TIP3   OH247101   5.324   3.187  15.680 -0.2103 -0.3952  0.1905
 8537TIP3    H147102   5.283   3.180  15.594 -1.9272 -0.7839  1.0018
 8537TIP3    H247103   5.375   3.106  15.688  0.4893 -0.0612 -0.6929
 8538TIP3   OH247104   4.006   0.816   5.385 -0.2212  0.5788 -0.0148
 8538TIP3    H147105   3.933   0.804   5.445  0.8972 -0.0248  1.2782
 8538TIP3    H247106   4.037   0.905   5.400 -0.4866  0.7304 -0.3455
 8539TIP3   OH247107   2.132   4.740  12.770  0.5480  0.4060  0.1703
 8539TIP3    H147108   2.216   4.779  12.792 -0.0860  2.1449 -0.2999
 8539TIP3    H247109   2.121   4.758  12.676 -0.8596  1.2994  0.4699
 8540TIP3   OH247110   1.155   0.016  14.426 -0.3525 -0.1356 -0.1529
 8540TIP3    H147111   1.096  -0.026  14.363 -1.2415  1.5193 -0.4899
 8540TIP3    H247112   1.165   0.105  14.392  0.7234  0.2030  1.0134
 8541TIP3   OH247113   5.080   6.035   3.912  0.2192 -0.0773  0.3135
 8541TIP3    H147114   5.045   6.119   3.942  1.2333  0.1761  0.8427
 8541TIP3    H247115   5.085   6.044   3.817 -3.7090 -1.1548 -0.1886
 8542TIP3   OH247116   3.386   5.685   2.463 -0.4300 -0.5866 -0.4793
 8542TIP3    H147117   3.454   5.724   2.518  1.4215 -1.8853 -1.7228
 8542TIP3    H247118   3.433   5.621   2.409 -2.2297  0.1856 -3.1308
 8543TIP3   OH247119   1.707   0.575  12.340 -0.5767 -0.0788 -0.5444
 8543TIP3    H147120   1.687   0.627  12.262  0.7391 -1.1704 -1.6716
 8543TIP3    H247121   1.648   0.500  12.334 -0.5525 -0.1066 -0.4264
 8544TIP3   OH247122   0.376   3.981   3.395  0.1718 -0.4594 -0.2028
 8544TIP3    H147123   0.361   3.888   3.375 -0.1137 -0.6659  0.8939
 8544TIP3    H247124   0.294   4.010   3.434  1.1707 -0.5103  2.0783
 8545TIP3   OH247125   5.188   5.270  12.226 -0.5353 -0.1913  0.1631
 8545TIP3    H147126   5.234   5.320  12.159 -1.7269  0.2247 -0.3756
 8545TIP3    H247127   5.228   5.297  12.309  1.2726 -1.0629 -0.3796
 8546TIP3   OH247128   5.304   4.140   3.874  0.7336 -0.2754  0.2210
 8546TIP3    H147129   5.324   4.230   3.902  1.3692 -0.7365  1.3149
 8546TIP3    H247130   5.360   4.085   3.929 -0.0031 -1.3701 -0.0947
 8547TIP3   OH247131   1.657   5.483  15.948 -0.1675 -0.6131 -0.0266
 8547TIP3    H147132   1.723   5.482  15.879 -1.4733 -2.3536 -1.3463
 8547TIP3    H247133   1.603   5.406  15.930 -2.2706  0.4746  1.2681
 8548TIP3   OH247134   5.288   1.674  13.475 -0.0727  0.4816 -0.0566
 8548TIP3    H147135   5.208   1.622  13.478  0.9450 -1.2077 -0.6486
 8548TIP3    H247136   5.339   1.645  13.551  0.8831 -0.0807 -0.8764
 8549TIP3   OH247137   2.859   3.985  16.128 -0.2274  0.1745 -0.3830
 8549TIP3    H147138   2.912   3.905  16.129 -0.0723  0.2125 -2.2498
 8549TIP3    H247139   2.815   3.984  16.043 -1.2798  1.4160  0.1094
 8550TIP3   OH247140   5.855   3.769   3.715 -0.0777  0.1995  0.5071
 8550TIP3    H147141   5.850   3.695   3.655  1.0437 -0.4658  1.1913
 8550TIP3    H247142   5.782   3.825   3.690  0.7553  0.3109 -1.9396
 8551TIP3   OH247143   5.008   6.265  11.127  0.7026 -0.3505 -0.7781
 8551TIP3    H147144   5.040   6.226  11.208  1.3839 -1.0491 -1.3572
 8551TIP3    H247145   5.064   6.341  11.113 -0.3137  0.5828  0.1048
 8552TIP3   OH247146   4.830   4.309  11.711 -0.2973 -0.0709 -0.4609
 8552TIP3    H147147   4.866   4.268  11.789  0.5979  0.9597 -0.3092
 8552TIP3    H247148   4.735   4.305  11.724 -0.2437 -1.8168 -0.3494
 8553TIP3   OH247149   6.033   5.477   4.144  0.0635 -0.0216  0.4355
 8553TIP3    H147150   6.029   5.436   4.230 -0.1534 -1.4123 -0.2083
 8553TIP3    H247151   6.114   5.444   4.106 -0.0273  0.2835 -0.0296
 8554TIP3   OH247152   2.429   4.559   1.947 -0.2914 -0.6940 -0.0577
 8554TIP3    H147153   2.349   4.596   1.985 -1.2529 -0.6400 -1.9909
 8554TIP3    H247154   2.495   4.567   2.016 -1.4540  1.0739  0.9242
 8555TIP3   OH247155   2.035   2.535  16.973 -0.2277  0.2127 -0.3495
 8555TIP3    H147156   2.034   2.578  17.058  1.6420 -0.1495 -0.0940
 8555TIP3    H247157   2.104   2.469  16.980  0.3191  0.5030 -2.2781
 8556TIP3   OH247158   5.007   1.373  11.028 -0.0169  0.3538  0.3936
 8556TIP3    H147159   4.955   1.422  10.965  0.2057  1.5955  1.1424
 8556TIP3    H247160   5.087   1.424  11.038 -0.2799  0.4949  2.0841
 8557TIP3   OH247161   4.451   4.676   5.874  0.2446  0.9175 -0.2964
 8557TIP3    H147162   4.452   4.617   5.949 -1.5187  0.1104 -0.8678
 8557TIP3    H247163   4.544   4.691   5.854  0.7586  1.2731  2.0934
 8558TIP3   OH247164   0.461   4.630  13.225 -0.8767  0.4376 -0.2253
 8558TIP3    H147165   0.387   4.687  13.247  0.2147  1.3056  1.4105
 8558TIP3    H247166   0.490   4.660  13.139 -2.3008  0.1741 -0.8303
 8559TIP3   OH247167   5.462   1.358   4.119 -0.3814  0.5526 -0.3274
 8559TIP3    H147168   5.408   1.342   4.042 -2.3779  0.7638  0.9385
 8559TIP3    H247169   5.551   1.364   4.086 -1.2100  0.9792 -2.6490
 8560TIP3   OH247170   0.195   6.401   4.328 -0.4281 -0.7541  0.1119
 8560TIP3    H147171   0.231   6.313   4.338  2.0993  0.4541  3.2543
 8560TIP3    H247172   0.167   6.425   4.417  0.7095  2.2478 -0.2329
 8561TIP3   OH247173   4.122   3.143   5.298 -0.1832 -0.5568 -0.8563
 8561TIP3    H147174   4.060   3.212   5.275 -1.9461 -1.9234 -0.4668
 8561TIP3    H247175   4.201   3.189   5.327 -1.5094  1.3057 -0.0192
 8562TIP3   OH247176   3.366   4.109   2.252 -0.4383  0.4290 -0.8732
 8562TIP3    H147177   3.284   4.063   2.265 -0.5616  1.0959  1.0229
 8562TIP3    H247178   3.347   4.200   2.276  0.8919  0.5382 -0.0842
 8563TIP3   OH247179   1.433   1.551   0.972  0.2078 -0.4810 -0.7043
 8563TIP3    H147180   1.405   1.582   0.886 -0.3028 -0.4361 -0.5227
 8563TIP3    H247181   1.529   1.549   0.967  0.3045  1.5345 -0.5906
 8564TIP3   OH247182   0.212   1.085  13.851  0.3015  0.2644  0.1646
 8564TIP3    H147183   0.137   1.131  13.890  0.9525  0.8188  0.8052
 8564TIP3    H247184   0.285   1.147  13.860  0.8083 -0.2067 -0.5852
 8565TIP3   OH247185   4.373   6.087  12.028 -0.1827  0.0564 -0.2148
 8565TIP3    H147186   4.380   6.046  12.115 -2.3311 -1.8425 -0.8279
 8565TIP3    H247187   4.387   6.180  12.045  0.7539 -0.4064  1.9520
 8566TIP3   OH247188   4.508   2.651   2.924 -0.2143  0.4379 -0.0787
 8566TIP3    H147189   4.477   2.671   2.836 -0.1974  1.2407  0.0890
 8566TIP3    H247190   4.551   2.566   2.915  0.3728  0.8076 -0.9967
 8567TIP3   OH247191   1.032   6.628  12.390  0.6467  0.1058 -0.1134
 8567TIP3    H147192   1.005   6.539  12.412  1.6140 -0.0162  0.6821
 8567TIP3    H247193   0.978   6.652  12.315 -0.7422 -0.5613  0.6323
 8568TIP3   OH247194   6.431   1.078   3.842  0.5470  0.4761  0.3038
 8568TIP3    H147195   6.479   1.031   3.909  2.9217 -0.7431 -2.0476
 8568TIP3    H247196   6.458   1.037   3.760 -0.1705  3.5048 -1.6332
 8569TIP3   OH247197   6.761   4.321   2.146  0.2324 -0.4858  0.2656
 8569TIP3    H147198   6.781   4.233   2.178  2.2910  0.2584  1.1857
 8569TIP3    H247199   6.688   4.350   2.201 -0.2903 -1.4992  0.1309
 8570TIP3   OH247200   1.485   3.754   3.449  0.5345 -0.4443 -0.2828
 8570TIP3    H147201   1.541   3.683   3.481  0.4798 -0.8437 -1.0466
 8570TIP3    H247202   1.539   3.800   3.385 -0.2718 -1.3786 -1.6970
 8571TIP3   OH247203   3.638   0.491   4.494  0.0931  0.2134  0.1384
 8571TIP3    H147204   3.601   0.470   4.408 -0.8018  0.7891  0.3667
 8571TIP3    H247205   3.620   0.414   4.547  0.6545 -0.1470 -0.1960
 8572TIP3   OH247206   6.028   2.414   5.883  0.4378 -0.1050  0.0966
 8572TIP3    H147207   5.954   2.367   5.920 -0.3864  1.3079  0.3211
 8572TIP3    H247208   6.088   2.346   5.853 -1.7005 -1.3129 -1.6517
 8573TIP3   OH247209   0.887   6.115   5.766 -0.4315  0.1793 -0.2695
 8573TIP3    H147210   0.975   6.097   5.731 -1.0100 -1.8101 -0.8352
 8573TIP3    H247211   0.836   6.037   5.744 -2.2361  1.0895  0.4667
 8574TIP3   OH247212   0.217   1.161   0.889 -0.0854 -0.3720  0.5822
 8574TIP3    H147213   0.174   1.076   0.888 -1.0570  0.0665  2.1223
 8574TIP3    H247214   0.190   1.201   0.971  2.2041  0.4980  0.9914
 8575TIP3   OH247215   3.231   2.367  12.543 -0.3956  0.1747  0.0448
 8575TIP3    H147216   3.284   2.293  12.514 -0.8313 -0.8097  1.6019
 8575TIP3    H247217   3.185   2.397  12.464  0.7605 -0.3860 -0.8645
 8576TIP3   OH247218   6.343   1.643  11.174  0.0032 -0.2310 -0.2968
 8576TIP3    H147219   6.439   1.637  11.172  0.0407 -0.1152 -2.9718
 8576TIP3    H247220   6.317   1.588  11.248  2.1243 -0.1892  0.5559
 8577TIP3   OH247221   2.244   3.365  13.365 -0.1847  0.1113 -0.0212
 8577TIP3    H147222   2.199   3.404  13.290  0.0604  0.1741 -0.1363
 8577TIP3    H247223   2.334   3.398  13.358 -0.6517  1.8393  1.4894
 8578TIP3   OH247224   6.387   5.818   5.475  0.5103  0.3293 -0.4518
 8578TIP3    H147225   6.461   5.758   5.485 -0.6598 -1.2461 -0.9379
 8578TIP3    H247226   6.345   5.819   5.561  0.2604  0.0719 -0.5688
 8579TIP3   OH247227   5.997   6.348   2.202 -0.0017 -0.0706  0.0996
 8579TIP3    H147228   5.912   6.372   2.166 -0.2005  0.2010  0.7373
 8579TIP3    H247229   5.979   6.272   2.258 -0.1679  1.1758  1.7883
 8580TIP3   OH247230   6.704   5.532   1.486  0.0828 -0.2110 -0.0203
 8580TIP3    H147231   6.635   5.504   1.426 -0.2801  0.0055  0.2952
 8580TIP3    H247232   6.782   5.542   1.430  0.5409 -2.8984 -0.0132
 8581TIP3   OH247233   5.120   5.528   3.217  0.0178  0.5240 -0.6824
 8581TIP3    H147234   5.039   5.551   3.263 -0.2214 -0.7231 -0.4398
 8581TIP3    H247235   5.154   5.452   3.264  1.1361  0.8060 -1.0140
 8582TIP3   OH247236   1.766   3.090   6.364  0.0745 -0.4661  0.3021
 8582TIP3    H147237   1.721   3.005   6.366 -0.1597 -0.4954 -2.4391
 8582TIP3    H247238   1.806   3.094   6.277  0.6052  1.9862  0.5818
 8583TIP3   OH247239   3.330   4.698   2.352 -0.0188  0.6178  0.2130
 8583TIP3    H147240   3.291   4.634   2.292  0.7041 -0.6597  1.0647
 8583TIP3    H247241   3.406   4.652   2.389 -0.8315  1.1284  2.6238
 8584TIP3   OH247242   3.866   3.472  11.936  0.2939  0.4424 -0.0071
 8584TIP3    H147243   3.781   3.507  11.963 -1.2413 -0.9763 -2.5925
 8584TIP3    H247244   3.844   3.394  11.884  2.9919  1.2581 -2.6745
 8585TIP3   OH247245   1.312   0.453  15.293 -0.5797  0.7581 -0.0391
 8585TIP3    H147246   1.357   0.413  15.219 -1.2262  0.2094 -0.1399
 8585TIP3    H247247   1.371   0.523  15.321 -0.6164  1.3871 -1.4616
 8586TIP3   OH247248   3.786   5.928  12.855 -0.8157  0.2677 -0.4581
 8586TIP3    H147249   3.851   5.995  12.837 -0.5479 -0.1325 -1.0320
 8586TIP3    H247250   3.702   5.974  12.854 -0.6510  0.5564 -1.0356
 8587TIP3   OH247251   4.464   3.177  13.820 -0.2875 -0.3382 -0.1031
 8587TIP3    H147252   4.504   3.238  13.882  2.6575 -2.2331  0.0302
 8587TIP3    H247253   4.405   3.124  13.874  1.2828 -1.1263  0.9195
 8588TIP3   OH247254   5.308   5.966   2.895  0.7100  0.7060 -0.1419
 8588TIP3    H147255   5.398   5.980   2.924  0.7760 -0.2367  0.1289
 8588TIP3    H247256   5.313   5.974   2.799  1.3182 -0.4964 -0.2370
 8589TIP3   OH247257   6.633   1.952   1.070  0.0876 -0.3046 -0.1073
 8589TIP3    H147258   6.607   1.893   0.999 -2.2704 -0.8402  1.0938
 8589TIP3    H247259   6.603   2.038   1.043 -0.2080 -0.3896 -0.0463
 8590TIP3   OH247260   0.839   4.850   4.279  0.1738  0.1889 -0.7996
 8590TIP3    H147261   0.893   4.876   4.205  0.2090  0.1656 -0.7818
 8590TIP3    H247262   0.901   4.819   4.345  0.2439  1.4624 -0.2349
 8591TIP3   OH247263   5.527   4.650   1.660  0.2438 -0.5640  0.0949
 8591TIP3    H147264   5.534   4.562   1.622 -0.7829 -0.7282  0.2693
 8591TIP3    H247265   5.486   4.636   1.745  3.2505 -0.2988  1.7267
 8592TIP3   OH247266   3.386   5.760   1.588 -0.8066  0.2294  0.1804
 8592TIP3    H147267   3.307   5.756   1.534  0.0054  1.5962 -1.1917
 8592TIP3    H247268   3.457   5.735   1.529  0.1280  1.8662  0.5474
 8593TIP3   OH247269   2.361   3.184   4.022  0.3590 -0.6147  0.0089
 8593TIP3    H147270   2.335   3.270   3.989  0.4250 -0.1275  1.1767
 8593TIP3    H247271   2.284   3.153   4.069  0.1042 -1.5047 -0.9691
 8594TIP3   OH247272   0.506   1.237  11.544 -0.2168  0.2422  0.7070
 8594TIP3    H147273   0.432   1.265  11.598  0.5508  0.6995  1.5592
 8594TIP3    H247274   0.480   1.152  11.508 -0.5588 -0.3349  2.2406
 8595TIP3   OH247275   6.601   1.853  14.019 -0.2900  0.0199 -0.0583
 8595TIP3    H147276   6.648   1.823  14.097  1.6169 -1.6043 -1.7173
 8595TIP3    H247277   6.632   1.942  14.005  2.8239 -1.1312 -1.3351
 8596TIP3   OH247278   1.017   6.333  14.904 -0.1428 -0.2044  0.0337
 8596TIP3    H147279   1.042   6.417  14.942  0.3834  0.3339 -1.4341
 8596TIP3    H247280   1.086   6.314  14.840 -0.7628 -1.2967 -0.3389
 8597TIP3   OH247281   1.176   3.822   4.727  0.0515  0.3561 -0.5288
 8597TIP3    H147282   1.146   3.764   4.797 -0.7038  0.0325 -1.1113
 8597TIP3    H247283   1.266   3.794   4.708  0.1596  0.2625  0.1078
 8598TIP3   OH247284   2.486   1.444  13.390 -0.1758 -0.2517 -0.0586
 8598TIP3    H147285   2.511   1.397  13.310  0.1476  1.7039 -1.1729
 8598TIP3    H247286   2.390   1.438  13.392 -0.2491  0.3085 -1.0281
 8599TIP3   OH247287   6.348   6.391  16.522 -0.5665 -0.1312  0.2049
 8599TIP3    H147288   6.338   6.377  16.616 -1.8157  0.1765  0.1343
 8599TIP3    H247289   6.259   6.398  16.489 -0.2258 -2.0192 -1.3054
 8600TIP3   OH247290   4.164   0.513   2.501  0.6938 -0.4823 -0.3201
 8600TIP3    H147291   4.097   0.536   2.436 -0.7911 -1.4616  0.8125
 8600TIP3    H247292   4.209   0.438   2.463 -0.0629 -0.9557 -0.2948
 8601TIP3   OH247293   5.765   0.918   2.699 -0.3484 -0.7964 -0.6951
 8601TIP3    H147294   5.745   0.987   2.635  2.5951  1.0329  0.1707
 8601TIP3    H247295   5.751   0.959   2.784  2.5634 -0.7636 -0.1409
 8602TIP3   OH247296   2.679   4.979   1.657 -0.5501  0.3562  0.1916
 8602TIP3    H147297   2.660   5.035   1.581 -0.2948 -0.7508 -0.7274
 8602TIP3    H247298   2.774   4.987   1.668 -0.0215 -2.0624 -1.7931
 8603TIP3   OH247299   0.921   6.538   3.788 -0.0857  0.4508  0.1011
 8603TIP3    H147300   1.006   6.501   3.813 -0.4463 -1.7538 -1.5591
 8603TIP3    H247301   0.938   6.585   3.707 -0.3600  0.5200  0.0828
 8604TIP3   OH247302   2.720   6.519  13.128 -0.0408  0.0137  0.5081
 8604TIP3    H147303   2.748   6.472  13.050 -0.9218 -1.4193  1.0024
 8604TIP3    H247304   2.642   6.471  13.158 -0.5813  1.4022  1.4403
 8605TIP3   OH247305   0.816   5.872   3.389 -0.1325  0.6226 -0.3045
 8605TIP3    H147306   0.828   5.799   3.448  0.1617  1.6917  1.0006
 8605TIP3    H247307   0.726   5.864   3.357 -1.4526  1.7474  2.7896
 8606TIP3   OH247308   1.101   2.651   3.538 -0.2034 -0.4881 -0.1480
 8606TIP3    H147309   1.133   2.608   3.459 -0.1731 -0.3319 -0.2200
 8606TIP3    H247310   1.020   2.693   3.511  0.8537  1.3374 -0.6273
 8607TIP3   OH247311   4.387   2.567   3.161 -0.4066 -0.5723 -0.2309
 8607TIP3    H147312   4.317   2.588   3.223 -0.3391 -2.4565  0.5597
 8607TIP3    H247313   4.402   2.648   3.113 -1.6580  0.4661  1.0450
 8608TIP3   OH247314   3.306   0.028  15.346 -0.1585 -0.0013 -0.1799
 8608TIP3    H147315   3.393   0.039  15.384  0.4856 -1.5603 -1.1044
 8608TIP3    H247316   3.317   0.053  15.254 -1.2408  1.9140  0.1682
 8609TIP3   OH247317   0.073   2.139   6.072 -0.1763 -0.2033 -0.1535
 8609TIP3    H147318  -0.020   2.131   6.047 -0.3531 -1.1756  0.7496
 8609TIP3    H247319   0.116   2.067   6.026  0.0628 -0.0069 -0.2358
 8610TIP3   OH247320   0.955   0.846   1.038  0.1040  0.4036 -0.3779
 8610TIP3    H147321   0.907   0.929   1.045 -2.4362 -1.0366  0.4399
 8610TIP3    H247322   0.892   0.785   1.000  1.1421 -1.7090  1.1076
 8611TIP3   OH247323   3.203   0.279  14.767 -0.3338  0.5367 -0.5132
 8611TIP3    H147324   3.284   0.330  14.775  0.1888 -0.5006  1.3509
 8611TIP3    H247325   3.196   0.260  14.673  0.8955  1.7022 -0.8789
 8612TIP3   OH247326   2.019   5.736   0.445 -0.2964 -0.7275  0.1444
 8612TIP3    H147327   1.944   5.695   0.489 -0.7923  0.7652  0.7346
 8612TIP3    H247328   2.005   5.830   0.455  1.2593 -0.4018 -0.4252
 8613TIP3   OH247329   6.005   5.259   2.915  0.0434  0.4779 -0.0653
 8613TIP3    H147330   6.007   5.316   2.991  0.1984 -0.6222  0.7800
 8613TIP3    H247331   6.097   5.238   2.898 -0.0200  0.3743 -0.2932
 8614TIP3   OH247332   3.693   6.676  13.129  0.0876  0.1067 -0.4957
 8614TIP3    H147333   3.694   6.752  13.188 -1.0684  0.9874 -1.5716
 8614TIP3    H247334   3.771   6.627  13.153  0.2574  1.0366  0.9996
 8615TIP3   OH247335   4.196   6.451  13.396 -0.3533 -0.3080  0.2181
 8615TIP3    H147336   4.232   6.396  13.466 -0.3807 -2.8361 -1.6016
 8615TIP3    H247337   4.260   6.444  13.325 -0.8849  1.2301 -0.4655
 8616TIP3   OH247338   0.971   1.218  11.048  0.3088 -0.4722 -0.3928
 8616TIP3    H147339   0.948   1.288  10.987 -0.3016  0.4077  0.8016
 8616TIP3    H247340   1.064   1.230  11.064 -0.0969  1.1420  1.0521
 8617TIP3   OH247341   2.272   0.668  10.730 -1.4421  0.2224  0.0324
 8617TIP3    H147342   2.269   0.746  10.785  0.7084 -1.1866  2.3714
 8617TIP3    H247343   2.324   0.694  10.655 -0.2104  0.9276  1.0828
 8618TIP3   OH247344   3.125   4.034   1.605  0.6940 -0.0537  0.7840
 8618TIP3    H147345   3.204   4.088   1.597  1.0092 -0.6307 -0.1284
 8618TIP3    H247346   3.152   3.959   1.658  0.5205  0.1732  1.2009
 8619TIP3   OH247347   6.811   3.870  13.944 -0.6436 -0.0347  0.1107
 8619TIP3    H147348   6.901   3.853  13.973 -0.2330  1.9423  0.1977
 8619TIP3    H247349   6.765   3.896  14.024 -0.3755  2.1771 -0.3664
 8620TIP3   OH247350   4.854   5.624   4.062 -0.2404  0.5934  0.1549
 8620TIP3    H147351   4.808   5.645   4.143 -0.2334  0.4272  0.2028
 8620TIP3    H247352   4.793   5.570   4.012 -1.3640  2.9737 -1.1971
 8621TIP3   OH247353   5.915   3.972  13.225 -0.0239  0.3106  0.5386
 8621TIP3    H147354   5.927   3.905  13.158  0.9615 -0.2221  1.2149
 8621TIP3    H247355   5.861   3.930  13.292 -1.5317  1.0444 -0.1717
 8622TIP3   OH247356   6.255   5.394   0.564 -0.2032  0.1017 -0.5959
 8622TIP3    H147357   6.207   5.473   0.539  0.1366  0.0755 -1.3936
 8622TIP3    H247358   6.297   5.366   0.482 -0.9314 -1.3328 -0.5002
 8623TIP3   OH247359   4.041   1.512   6.186 -0.0616 -0.3194  0.2512
 8623TIP3    H147360   4.057   1.425   6.150 -0.0169 -0.1867 -0.0562
 8623TIP3    H247361   4.000   1.561   6.114 -0.6065 -0.2523  0.6019
 8624TIP3   OH247362   6.436   3.189   4.533  0.4125  0.1883 -0.2898
 8624TIP3    H147363   6.403   3.223   4.616  1.1006 -1.2012  0.5990
 8624TIP3    H247364   6.357   3.161   4.486  0.0609  0.2848  0.2308
 8625TIP3   OH247365   3.414   5.295   2.681  0.0902 -0.0770  0.9472
 8625TIP3    H147366   3.362   5.266   2.606  2.3092  1.5551 -1.3853
 8625TIP3    H247367   3.444   5.214   2.722  1.0247 -1.1075 -1.5768
 8626TIP3   OH247368   2.198   3.683  15.432 -0.0372 -0.0263 -0.1361
 8626TIP3    H147369   2.178   3.624  15.505  3.2459 -1.7624 -0.4628
 8626TIP3    H247370   2.161   3.640  15.355 -0.9451  0.3106  0.1019
 8627TIP3   OH247371   0.915   5.724  14.069  0.5488 -0.2083 -0.0237
 8627TIP3    H147372   0.910   5.819  14.079  2.0952  0.0990 -1.7216
 8627TIP3    H247373   0.825   5.694  14.084  0.1488  1.4130  1.1965
 8628TIP3   OH247374   6.592   4.165  13.258  0.1309  0.2466  0.8069
 8628TIP3    H147375   6.565   4.144  13.347 -0.1508 -0.5698  0.5333
 8628TIP3    H247376   6.677   4.208  13.269  0.7118 -1.0024  1.3990
 8629TIP3   OH247377   0.208   0.811  15.220 -0.4325 -0.9125  0.4019
 8629TIP3    H147378   0.290   0.800  15.173  0.1701  1.0370  0.9079
 8629TIP3    H247379   0.188   0.904  15.214 -3.7532 -1.5754 -1.5148
 8630TIP3   OH247380   3.081   6.764  16.543  0.2104  0.5265 -0.2350
 8630TIP3    H147381   3.174   6.755  16.564  0.6912  0.8853 -2.0486
 8630TIP3    H247382   3.040   6.687  16.581  1.3447  0.0503  0.0563
 8631TIP3   OH247383   5.628   6.297  11.130 -0.1210 -0.2402 -0.2802
 8631TIP3    H147384   5.608   6.245  11.052  0.4227  0.7334 -1.0894
 8631TIP3    H247385   5.717   6.329  11.115 -0.3055  0.6058  0.3765
 8632TIP3   OH247386   0.206   2.489  16.260  0.9978 -0.0961 -0.6578
 8632TIP3    H147387   0.249   2.552  16.317  0.3098  0.1646 -0.4093
 8632TIP3    H247388   0.138   2.449  16.315 -0.6137  1.1575 -1.6236
 8633TIP3   OH247389   1.644   0.714   3.014 -1.3282 -0.1269 -0.3637
 8633TIP3    H147390   1.673   0.640   2.961 -0.8938 -0.3143  0.1285
 8633TIP3    H247391   1.642   0.681   3.104 -1.1834  0.4395 -0.1449
 8634TIP3   OH247392   3.059   0.776  12.919  0.4073 -0.4869 -0.1146
 8634TIP3    H147393   3.041   0.808  12.831  0.5406 -1.6453 -0.5767
 8634TIP3    H247394   2.988   0.811  12.972 -0.5145 -0.9835 -0.9779
 8635TIP3   OH247395   0.096   3.312  14.207  0.3082 -0.0483  0.6559
 8635TIP3    H147396   0.100   3.298  14.112 -2.7769 -0.8633  0.5538
 8635TIP3    H247397   0.080   3.406  14.216  3.0917  0.5250  0.5744
 8636TIP3   OH247398   3.254   3.830   2.432 -0.8418 -0.6919  1.0387
 8636TIP3    H147399   3.196   3.754   2.428 -0.5872 -0.8604  0.3730
 8636TIP3    H247400   3.263   3.857   2.341  3.9991 -3.6415  0.2827
 8637TIP3   OH247401   3.706   6.068  16.814  0.2548  0.9387 -0.0097
 8637TIP3    H147402   3.802   6.075  16.813  0.3219  0.1561 -1.5406
 8637TIP3    H247403   3.680   6.117  16.892  1.9730  0.1957  1.1016
 8638TIP3   OH247404   4.613   5.041   3.242 -1.0178 -0.3169  0.1745
 8638TIP3    H147405   4.536   5.054   3.297  0.0888  2.3235  1.2648
 8638TIP3    H247406   4.600   5.099   3.167  0.4411  1.2292  1.0441
 8639TIP3   OH247407   3.464   5.549   5.076 -0.1331  0.0058 -0.0182
 8639TIP3    H147408   3.412   5.533   4.997  0.2417 -0.3310 -0.1960
 8639TIP3    H247409   3.550   5.573   5.044 -0.3652  1.3137  0.2603
 8640TIP3   OH247410   2.907   2.249   2.541  0.0464 -0.4040 -0.7537
 8640TIP3    H147411   2.889   2.209   2.627 -2.3708  1.4402 -0.2831
 8640TIP3    H247412   2.877   2.183   2.478 -2.5339 -0.0419 -0.0312
 8641TIP3   OH247413   2.793   4.131  14.767  0.0804 -0.8307 -0.1136
 8641TIP3    H147414   2.847   4.157  14.693  0.6488 -0.5231  0.4042
 8641TIP3    H247415   2.855   4.095  14.830 -0.5656 -2.6207 -0.4333
 8642TIP3   OH247416   6.188   0.358  11.103 -0.0934 -0.0785  0.2150
 8642TIP3    H147417   6.191   0.390  11.193  0.7386  0.3239  0.0515
 8642TIP3    H247418   6.101   0.320  11.094 -0.1762 -0.1452  1.1983
 8643TIP3   OH247419   4.759   4.367  16.246  0.4541 -0.0646 -0.0898
 8643TIP3    H147420   4.854   4.359  16.255  0.6090  0.6033 -1.0737
 8643TIP3    H247421   4.724   4.309  16.314  1.5485 -1.8956 -1.0065
 8644TIP3   OH247422   2.656   2.923  12.160 -0.2749 -0.0553 -0.1252
 8644TIP3    H147423   2.638   2.844  12.108  1.0156 -0.3495 -0.1474
 8644TIP3    H247424   2.750   2.936  12.153 -0.0285 -0.1575  2.2304
 8645TIP3   OH247425   5.095   6.228   0.583  0.0084 -0.8487  0.1529
 8645TIP3    H147426   5.058   6.165   0.520 -2.1099 -0.1222  0.5698
 8645TIP3    H247427   5.053   6.205   0.666 -0.1327  0.5580  0.4849
 8646TIP3   OH247428   3.186   5.903  14.099  0.2819  0.0081 -0.4335
 8646TIP3    H147429   3.237   5.961  14.155  0.6706  1.9361 -2.6004
 8646TIP3    H247430   3.128   5.962  14.051  0.5109 -1.3811 -2.5678
 8647TIP3   OH247431   6.783   3.897   2.972  0.2988 -0.0192 -0.6346
 8647TIP3    H147432   6.771   3.971   2.913  0.4329  1.6758  1.3307
 8647TIP3    H247433   6.846   3.841   2.927  1.7579  2.0737 -1.3591
 8648TIP3   OH247434   5.470   5.349   3.529  0.5457 -0.1744  0.4986
 8648TIP3    H147435   5.510   5.398   3.600 -0.5660  0.7867  0.5022
 8648TIP3    H247436   5.533   5.355   3.457  0.6320  0.9215  0.6436
 8649TIP3   OH247437   4.964   4.388   0.864 -0.0277  0.0172 -0.1361
 8649TIP3    H147438   4.914   4.379   0.945 -1.0621 -0.5325 -0.8224
 8649TIP3    H247439   5.029   4.318   0.868  0.3316  0.3723  0.4884
 8650TIP3   OH247440   5.877   3.655  15.276  0.5769  0.0224 -0.1321
 8650TIP3    H147441   5.942   3.725  15.285  1.3194 -0.8441  2.0661
 8650TIP3    H247442   5.881   3.629  15.184  2.3674  0.9283 -0.3544
 8651TIP3   OH247443   6.806   0.748  14.846 -0.0952 -0.3911 -0.2048
 8651TIP3    H147444   6.815   0.733  14.752  1.0298 -0.8516 -0.0463
 8651TIP3    H247445   6.818   0.661  14.885  0.3304 -0.0693  0.3993
 8652TIP3   OH247446   5.401   3.155   4.010  0.7715  0.3807  0.3319
 8652TIP3    H147447   5.375   3.247   4.009 -0.2993  0.1171 -1.6469
 8652TIP3    H247448   5.485   3.153   3.963  0.5472  0.3009 -0.0716
 8653TIP3   OH247449   6.476   1.550   4.245 -0.2532  0.2823 -0.0993
 8653TIP3    H147450   6.434   1.481   4.295 -1.1696  0.5322 -0.4850
 8653TIP3    H247451   6.431   1.630   4.272 -0.3686  0.4954 -0.8750
 8654TIP3   OH247452   2.499   1.285   3.299 -0.1301 -0.3435 -0.0442
 8654TIP3    H147453   2.469   1.217   3.240 -3.9041  1.0036  0.0615
 8654TIP3    H247454   2.436   1.285   3.371 -0.5171  3.3615 -0.1745
 8655TIP3   OH247455   5.735   3.673  14.255  0.1746 -0.2180  0.0830
 8655TIP3    H147456   5.655   3.621  14.260  0.4582 -0.5583  2.0946
 8655TIP3    H247457   5.718   3.749  14.312  1.4081 -0.5382  0.9286
 8656TIP3   OH247458   3.087   0.090   2.547 -0.1032 -0.3661 -0.0347
 8656TIP3    H147459   3.047   0.175   2.569 -0.5290 -1.0436  2.0510
 8656TIP3    H247460   3.020   0.026   2.571  0.7464 -1.3610 -0.2698
 8657TIP3   OH247461   6.734   2.100  14.036 -0.0952  0.2733 -0.1092
 8657TIP3    H147462   6.824   2.130  14.045 -0.6073  1.8098  0.1038
 8657TIP3    H247463   6.681   2.171  14.072 -1.3826 -0.7602  0.1120
 8658TIP3   OH247464   1.443   0.637  11.066 -0.4872  0.3465 -0.3374
 8658TIP3    H147465   1.427   0.546  11.038  0.8501  0.0776 -0.2725
 8658TIP3    H247466   1.457   0.685  10.985 -2.4486  0.7848 -0.4625
 8659TIP3   OH247467   0.907   6.605   4.550 -0.3038  0.2073 -0.0859
 8659TIP3    H147468   0.889   6.640   4.463 -0.1172  1.4048  0.3387
 8659TIP3    H247469   0.896   6.510   4.541  0.7059  0.2153 -1.6395
 8660TIP3   OH247470   0.317   0.139  11.486  0.0802 -0.0579 -0.0083
 8660TIP3    H147471   0.254   0.150  11.416  1.7303  0.0104 -1.5562
 8660TIP3    H247472   0.352   0.051  11.474 -0.7158 -0.6474  1.7211
 8661TIP3   OH247473   2.292   6.407  13.133 -0.0797  0.1598 -0.4345
 8661TIP3    H147474   2.255   6.319  13.138 -0.0746  0.2108  1.8814
 8661TIP3    H247475   2.382   6.397  13.164 -0.3450  1.0818  0.7005
 8662TIP3   OH247476   4.069   2.650  15.576  0.6481 -0.4867  0.0707
 8662TIP3    H147477   4.047   2.732  15.620  0.3834 -0.3522 -0.3037
 8662TIP3    H247478   4.045   2.665  15.485  0.8756 -0.8797 -0.0554
 8663TIP3   OH247479   0.857   1.042  13.911 -0.1002 -0.1035 -0.0054
 8663TIP3    H147480   0.930   1.010  13.964 -0.1637  1.4981  1.1199
 8663TIP3    H247481   0.877   1.011  13.822  1.7753  0.0108  0.3323
 8664TIP3   OH247482   1.020   3.874   0.266 -0.2884 -0.3425 -0.5774
 8664TIP3    H147483   0.977   3.789   0.269  0.6052 -0.8717 -1.9385
 8664TIP3    H247484   1.041   3.893   0.358 -0.9935 -1.3078 -0.1913
 8665TIP3   OH247485   0.671   1.113   3.814  0.0884  0.6210  0.4561
 8665TIP3    H147486   0.633   1.078   3.895  1.1723  0.5546  0.9615
 8665TIP3    H247487   0.765   1.096   3.823  0.1242 -0.4081 -1.3236
 8666TIP3   OH247488   4.982   3.080  15.831  0.1517 -0.1196  0.0373
 8666TIP3    H147489   4.950   3.002  15.786 -4.1880  1.3426  0.1736
 8666TIP3    H247490   4.971   3.151  15.767 -0.0284  1.0254  1.2941
 8667TIP3   OH247491   4.486   6.537   4.854 -0.2754 -0.0856 -0.4045
 8667TIP3    H147492   4.391   6.536   4.853 -0.2793  0.3458 -0.9191
 8667TIP3    H247493   4.511   6.554   4.764  0.2343  2.3193  0.1240
 8668TIP3   OH247494   2.367   1.555  17.047  0.5690  0.0343  0.4010
 8668TIP3    H147495   2.290   1.516  17.089  0.2208  0.8680  0.5555
 8668TIP3    H247496   2.440   1.500  17.074  0.2395  0.1307  1.5014
 8669TIP3   OH247497   6.204   4.158  13.248 -0.1219  0.1310  0.2274
 8669TIP3    H147498   6.207   4.175  13.342  1.6114  0.2268  0.1875
 8669TIP3    H247499   6.218   4.063  13.241 -1.9121 -0.1564  0.1091
 8670TIP3   OH247500   2.271   1.969   6.289  0.3438  0.5681  0.1571
 8670TIP3    H147501   2.367   1.963   6.297  0.2743  0.0730  0.6640
 8670TIP3    H247502   2.256   1.968   6.194  0.8371  0.5663  0.0729
 8671TIP3   OH247503   0.515   0.172  16.639 -0.0240  0.1970  0.3348
 8671TIP3    H147504   0.588   0.171  16.700 -1.1239  0.8389  1.7144
 8671TIP3    H247505   0.545   0.120  16.564  1.3049 -0.7401  1.4814
 8672TIP3   OH247506   4.301   3.667   2.527  0.7217  0.6594  0.4676
 8672TIP3    H147507   4.393   3.678   2.550  0.9871  1.8158 -0.9831
 8672TIP3    H247508   4.294   3.575   2.499  1.8449  0.9737 -0.9796
 8673TIP3   OH247509   2.973   2.794   0.966 -0.9576  0.1115 -0.0899
 8673TIP3    H147510   2.909   2.723   0.966 -2.1030  1.0487  1.6689
 8673TIP3    H247511   2.930   2.864   0.916 -0.8813  0.3800  0.2153
 8674TIP3   OH247512   5.466   6.445  12.895 -0.6567 -0.2658 -0.0485
 8674TIP3    H147513   5.539   6.386  12.912  0.4245  1.3998  1.4991
 8674TIP3    H247514   5.398   6.418  12.956  0.0818  0.4551  1.1271
 8675TIP3   OH247515   5.831   0.767   4.190  0.4205 -0.6404 -0.5794
 8675TIP3    H147516   5.811   0.798   4.101 -0.9938 -0.6845 -0.3015
 8675TIP3    H247517   5.813   0.673   4.188  1.0621 -0.7702 -0.4232
 8676TIP3   OH247518   4.162   3.578  10.820  0.3616 -0.0151 -0.1633
 8676TIP3    H147519   4.140   3.494  10.860 -0.9186  0.6394  0.5510
 8676TIP3    H247520   4.157   3.561  10.726  1.7907 -1.1507 -0.0645
 8677TIP3   OH247521   6.038   3.431  14.130 -0.0555 -0.2536  0.7301
 8677TIP3    H147522   6.021   3.499  14.195  0.7516 -0.1517  0.8467
 8677TIP3    H247523   5.952   3.393  14.111 -0.7775  1.8428 -0.5081
 8678TIP3   OH247524   3.414   4.705   2.000 -0.0617  0.1349  0.1932
 8678TIP3    H147525   3.379   4.741   1.918 -0.0564  0.5995  0.3925
 8678TIP3    H247526   3.339   4.702   2.059 -1.0198 -3.7459 -0.9305
 8679TIP3   OH247527   6.478   4.859  11.320 -0.0469  0.1907  0.2389
 8679TIP3    H147528   6.511   4.834  11.234  1.4892  1.6288  0.3686
 8679TIP3    H247529   6.449   4.777  11.359 -0.3454 -0.5508 -1.4532
 8680TIP3   OH247530   5.849   6.183   4.687 -0.3646 -0.1193 -0.4544
 8680TIP3    H147531   5.904   6.244   4.638  0.5724 -1.1468 -0.7236
 8680TIP3    H247532   5.905   6.149   4.756 -0.3571 -1.8151 -1.2327
 8681TIP3   OH247533   4.945   1.944  14.269  0.2523  0.0025 -0.1259
 8681TIP3    H147534   4.982   1.932  14.356 -0.2504  0.3112  0.1334
 8681TIP3    H247535   5.001   2.010  14.227 -1.8973  3.0525  1.4556
 8682TIP3   OH247536   6.813   2.964  15.738  0.2282 -0.1347  0.0808
 8682TIP3    H147537   6.802   2.927  15.825 -0.7578  1.3363  0.6058
 8682TIP3    H247538   6.733   2.941  15.691  0.5266 -0.4656 -0.2745
 8683TIP3   OH247539   4.617   5.753   2.772  0.1695 -0.3205  0.0889
 8683TIP3    H147540   4.678   5.806   2.720 -1.2013  1.0690 -0.1929
 8683TIP3    H247541   4.623   5.666   2.733  1.0016  0.0989 -0.7875
 8684TIP3   OH247542   1.132   0.225   0.289  0.0890 -0.2783  0.3713
 8684TIP3    H147543   1.186   0.154   0.255 -0.7430 -0.2762 -1.0317
 8684TIP3    H247544   1.091   0.189   0.367 -1.0907 -1.7329 -0.8456
 8685TIP3   OH247545   3.805   1.720  14.557 -0.2289  0.3374 -0.2675
 8685TIP3    H147546   3.899   1.723  14.538 -0.2462  1.4576 -0.2788
 8685TIP3    H247547   3.780   1.812  14.565 -1.5223  0.1000 -1.2299
 8686TIP3   OH247548   0.798   0.130  12.080 -0.1944 -0.0905 -0.4310
 8686TIP3    H147549   0.710   0.164  12.095  0.5714  1.6628  0.3795
 8686TIP3    H247550   0.839   0.193  12.020  0.4246 -1.0552 -1.0632
 8687TIP3   OH247551   1.651   1.023  15.224  0.1071  0.3763  0.2708
 8687TIP3    H147552   1.587   1.089  15.196  0.9372  0.4947 -1.5341
 8687TIP3    H247553   1.701   1.004  15.144  1.6301 -0.4780  1.3844
 8688TIP3   OH247554   2.072   3.459   6.833  0.2368  0.1608  0.2830
 8688TIP3    H147555   2.167   3.461   6.826  0.1873  0.9817 -0.1900
 8688TIP3    H247556   2.045   3.551   6.835 -0.6794 -0.0321 -1.4012
 8689TIP3   OH247557   0.549   1.218  10.954 -0.4347  0.4057  0.4403
 8689TIP3    H147558   0.586   1.240  11.039 -0.2303  1.7864  0.0197
 8689TIP3    H247559   0.580   1.287  10.895 -0.1437 -0.8017 -0.8755
 8690TIP3   OH247560   2.240   4.928  11.861  0.1947  0.1341 -0.1231
 8690TIP3    H147561   2.167   4.884  11.902 -0.6163 -1.1693 -2.7494
 8690TIP3    H247562   2.229   5.020  11.885 -2.0512 -0.0931 -0.0656
 8691TIP3   OH247563   4.407   0.863   1.759  0.2202  0.2160  0.2869
 8691TIP3    H147564   4.407   0.929   1.829 -1.1740 -1.3224  1.8276
 8691TIP3    H247565   4.497   0.860   1.729  0.3885  2.6311  0.3072
 8692TIP3   OH247566   5.831   2.187   6.237  0.1646  0.3852  0.0197
 8692TIP3    H147567   5.866   2.241   6.308  1.4150 -0.5399  0.1312
 8692TIP3    H247568   5.906   2.138   6.204 -0.7278 -0.4711 -0.8146
 8693TIP3   OH247569   5.372   6.348   2.426 -0.7144  0.0501  0.2371
 8693TIP3    H147570   5.396   6.336   2.518 -0.6922 -1.8682  0.0207
 8693TIP3    H247571   5.359   6.260   2.393 -2.4757  0.7785 -1.1597
 8694TIP3   OH247572   5.973   3.554   2.609  0.1703  0.1665 -0.2996
 8694TIP3    H147573   5.976   3.479   2.549 -0.9410  0.7152 -1.0912
 8694TIP3    H247574   6.056   3.551   2.655  1.1777 -0.1651 -2.0276
 8695TIP3   OH247575   2.972   3.884   0.792 -0.8098 -0.2414 -0.3463
 8695TIP3    H147576   2.928   3.886   0.877  0.5426 -0.1957  0.3764
 8695TIP3    H247577   2.992   3.791   0.777  0.1565 -0.1017  0.0365
 8696TIP3   OH247578   3.508   2.466  14.847  0.4880  0.4371  0.0265
 8696TIP3    H147579   3.603   2.468  14.864  0.5582  1.1018 -0.3925
 8696TIP3    H247580   3.471   2.423  14.924  1.0806  0.6931  0.4690
 8697TIP3   OH247581   4.224   4.832   1.100  0.5469 -0.0701  0.2226
 8697TIP3    H147582   4.276   4.780   1.161 -1.4012 -2.1089  0.2391
 8697TIP3    H247583   4.148   4.861   1.151  0.5332  1.0327 -0.3808
 8698TIP3   OH247584   4.658   6.219   4.273  0.3411 -0.0408 -0.2968
 8698TIP3    H147585   4.590   6.249   4.213 -0.1392  2.6161  1.4311
 8698TIP3    H247586   4.613   6.212   4.357  1.7370 -0.3622  0.4383
 8699TIP3   OH247587   4.597   3.628  15.848 -0.1322  0.6741 -0.0077
 8699TIP3    H147588   4.563   3.556  15.794  0.1347 -0.0888  0.8128
 8699TIP3    H247589   4.520   3.663  15.892 -0.1269  0.2075  0.3806
 8700TIP3   OH247590   4.166   2.035   1.527 -0.5526 -0.1117  0.0164
 8700TIP3    H147591   4.151   2.013   1.619 -1.7233  1.8703  0.3608
 8700TIP3    H247592   4.081   2.026   1.486 -0.0270 -1.0230 -0.9048
 8701TIP3   OH247593   2.105   3.982   5.323  0.3939  0.5017  0.3567
 8701TIP3    H147594   2.091   3.907   5.381  2.6398  0.5581  1.0770
 8701TIP3    H247595   2.158   3.947   5.252  2.8366  1.6343  1.5082
 8702TIP3   OH247596   0.883   4.311  10.951 -0.2498 -0.3471  0.1616
 8702TIP3    H147597   0.825   4.287  10.879  0.3269 -1.8751  0.1664
 8702TIP3    H247598   0.944   4.237  10.958  1.0131  0.7254  0.8574
 8703TIP3   OH247599   4.199   1.506  15.104 -0.1265  0.4815 -0.0652
 8703TIP3    H147600   4.186   1.531  15.195 -0.9000 -0.9013  0.2375
 8703TIP3    H247601   4.216   1.411  15.108  1.9468  0.7361 -1.1845
 8704TIP3   OH247602   1.305   5.351  11.305 -0.6327  0.6831  0.1283
 8704TIP3    H147603   1.240   5.410  11.266 -0.2060  0.9699 -0.1627
 8704TIP3    H247604   1.382   5.406  11.317 -0.4166  0.3232  0.3937
 8705TIP3   OH247605   1.281   2.247   1.698  0.2912  0.4733  0.3466
 8705TIP3    H147606   1.195   2.212   1.676 -0.4117 -0.1380  3.6464
 8705TIP3    H247607   1.339   2.171   1.697  0.1840  0.3818  0.9002
 8706TIP3   OH247608   5.421   2.434  11.274  0.1416  0.3727 -0.5477
 8706TIP3    H147609   5.374   2.516  11.288 -0.8621  0.0776 -1.9269
 8706TIP3    H247610   5.497   2.458  11.220 -1.9032  0.0541 -3.8513
 8707TIP3   OH247611   6.830   4.618   4.201 -0.0263  0.0398 -0.0518
 8707TIP3    H147612   6.764   4.597   4.267  0.4751 -0.4343  0.3076
 8707TIP3    H247613   6.905   4.563   4.224  1.1708  1.8762  0.6233
 8708TIP3   OH247614   4.915   5.967   1.554  0.0241 -0.0091 -0.2378
 8708TIP3    H147615   4.945   6.039   1.610  1.9561  0.2236 -1.4951
 8708TIP3    H247616   4.884   5.901   1.616  1.4378  0.5244  1.1237
 8709TIP3   OH247617   2.976   3.796  12.663  0.0379 -0.1711  0.4323
 8709TIP3    H147618   2.958   3.725  12.725 -0.2825  0.2559  0.8292
 8709TIP3    H247619   2.926   3.772  12.585  0.7249 -0.8915  0.1997
 8710TIP3   OH247620   2.793   6.149   4.988  1.2727 -0.5993  0.1362
 8710TIP3    H147621   2.832   6.236   4.998  0.1621 -0.1229  0.5854
 8710TIP3    H247622   2.699   6.165   4.999  1.1772 -2.0903  1.8490
 8711TIP3   OH247623   3.714   0.007  11.709 -0.6190  0.2710 -0.0778
 8711TIP3    H147624   3.712   0.102  11.696  0.5813  0.2043 -0.8891
 8711TIP3    H247625   3.642  -0.026  11.655  0.5509  0.5298 -1.8669
 8712TIP3   OH247626   3.715   5.827   0.079  0.2479 -0.6959 -0.3513
 8712TIP3    H147627   3.674   5.839  -0.007  1.0551 -0.4403 -0.7116
 8712TIP3    H247628   3.784   5.763   0.063  0.5759 -0.4406  0.0568
 8713TIP3   OH247629   1.071   1.556   1.196 -0.5534  0.7496 -0.5304
 8713TIP3    H147630   1.132   1.485   1.176 -0.0578  0.4154  1.9353
 8713TIP3    H247631   1.127   1.630   1.220 -1.1109  1.0690 -0.2028
 8714TIP3   OH247632   6.799   5.844  11.779  0.3838  0.0936 -0.3286
 8714TIP3    H147633   6.719   5.822  11.731 -0.6482 -0.6670  1.6252
 8714TIP3    H247634   6.863   5.780  11.748  0.6036  1.3293 -2.6472
 8715TIP3   OH247635   4.124   1.815   3.981  0.1328  0.1176 -0.0621
 8715TIP3    H147636   4.060   1.744   3.984  0.3066  0.0062  1.2428
 8715TIP3    H247637   4.208   1.772   3.991  0.2093  0.5466  1.2001
 8716TIP3   OH247638   4.683   5.953   4.362  0.2529  0.0172  0.0683
 8716TIP3    H147639   4.613   5.986   4.419 -1.0801  2.2211 -2.5994
 8716TIP3    H247640   4.735   6.030   4.340  2.0091 -1.1410 -0.0996
 8717TIP3   OH247641   2.686   6.244   0.620 -0.1941 -0.5171  0.3090
 8717TIP3    H147642   2.750   6.283   0.559 -2.6709  2.4842 -0.6335
 8717TIP3    H247643   2.609   6.227   0.566 -2.1094  1.2451  2.2909
 8718TIP3   OH247644   5.267   0.410  14.028  0.2585  0.0320  0.2812
 8718TIP3    H147645   5.173   0.392  14.024  0.0788  1.0504 -0.4528
 8718TIP3    H247646   5.292   0.432  13.938  0.6594  2.2130  0.8552
 8719TIP3   OH247647   2.844   1.648   4.820 -0.2524  0.7772  0.6534
 8719TIP3    H147648   2.769   1.707   4.823 -0.9986  0.0444 -1.6524
 8719TIP3    H247649   2.806   1.561   4.837 -0.1201  0.3117 -1.1846
 8720TIP3   OH247650   0.460   5.876  14.551  0.0604  0.5005  0.1812
 8720TIP3    H147651   0.384   5.827  14.581  0.6355  0.2871  1.3400
 8720TIP3    H247652   0.533   5.841  14.602  0.8079  1.2469 -0.3435
 8721TIP3   OH247653   0.686   5.876   4.676  0.7024  0.2650  0.1918
 8721TIP3    H147654   0.650   5.957   4.710  0.3997  0.2099  0.0060
 8721TIP3    H247655   0.777   5.874   4.708  0.7058  0.6663  0.2055
 8722TIP3   OH247656   0.567   5.020   0.300 -0.0436  0.0277  0.0654
 8722TIP3    H147657   0.659   4.995   0.305 -0.6799 -2.4815  0.1817
 8722TIP3    H247658   0.558   5.090   0.365  2.0522  1.3986 -1.0078
 8723TIP3   OH247659   0.293   2.756   2.138  0.4975  0.5155 -0.2795
 8723TIP3    H147660   0.307   2.762   2.044  0.2938  1.7999 -0.2438
 8723TIP3    H247661   0.211   2.709   2.147  1.1650 -0.7866 -0.6860
 8724TIP3   OH247662   0.475   3.227   1.153  0.3054  0.0125 -0.0425
 8724TIP3    H147663   0.553   3.180   1.182  0.4535 -0.6304 -1.4059
 8724TIP3    H247664   0.472   3.213   1.058 -1.2418  0.3608 -0.0760
 8725TIP3   OH247665   3.008   6.426  14.912 -0.4953  0.0778 -0.3232
 8725TIP3    H147666   3.056   6.355  14.871  0.1961  0.7652 -0.7201
 8725TIP3    H247667   3.056   6.505  14.889  0.0937  0.4781  2.0450
 8726TIP3   OH247668   3.801   1.662  14.172 -0.3581 -0.3987 -0.0921
 8726TIP3    H147669   3.708   1.672  14.149  0.1528 -0.5031 -2.4058
 8726TIP3    H247670   3.814   1.567  14.175 -0.4948 -0.3965  1.1346
 8727TIP3   OH247671   5.893   6.851  15.671 -0.2745 -0.4701  0.1134
 8727TIP3    H147672   5.821   6.906  15.703 -0.8556 -0.9048 -0.4208
 8727TIP3    H247673   5.955   6.849  15.744 -0.6411  0.1929  0.4566
 8728TIP3   OH247674   4.432   5.447   2.417 -0.1321  0.3050 -0.3198
 8728TIP3    H147675   4.363   5.462   2.353  0.0965  0.9117 -0.4244
 8728TIP3    H247676   4.433   5.352   2.429 -2.1365  0.3902  0.9617
 8729TIP3   OH247677   2.358   1.352  10.925 -0.0499  0.1297 -0.3789
 8729TIP3    H147678   2.308   1.382  11.001  0.1251  2.1973 -1.0173
 8729TIP3    H247679   2.316   1.395  10.850  0.7324 -0.6346 -1.2743
 8730TIP3   OH247680   5.157   5.982   4.653  0.0034  0.1321  0.1029
 8730TIP3    H147681   5.148   6.075   4.632 -0.7119  0.4333  1.5867
 8730TIP3    H247682   5.092   5.939   4.599 -0.7382  0.6900  0.5347
 8731TIP3   OH247683   4.023   1.722   4.284  0.0063  0.3401 -0.0016
 8731TIP3    H147684   4.006   1.721   4.190  2.2519 -0.4310 -0.4771
 8731TIP3    H247685   3.982   1.802   4.316 -2.7869 -0.5142 -1.1660
 8732TIP3   OH247686   0.820   5.278   2.052  0.0238  0.2678  0.2333
 8732TIP3    H147687   0.886   5.334   2.093  0.8442 -0.6829  0.2347
 8732TIP3    H247688   0.794   5.325   1.973  0.9903  0.4591  0.0252
 8733TIP3   OH247689   1.851   2.484  14.529  0.0751  0.2606 -0.6832
 8733TIP3    H147690   1.842   2.578  14.546  0.9924  0.1998  0.2760
 8733TIP3    H247691   1.946   2.470  14.525 -0.0634 -0.5418 -1.3438
 8734TIP3   OH247692   1.742   5.239  11.854 -0.4233 -0.8446  0.3379
 8734TIP3    H147693   1.724   5.215  11.764 -1.5920  0.1708  0.2674
 8734TIP3    H247694   1.787   5.324  11.848  1.0372 -1.5687  0.6661
 8735TIP3   OH247695   4.056   5.046  14.566 -0.1572 -0.0882  0.1534
 8735TIP3    H147696   3.961   5.060  14.568 -0.0934  0.2892  0.6168
 8735TIP3    H247697   4.091   5.126  14.528 -0.2383 -1.4653 -3.2137
 8736TIP3   OH247698   0.673   1.794   2.368 -0.4321  0.1031 -0.1273
 8736TIP3    H147699   0.593   1.743   2.383  0.1484 -0.7224  0.2301
 8736TIP3    H247700   0.646   1.885   2.381 -1.7397  0.0136 -1.8143
 8737TIP3   OH247701   4.354   0.482   0.741  0.5050  0.0626 -0.4022
 8737TIP3    H147702   4.357   0.423   0.665 -0.4243  0.2204 -0.5722
 8737TIP3    H247703   4.440   0.472   0.782  0.1728 -1.8792 -0.0814
 8738TIP3   OH247704   0.544   5.666  11.414 -0.0622  0.2919 -0.0516
 8738TIP3    H147705   0.469   5.680  11.356 -1.0229  0.4941  1.1922
 8738TIP3    H247706   0.605   5.735  11.390 -0.8316  0.9360 -0.2046
 8739TIP3   OH247707   0.603   3.108   3.185 -0.5839  0.0553  0.0847
 8739TIP3    H147708   0.555   3.077   3.107 -0.1786 -1.7272  0.4918
 8739TIP3    H247709   0.540   3.100   3.256 -0.3574 -0.2084  0.2576
 8740TIP3   OH247710   4.437   3.383  14.683  0.1335 -0.2594 -0.7475
 8740TIP3    H147711   4.347   3.389  14.651  0.3060 -0.8001 -1.3765
 8740TIP3    H247712   4.491   3.406  14.608  0.6045 -3.2313 -1.4781
 8741TIP3   OH247713   0.132   2.213  14.083  0.2125  0.3695 -0.2676
 8741TIP3    H147714   0.107   2.262  14.161 -0.5781 -0.1590 -0.1836
 8741TIP3    H247715   0.225   2.234  14.070  0.1842  0.9591  0.4397
 8742TIP3   OH247716   2.119   4.754   4.806 -0.7809 -0.4629 -0.0617
 8742TIP3    H147717   2.040   4.806   4.824 -0.1421  0.8009 -0.7208
 8742TIP3    H247718   2.155   4.793   4.726  0.0245 -1.6053 -0.2747
 8743TIP3   OH247719   4.112   2.318   5.777  0.0044  0.3682  0.2538
 8743TIP3    H147720   4.052   2.373   5.725 -0.0426  0.0927  0.0163
 8743TIP3    H247721   4.061   2.295   5.854 -0.1773  0.1840  0.0804
 8744TIP3   OH247722   4.169   3.011  15.219  0.3821 -0.2908 -0.1838
 8744TIP3    H147723   4.233   3.074  15.187  0.5803  0.3595  1.4212
 8744TIP3    H247724   4.222   2.937  15.249  0.1802 -1.0238 -1.5370
 8745TIP3   OH247725   2.859   2.817  13.196 -0.2430  0.1314 -0.6135
 8745TIP3    H147726   2.842   2.732  13.157 -0.3952  0.0388 -0.3536
 8745TIP3    H247727   2.948   2.839  13.170  0.0914 -0.4775 -0.0201
 8746TIP3   OH247728   3.989   0.291  13.776  0.2835 -0.2010 -0.1742
 8746TIP3    H147729   4.035   0.361  13.729 -0.5071 -0.2522 -1.0573
 8746TIP3    H247730   4.049   0.216  13.772 -0.1668 -0.5137 -2.0219
 8747TIP3   OH247731   3.130   3.920   5.307  0.0610  0.2786 -0.6902
 8747TIP3    H147732   3.198   3.878   5.254  1.5582  1.6747  0.0372
 8747TIP3    H247733   3.134   4.013   5.281  1.0219  1.0683  1.9759
 8748TIP3   OH247734   1.796   0.188   1.207 -0.2959  0.2776 -0.2130
 8748TIP3    H147735   1.875   0.234   1.179 -0.4049  0.0523 -0.8937
 8748TIP3    H247736   1.817   0.157   1.296 -0.5889  2.4880  0.6910
 8749TIP3   OH247737   0.859   0.956  11.035 -0.5752 -0.0916  0.1259
 8749TIP3    H147738   0.923   1.026  11.021  0.0047 -0.5899  0.2685
 8749TIP3    H247739   0.857   0.944  11.130 -0.7655 -0.1893  0.1097
 8750TIP3   OH247740   3.523   6.101  15.390 -0.1314 -0.3983 -0.1537
 8750TIP3    H147741   3.466   6.026  15.406 -1.2694  0.6634  1.0256
 8750TIP3    H247742   3.597   6.089  15.450  0.1268 -0.9999 -0.5855
 8751TIP3   OH247743   1.216   4.689   4.142  0.3857 -0.6739 -0.1024
 8751TIP3    H147744   1.278   4.749   4.184 -2.6232  0.7653  2.6980
 8751TIP3    H247745   1.190   4.734   4.061  1.0318 -0.0845  0.0071
 8752TIP3   OH247746   4.154   5.663   3.087  0.1833 -0.1960 -0.0079
 8752TIP3    H147747   4.080   5.630   3.036 -0.7000 -0.1542  1.2044
 8752TIP3    H247748   4.228   5.611   3.057 -0.5993 -1.1896 -0.2827
 8753TIP3   OH247749   4.425   0.436   3.914  0.0101 -0.4040  0.4910
 8753TIP3    H147750   4.410   0.369   3.981 -1.6078  0.1714  0.7614
 8753TIP3    H247751   4.409   0.519   3.959  1.4987  0.1566  0.0347
 8754TIP3   OH247752   6.527   3.215   2.146 -0.4118  0.4724 -0.3385
 8754TIP3    H147753   6.505   3.152   2.215  1.9839 -1.0098 -0.8352
 8754TIP3    H247754   6.454   3.209   2.084 -0.3310 -1.7441 -0.2859
 8755TIP3   OH247755   3.897   6.019  16.295 -0.2064  0.1988  0.0227
 8755TIP3    H147756   3.819   6.005  16.241 -1.3452  0.7647  1.4515
 8755TIP3    H247757   3.941   6.093  16.255 -1.5841  1.2654  0.4039
 8756TIP3   OH247758   5.299   0.285  12.364  0.4195 -0.2629 -0.6910
 8756TIP3    H147759   5.390   0.303  12.340  0.0147  0.4522 -1.7544
 8756TIP3    H247760   5.248   0.321  12.291 -1.0040  3.4548  1.8438
 8757TIP3   OH247761   5.329   5.557  12.325  0.0979  0.7956  0.5666
 8757TIP3    H147762   5.347   5.650  12.319 -1.1140  1.0508  0.6004
 8757TIP3    H247763   5.397   5.516  12.272  0.3965  1.7273  0.2070
 8758TIP3   OH247764   5.207   2.117   0.412  0.1957  0.0624 -0.5527
 8758TIP3    H147765   5.303   2.119   0.415  0.3000 -2.3044  0.1774
 8758TIP3    H247766   5.182   2.205   0.385  2.5161  1.1206  0.4604
 8759TIP3   OH247767   5.959   2.314  13.231 -0.0444 -0.2859 -0.3485
 8759TIP3    H147768   5.919   2.292  13.147  0.8947  1.9060 -1.4443
 8759TIP3    H247769   6.048   2.340  13.209  0.4049 -0.2095  1.4218
 8760TIP3   OH247770   3.931   0.668   1.402  0.1264  0.1471 -0.2003
 8760TIP3    H147771   3.848   0.660   1.449  0.3710 -1.1937  0.0517
 8760TIP3    H247772   3.936   0.587   1.350  2.0444 -0.6073  1.0661
 8761TIP3   OH247773   6.581   1.487  11.115  0.5273 -0.2266 -0.2709
 8761TIP3    H147774   6.526   1.481  11.037 -0.0570  2.3757 -0.1578
 8761TIP3    H247775   6.646   1.417  11.104  0.7760  0.3319 -3.3547
 8762TIP3   OH247776   5.514   0.248  14.596  0.2349 -0.0819 -0.2354
 8762TIP3    H147777   5.531   0.322  14.538  0.9274  0.3895  0.5434
 8762TIP3    H247778   5.420   0.235  14.592  0.3265 -0.3583 -1.8125
 8763TIP3   OH247779   4.029   3.387  12.648  0.0064  0.0730  0.3968
 8763TIP3    H147780   4.074   3.446  12.587  1.2620 -0.4008  0.8311
 8763TIP3    H247781   4.021   3.438  12.729 -0.6665  0.3193  0.1775
 8764TIP3   OH247782   4.644   6.607  17.132 -0.6619  0.2546  0.1741
 8764TIP3    H147783   4.737   6.610  17.158 -1.4064  0.6798  3.1603
 8764TIP3    H247784   4.628   6.693  17.092 -0.3791  1.4044  2.3412
 8765TIP3   OH247785   0.403   3.940  16.189  0.3579 -0.1508  0.0686
 8765TIP3    H147786   0.313   3.909  16.198  0.4795 -0.7392 -0.6983
 8765TIP3    H247787   0.399   4.034  16.211 -0.3916 -0.2310  0.2700
 8766TIP3   OH247788   4.302   2.819  15.784  0.3187 -0.1383 -0.3454
 8766TIP3    H147789   4.232   2.782  15.838 -0.1062  0.3564 -0.5444
 8766TIP3    H247790   4.259   2.840  15.701  0.6565  0.3630 -0.3956
 8767TIP3   OH247791   3.284   0.334  11.854  0.0805 -0.2249 -0.3764
 8767TIP3    H147792   3.252   0.356  11.767  1.0001  1.8720 -0.2277
 8767TIP3    H247793   3.246   0.401  11.911  0.1045 -1.1185  0.7199
 8768TIP3   OH247794   5.555   4.199  11.556 -0.2656  0.2930  0.7697
 8768TIP3    H147795   5.489   4.247  11.504  1.4631 -0.3470 -2.2877
 8768TIP3    H247796   5.525   4.108  11.553 -0.2458  0.2793  1.0394
 8769TIP3   OH247797   6.826   4.528  16.312 -0.1568  0.1952  0.3159
 8769TIP3    H147798   6.781   4.596  16.263  0.2008  0.6993  0.6753
 8769TIP3    H247799   6.774   4.449  16.297 -0.0949  0.3500 -0.8102
 8770TIP3   OH247800   3.822   4.609  13.109  0.2294 -0.3602 -0.0508
 8770TIP3    H147801   3.905   4.631  13.152 -0.8195 -0.3561  2.1169
 8770TIP3    H247802   3.764   4.583  13.181 -1.8133  0.1259 -1.4354
 8771TIP3   OH247803   3.808   6.745  13.836 -0.3109 -0.2434  0.3686
 8771TIP3    H147804   3.725   6.791  13.822 -0.3639  0.2251  2.0016
 8771TIP3    H247805   3.796   6.660  13.794 -0.2306  1.1345 -2.6896
 8772TIP3   OH247806   3.637   1.675   3.649 -0.6253 -0.0788  0.0260
 8772TIP3    H147807   3.602   1.751   3.694 -0.2334 -0.0320  0.2580
 8772TIP3    H247808   3.685   1.627   3.716 -0.0614 -0.0264 -0.3298
 8773TIP3   OH247809   0.617   4.391  12.561 -0.9748 -0.6689  0.1808
 8773TIP3    H147810   0.645   4.392  12.652 -2.4007  0.7145  0.6496
 8773TIP3    H247811   0.682   4.444  12.515 -2.1205  1.6556  1.0745
 8774TIP3   OH247812   5.692   6.620   2.852  0.2618  0.1095 -0.8623
 8774TIP3    H147813   5.618   6.664   2.895  0.0978 -0.5220 -0.4838
 8774TIP3    H247814   5.704   6.668   2.770  0.4377  1.1975 -0.2151
 8775TIP3   OH247815   2.349   2.303  13.099  0.0271  0.3115  0.7069
 8775TIP3    H147816   2.270   2.250  13.106  0.7099 -0.7889  0.3232
 8775TIP3    H247817   2.344   2.364  13.172 -0.6283 -0.4958  1.3484
 8776TIP3   OH247818   0.755   4.163   2.279 -0.1560 -0.3119 -0.0675
 8776TIP3    H147819   0.793   4.093   2.333 -0.6355 -0.5349 -0.0210
 8776TIP3    H247820   0.730   4.119   2.198 -1.4982 -0.4266  0.3929
 8777TIP3   OH247821   3.407   6.706   3.297  0.1228  0.0600 -0.2771
 8777TIP3    H147822   3.314   6.701   3.274  0.0688 -1.4090  0.1421
 8777TIP3    H247823   3.451   6.650   3.233  0.7793  1.0577 -0.7139
 8778TIP3   OH247824   1.948   5.171   1.248 -0.2929  0.2694 -0.0447
 8778TIP3    H147825   1.868   5.131   1.214 -0.8985  1.2914  0.1429
 8778TIP3    H247826   1.918   5.232   1.316  0.7029  0.1264  0.5471
 8779TIP3   OH247827   1.382   6.586  10.706 -0.1016  0.4760 -0.3302
 8779TIP3    H147828   1.332   6.528  10.649 -2.2626  1.9230 -0.0365
 8779TIP3    H247829   1.390   6.667  10.657 -0.3689  1.1299  0.6682
 8780TIP3   OH247830   2.918   0.536   3.785  0.2189  0.2663  0.2549
 8780TIP3    H147831   2.944   0.540   3.877  2.2066 -0.3919 -0.2371
 8780TIP3    H247832   2.985   0.482   3.743 -1.5680 -0.8674 -1.2887
 8781TIP3   OH247833   3.555   4.200  15.501  0.4524  0.4646  0.7149
 8781TIP3    H147834   3.615   4.230  15.569 -0.4746 -1.6654  2.6365
 8781TIP3    H247835   3.503   4.132  15.544 -0.6497 -0.5380 -1.9870
 8782TIP3   OH247836   3.104   6.049   5.432  0.5372 -0.4784 -0.1668
 8782TIP3    H147837   3.159   6.106   5.487 -0.4487 -1.1170  1.5538
 8782TIP3    H247838   3.163   5.979   5.405  1.2920  0.3666 -0.7944
 8783TIP3   OH247839   4.274   3.093   3.516  0.2152  0.2511  0.4091
 8783TIP3    H147840   4.239   3.169   3.562 -0.3584  0.8135 -0.9161
 8783TIP3    H247841   4.230   3.093   3.431  4.3005  1.7844 -2.0067
 8784TIP3   OH247842   2.917   5.757  16.595 -0.3269  0.0643 -0.3595
 8784TIP3    H147843   2.896   5.841  16.554 -0.4899  0.4075  0.3929
 8784TIP3    H247844   2.846   5.699  16.569 -0.9849  0.5626  0.2565
 8785TIP3   OH247845   5.804   6.647   5.645 -0.5811 -0.3443  0.1455
 8785TIP3    H147846   5.785   6.622   5.555  0.1432 -0.6768  0.0817
 8785TIP3    H247847   5.899   6.656   5.648 -0.5942 -0.4257  0.9033
 8786TIP3   OH247848   3.365   1.765   0.272 -0.4661  0.2634 -0.9031
 8786TIP3    H147849   3.316   1.683   0.266  1.7981 -1.2039 -0.6692
 8786TIP3    H247850   3.435   1.746   0.334 -0.3378  2.6646 -0.2371
 8787TIP3   OH247851   0.895   5.006   4.045 -0.4508 -0.1099  0.3607
 8787TIP3    H147852   0.941   4.939   3.996 -0.0302  0.0320  0.5598
 8787TIP3    H247853   0.941   5.087   4.026 -0.2417 -0.0644  1.0339
 8788TIP3   OH247854   4.544   3.932   5.170 -0.5740 -0.1638 -0.3497
 8788TIP3    H147855   4.581   4.017   5.148 -0.8672  0.1901  0.5021
 8788TIP3    H247856   4.454   3.951   5.198 -1.5157 -1.0098 -2.5360
 8789TIP3   OH247857   0.382   2.028  12.482 -0.4988  0.2512  0.0336
 8789TIP3    H147858   0.464   1.989  12.453 -0.4416 -0.2228  0.8108
 8789TIP3    H247859   0.321   2.012  12.410 -0.2013 -0.3670 -0.0858
 8790TIP3   OH247860   1.973   0.575   6.138 -0.0625  0.2641  0.2002
 8790TIP3    H147861   1.927   0.541   6.061  1.6600 -1.2364 -0.2446
 8790TIP3    H247862   1.968   0.504   6.202  3.3008 -0.8899 -0.6150
 8791TIP3   OH247863   6.194   5.180  11.761 -0.3700 -0.2737 -0.0750
 8791TIP3    H147864   6.265   5.125  11.731 -0.0771  0.7132 -1.2966
 8791TIP3    H247865   6.190   5.251  11.697  0.3475  2.0419  2.2383
 8792TIP3   OH247866   2.555   6.821   3.676 -0.2282  0.3441 -0.0108
 8792TIP3    H147867   2.629   6.882   3.683  0.1545 -0.1169  0.0481
 8792TIP3    H247868   2.575   6.768   3.599  0.6926 -1.3295  1.3141
 8793TIP3   OH247869   1.382   6.702  14.757 -0.1270 -0.6366  0.4184
 8793TIP3    H147870   1.453   6.737  14.704  0.4991 -0.1981  1.5131
 8793TIP3    H247871   1.304   6.715  14.704  0.4809 -0.2511 -0.4087
 8794TIP3   OH247872   5.838   6.228  15.512  0.3840  0.2163 -0.5687
 8794TIP3    H147873   5.915   6.172  15.502  0.7366  1.1040 -4.4013
 8794TIP3    H247874   5.837   6.281  15.432 -1.9620  3.1352  1.2099
 8795TIP3   OH247875   6.719   1.995  12.019 -0.5121 -0.2624  0.1806
 8795TIP3    H147876   6.748   2.036  11.938  1.9775  0.5387  1.3704
 8795TIP3    H247877   6.636   2.038  12.039 -0.5716  0.3852 -1.3082
 8796TIP3   OH247878   1.703   6.421  16.317 -0.9585  0.4050 -0.2546
 8796TIP3    H147879   1.627   6.472  16.344 -1.3384 -0.1785 -0.2053
 8796TIP3    H247880   1.666   6.345  16.272 -0.4718 -0.7639  1.2515
 8797TIP3   OH247881   6.794   4.500  13.997 -0.5843  0.3550 -0.2469
 8797TIP3    H147882   6.823   4.583  14.033 -0.4940  1.4942 -2.7288
 8797TIP3    H247883   6.874   4.451  13.979 -0.6382 -1.6870  3.9014
 8798TIP3   OH247884   3.310   0.028   2.367 -0.5089 -0.1258 -0.4529
 8798TIP3    H147885   3.392   0.062   2.402 -0.2044 -0.9100 -0.3770
 8798TIP3    H247886   3.242   0.077   2.412 -0.0917 -0.0024  0.0492
 8799TIP3   OH247887   0.232   4.977  10.833  0.4059  0.1434  0.4436
 8799TIP3    H147888   0.229   4.923  10.754  0.5330 -2.6554  2.2117
 8799TIP3    H247889   0.187   5.058  10.808  1.2468 -0.2062 -2.7170
 8800TIP3   OH247890   0.385   4.326   1.900 -0.0046  0.4166  0.2301
 8800TIP3    H147891   0.452   4.390   1.880 -0.3987  0.8179  0.1737
 8800TIP3    H247892   0.317   4.376   1.946 -0.5239  0.1421 -0.2224
 8801TIP3   OH247893   4.070   3.664   6.582 -0.2267 -0.1228  0.1058
 8801TIP3    H147894   4.122   3.735   6.619 -0.2772  0.0444 -0.1508
 8801TIP3    H247895   4.098   3.586   6.631  2.6092 -0.6622 -2.1462
 8802TIP3   OH247896   6.242   2.546  13.534  0.1202  0.5200 -0.0063
 8802TIP3    H147897   6.170   2.541  13.471  0.2373  0.3835 -0.1309
 8802TIP3    H247898   6.209   2.601  13.604 -0.5531 -0.5133  0.5101
 8803TIP3   OH247899   4.837   2.402  14.148 -0.1179  0.0648  0.1178
 8803TIP3    H147900   4.882   2.350  14.082  0.3138 -0.7812  1.0439
 8803TIP3    H247901   4.752   2.358  14.159 -0.0824  0.0452  0.3125
 8804TIP3   OH247902   2.711   3.720   1.838 -0.6931 -0.8011 -0.2267
 8804TIP3    H147903   2.749   3.806   1.857 -0.4303 -1.2174  1.2514
 8804TIP3    H247904   2.786   3.661   1.832 -0.9683 -1.2803  0.7900
 8805TIP3   OH247905   0.139   5.897  15.359 -0.0630 -0.9004 -0.4685
 8805TIP3    H147906   0.097   5.825  15.407 -1.5503  1.2598  1.6606
 8805TIP3    H247907   0.227   5.902  15.395 -0.7871 -0.0606  1.2870
 8806TIP3   OH247908   1.605   0.046   0.889 -0.5850  0.7004  0.2805
 8806TIP3    H147909   1.572  -0.000   0.812  2.0795  1.0594 -1.1930
 8806TIP3    H247910   1.537   0.034   0.955 -2.9870  0.3330 -2.0705
 8807TIP3   OH247911   1.948   0.450   4.381  0.0261 -0.0561  0.1910
 8807TIP3    H147912   1.990   0.535   4.366  0.4871 -0.4335 -0.8040
 8807TIP3    H247913   1.897   0.436   4.301  1.6250 -1.6487 -0.6245
 8808TIP3   OH247914   2.282   1.917  12.022  0.0270  0.6909  0.1800
 8808TIP3    H147915   2.263   1.979  12.092 -1.1344 -1.8407  2.2686
 8808TIP3    H247916   2.217   1.936  11.954  1.3351  3.3567 -0.4624
 8809TIP3   OH247917   1.614   4.908  12.511 -0.0907  0.3644 -0.3258
 8809TIP3    H147918   1.553   4.856  12.565  0.2130  0.7376  0.3967
 8809TIP3    H247919   1.699   4.866  12.523 -0.2244 -0.2751 -1.4964
 8810TIP3   OH247920   6.557   1.340   5.369  0.0319  0.1859 -0.0297
 8810TIP3    H147921   6.567   1.352   5.464 -0.4885  0.3385  0.0102
 8810TIP3    H247922   6.630   1.389   5.331 -1.8395  3.4409  0.1393
 8811TIP3   OH247923   3.752   3.918   1.020 -0.2806 -0.2539 -0.0484
 8811TIP3    H147924   3.713   4.004   1.004  1.0186  0.6578  1.3776
 8811TIP3    H247925   3.694   3.876   1.083 -0.3798  0.0170  0.0435
 8812TIP3   OH247926   4.478   3.597  14.452 -0.3146  0.7712 -0.0136
 8812TIP3    H147927   4.496   3.658  14.380 -3.1499 -0.0028 -1.5376
 8812TIP3    H247928   4.448   3.653  14.524 -2.0628  1.3256 -1.1037
 8813TIP3   OH247929   3.141   6.790  12.593 -0.2164  0.2530  0.3530
 8813TIP3    H147930   3.212   6.726  12.592  0.5265  1.0465  0.7532
 8813TIP3    H247931   3.145   6.831  12.507  0.6907  1.2137  0.8303
 8814TIP3   OH247932   2.159   5.833   4.937  0.3401  0.6732  0.2903
 8814TIP3    H147933   2.240   5.792   4.966  0.1147  0.2051  0.2659
 8814TIP3    H247934   2.148   5.909   4.995 -0.3143 -0.4674  1.7384
 8815TIP3   OH247935   1.980   6.150   5.199 -0.0129 -0.4858  0.2427
 8815TIP3    H147936   2.008   6.241   5.192  0.3871 -0.5418  1.0804
 8815TIP3    H247937   1.926   6.147   5.278  0.4030 -1.0772  0.5129
 8816TIP3   OH247938   4.221   2.391   5.096  0.5472 -0.4532  0.2225
 8816TIP3    H147939   4.252   2.469   5.050  1.1645 -0.8168  0.0110
 8816TIP3    H247940   4.259   2.318   5.048 -0.9242 -0.9434 -0.2569
 8817TIP3   OH247941   2.513   1.641  14.534 -0.5967 -0.5199 -0.3279
 8817TIP3    H147942   2.453   1.613  14.465 -0.9138 -0.8316  0.0708
 8817TIP3    H247943   2.551   1.560  14.567 -1.5956 -0.5026  0.9056
 8818TIP3   OH247944   5.655   0.657  13.870 -0.0046 -0.4440  0.1835
 8818TIP3    H147945   5.588   0.724  13.885  0.3663  0.4934 -1.8633
 8818TIP3    H247946   5.669   0.660  13.775  2.4844 -1.0462  0.4836
 8819TIP3   OH247947   0.168   0.984  13.253  0.2161 -0.4537 -0.1081
 8819TIP3    H147948   0.231   0.915  13.275  2.3489  0.6983 -2.1883
 8819TIP3    H247949   0.196   1.059  13.306  0.1100 -0.1493 -0.4821
 8820TIP3   OH247950   6.464   2.704  16.724  0.2204  0.4449 -0.2707
 8820TIP3    H147951   6.405   2.668  16.790  0.8359  1.4151  0.8711
 8820TIP3    H247952   6.497   2.785  16.764 -0.0005  1.4908 -2.1247
 8821TIP3   OH247953   2.131   3.537  12.548  0.0620  0.5561 -0.3251
 8821TIP3    H147954   2.146   3.620  12.593  0.0189  0.7849 -0.7334
 8821TIP3    H247955   2.216   3.515  12.509  0.8076 -0.8814  1.8936
 8822TIP3   OH247956   5.413   3.435   4.083 -0.5293 -0.1857 -0.2909
 8822TIP3    H147957   5.351   3.420   4.155 -0.5627 -2.2873 -0.6913
 8822TIP3    H247958   5.415   3.530   4.073 -2.3651  0.0351  0.8763
 8823TIP3   OH247959   5.129   2.988  14.936  0.6682 -0.0393  0.0786
 8823TIP3    H147960   5.104   3.078  14.956  1.6776  1.0264 -2.9244
 8823TIP3    H247961   5.221   2.983  14.960  1.2002  0.4670 -1.7172
 8824TIP3   OH247962   4.533   2.036  15.132  0.0152  0.0316  0.8724
 8824TIP3    H147963   4.564   1.989  15.210 -1.1149 -3.6255 -0.6819
 8824TIP3    H247964   4.613   2.054  15.082  0.4397 -1.3978  0.9789
 8825TIP3   OH247965   5.158   5.803  10.375 -0.0226  0.1455 -0.8867
 8825TIP3    H147966   5.205   5.860  10.436  0.5591 -1.1228 -0.1060
 8825TIP3    H247967   5.065   5.821  10.392  0.1354 -0.0221  0.2238
 8826TIP3   OH247968   5.455   1.433   2.057  0.0100 -0.0165 -0.3376
 8826TIP3    H147969   5.521   1.443   1.988  1.8323 -1.6537  1.0153
 8826TIP3    H247970   5.506   1.414   2.136 -1.9798  1.7544  1.5047
 8827TIP3   OH247971   2.171   0.171   3.905 -0.9401  0.5926 -0.1790
 8827TIP3    H147972   2.095   0.166   3.847 -1.2564 -0.0919  0.2863
 8827TIP3    H247973   2.186   0.081   3.932  1.9720  0.1649 -2.6996
 8828TIP3   OH247974   1.210   6.042   3.027  0.3522 -1.1715  0.0123
 8828TIP3    H147975   1.189   6.130   2.993 -0.0682 -1.6312 -0.9548
 8828TIP3    H247976   1.142   6.025   3.093  0.1736 -0.9401 -0.1085
 8829TIP3   OH247977   5.574   6.819   5.788 -0.2527 -0.6569 -0.3995
 8829TIP3    H147978   5.532   6.733   5.791 -1.4599 -0.0666 -0.0279
 8829TIP3    H247979   5.507   6.880   5.817  0.6177  0.4144 -0.5739
 8830TIP3   OH247980   0.988   3.269  16.304 -0.2806 -0.5908 -0.5547
 8830TIP3    H147981   1.005   3.238  16.215  0.5821  0.6017 -0.8364
 8830TIP3    H247982   1.075   3.289  16.339 -0.5105 -2.0843  0.9735
 8831TIP3   OH247983   5.726   0.477  15.570 -0.5661 -0.2187  0.0466
 8831TIP3    H147984   5.659   0.515  15.627 -1.0312 -0.2938 -0.4405
 8831TIP3    H247985   5.678   0.418  15.512 -0.0688 -0.3168 -0.2741
 8832TIP3   OH247986   5.221   4.360   4.175  0.4218  0.6365 -0.2290
 8832TIP3    H147987   5.233   4.265   4.168  2.0445  0.3910  3.6744
 8832TIP3    H247988   5.290   4.397   4.119 -1.1536 -0.2737 -3.0158
 8833TIP3   OH247989   1.350   2.119  14.367  0.5083 -0.3384  0.1669
 8833TIP3    H147990   1.396   2.070  14.435 -0.2960 -1.2632  0.0755
 8833TIP3    H247991   1.307   2.190  14.414 -1.4314 -1.9282  0.9708
 8834TIP3   OH247992   2.085   4.015   0.614  0.4092  0.4321 -0.2912
 8834TIP3    H147993   2.062   3.923   0.616  0.6772  0.3806  0.6311
 8834TIP3    H247994   2.171   4.018   0.572  0.6142  0.2195  0.1182
 8835TIP3   OH247995   1.525   2.941   2.771 -0.7894  0.1935 -0.0516
 8835TIP3    H147996   1.541   2.872   2.706 -0.2565 -0.5883  0.8846
 8835TIP3    H247997   1.587   3.010   2.748 -0.0239 -0.4243  0.0960
 8836TIP3   OH247998   6.228   0.512  11.343 -0.7554 -0.2031 -0.6520
 8836TIP3    H147999   6.284   0.575  11.298  1.7013  0.0571  2.4338
 8836TIP3    H248000   6.151   0.563  11.369 -0.3257  0.6638 -1.0250
 8837TIP3   OH248001   4.431   1.654   4.500 -0.5656  0.0410 -0.7581
 8837TIP3    H148002   4.383   1.600   4.438 -0.2405  0.7487 -1.6400
 8837TIP3    H248003   4.522   1.650   4.471 -0.3480  0.0823 -0.1070
 8838TIP3   OH248004   3.301   0.887  10.999 -0.3580  0.2863 -0.3287
 8838TIP3    H148005   3.213   0.879  11.037  0.6245 -0.7177  1.8855
 8838TIP3    H248006   3.354   0.923  11.070  1.0971  0.6519 -1.5555
 8839TIP3   OH248007   4.228   4.924   1.915 -0.2428 -0.4309 -0.0455
 8839TIP3    H148008   4.224   5.001   1.972 -1.1296 -1.1364  0.8902
 8839TIP3    H248009   4.174   4.858   1.960 -0.3949 -1.2424 -1.3579
 8840TIP3   OH248010   3.424   4.048  14.764  0.2110  0.4245 -0.2010
 8840TIP3    H148011   3.473   4.088  14.691  0.8009  2.0124  1.0084
 8840TIP3    H248012   3.344   4.100  14.769 -0.3112 -0.3615 -0.3836
 8841TIP3   OH248013   3.490   4.745  14.570 -0.4068 -0.5912 -0.0463
 8841TIP3    H148014   3.489   4.840  14.556 -1.0910 -0.4498  0.8730
 8841TIP3    H248015   3.444   4.710  14.494 -0.1918 -0.1851 -0.3709
 8842TIP3   OH248016   4.685   1.955  10.938  0.0009 -0.2304 -0.7326
 8842TIP3    H148017   4.594   1.967  10.909 -0.3445  0.0968  0.4242
 8842TIP3    H248018   4.707   2.038  10.980 -0.0593 -1.1838  1.2926
 8843TIP3   OH248019   6.593   4.539   0.189 -0.2153 -0.1058 -0.0227
 8843TIP3    H148020   6.530   4.574   0.126 -0.3029  1.3276  0.8197
 8843TIP3    H248021   6.638   4.616   0.224  1.0140 -1.0011  0.4360
 8844TIP3   OH248022   0.034   3.207   0.824  0.1742 -0.3547 -0.7039
 8844TIP3    H148023  -0.026   3.199   0.749  0.9838 -1.8240 -1.2255
 8844TIP3    H248024   0.028   3.123   0.869  0.9604 -0.0850 -0.0684
 8845TIP3   OH248025   0.347   5.192  14.308 -0.3106  0.4350 -0.4014
 8845TIP3    H148026   0.367   5.152  14.392  0.7881 -0.1592 -0.9284
 8845TIP3    H248027   0.280   5.258  14.328 -1.3762 -0.9171  0.6353
 8846TIP3   OH248028   5.280   1.684   0.697 -0.1698  0.1032  0.1496
 8846TIP3    H148029   5.264   1.745   0.769  0.6817  1.8423 -1.0641
 8846TIP3    H248030   5.306   1.740   0.624 -1.6519 -1.5263 -1.7370
 8847TIP3   OH248031   1.250   3.997  10.902  0.2487  0.1696  0.3652
 8847TIP3    H148032   1.341   3.986  10.875 -0.2560 -0.8368 -1.0674
 8847TIP3    H248033   1.244   3.954  10.987  0.4414 -2.6939 -0.9492
 8848TIP3   OH248034   4.747   6.261  12.712  0.0981  0.4590 -0.0029
 8848TIP3    H148035   4.731   6.350  12.681  0.3052  0.8172  0.8805
 8848TIP3    H248036   4.706   6.259  12.799 -1.7592 -0.9652 -0.8461
 8849TIP3   OH248037   5.589   1.559  16.125  0.1162 -0.2160 -0.6783
 8849TIP3    H148038   5.682   1.561  16.145 -0.3892 -0.1580  1.9905
 8849TIP3    H248039   5.572   1.469  16.097  0.4179 -1.2556  2.2154
 8850TIP3   OH248040   2.643   4.676   6.539 -0.2826  0.1936 -0.2321
 8850TIP3    H148041   2.722   4.632   6.571  0.5478  1.0956 -0.9982
 8850TIP3    H248042   2.613   4.728   6.613 -0.1560 -0.1347  0.0530
 8851TIP3   OH248043   3.527   1.817  12.178 -0.1185 -0.1553  0.6068
 8851TIP3    H148044   3.570   1.834  12.094  1.9598  0.8583  1.7882
 8851TIP3    H248045   3.558   1.730  12.204 -0.9188 -0.5549  0.2564
 8852TIP3   OH248046   2.983   5.666   4.693 -0.0524 -0.2012  0.4577
 8852TIP3    H148047   2.934   5.740   4.728 -0.8362  0.3725 -1.6866
 8852TIP3    H248048   3.070   5.702   4.674  0.0351 -0.2353  0.7833
 8853TIP3   OH248049   0.896   4.452  16.468 -0.5379 -0.4633  0.2464
 8853TIP3    H148050   0.857   4.530  16.506  0.4952  1.2537 -1.9445
 8853TIP3    H248051   0.991   4.470  16.468 -0.3882 -1.0421 -1.5491
 8854TIP3   OH248052   5.231   4.387   1.984 -0.4523  0.6679  0.3236
 8854TIP3    H148053   5.289   4.311   1.970 -0.2671  1.0054 -0.8725
 8854TIP3    H248054   5.200   4.377   2.074 -0.9114 -1.1733  0.0201
 8855TIP3   OH248055   4.711   4.809  16.568 -0.4445 -0.2604 -0.3046
 8855TIP3    H148056   4.648   4.743  16.540 -1.6411  0.9899 -0.6971
 8855TIP3    H248057   4.657   4.886  16.588  0.9905  1.0631 -1.2629
 8856TIP3   OH248058   3.678   0.346  17.037 -0.2336 -0.3424 -0.0952
 8856TIP3    H148059   3.632   0.265  17.060  1.0093 -0.7639  1.0397
 8856TIP3    H248060   3.766   0.335  17.074  0.2810  1.1120 -0.8041
 8857TIP3   OH248061   0.610   5.700  15.042 -0.3375 -0.0746 -0.5553
 8857TIP3    H148062   0.608   5.761  15.116 -1.5934 -0.8591  0.0876
 8857TIP3    H248063   0.697   5.658  15.049  0.3725  1.3090 -0.7719
 8858TIP3   OH248064   2.903   6.469  17.038 -0.2387 -0.2018 -0.1347
 8858TIP3    H148065   2.882   6.544  17.095 -0.9627  0.9057 -1.7785
 8858TIP3    H248066   2.983   6.495  16.993 -0.4834 -0.4105 -0.6992
 8859TIP3   OH248067   2.985   0.140   4.186 -0.5136  0.3314  0.9045
 8859TIP3    H148068   2.976   0.140   4.281  0.7725 -0.1536  1.0383
 8859TIP3    H248069   3.078   0.123   4.170 -0.7458  0.2062 -0.4395
 8860TIP3   OH248070   1.038   4.171   1.081 -0.1971 -0.8924  0.0654
 8860TIP3    H148071   1.098   4.119   1.028  0.2152 -1.4546  1.0623
 8860TIP3    H248072   0.989   4.223   1.017  0.5169 -1.3010 -0.8395
 8861TIP3   OH248073   0.273   4.209  16.996 -0.2489 -0.7450 -0.6919
 8861TIP3    H148074   0.338   4.152  17.036  0.1388  0.2569  0.1479
 8861TIP3    H248075   0.320   4.289  16.974 -1.1864  0.0398  0.0224
 8862TIP3   OH248076   0.189   6.778   2.309  0.2262 -0.1519 -0.3551
 8862TIP3    H148077   0.166   6.822   2.391  0.1693 -0.9332  0.0575
 8862TIP3    H248078   0.279   6.805   2.292  0.0359  0.4979 -0.3599
 8863TIP3   OH248079   4.363   3.853  11.026  0.1688  0.3848  0.0662
 8863TIP3    H148080   4.435   3.793  11.006  0.0205 -0.4528  1.8886
 8863TIP3    H248081   4.288   3.816  10.979  0.5549  0.3570 -0.5426
 8864TIP3   OH248082   3.707   5.550   6.470 -0.4393  0.2975  0.3945
 8864TIP3    H148083   3.690   5.619   6.534 -0.3164  0.4039  0.3127
 8864TIP3    H248084   3.626   5.547   6.418 -1.6435 -1.6165  2.2014
 8865TIP3   OH248085   1.053   6.216   0.348 -0.1615 -0.6276  0.1486
 8865TIP3    H148086   0.979   6.272   0.322 -0.5441  0.1746  2.6850
 8865TIP3    H248087   1.112   6.218   0.272 -2.1665 -0.3325 -1.5003
 8866TIP3   OH248088   6.241   0.498  16.190  0.2339  0.5137  0.5686
 8866TIP3    H148089   6.156   0.459  16.173  0.4678  0.0948  0.3384
 8866TIP3    H248090   6.278   0.447  16.261 -0.3655  1.7068  1.7950
 8867TIP3   OH248091   6.494   2.716   2.042 -0.0227 -0.3020 -0.2995
 8867TIP3    H148092   6.504   2.712   1.947 -0.1222  0.6391 -0.3541
 8867TIP3    H248093   6.568   2.769   2.072 -0.7005  0.4823  0.0157
 8868TIP3   OH248094   0.481   2.289   1.430  0.1379 -0.0222  0.5948
 8868TIP3    H148095   0.496   2.275   1.337  1.0220  1.2741  0.5064
 8868TIP3    H248096   0.485   2.384   1.440 -0.5429 -0.1082  1.8653
 8869TIP3   OH248097   4.693   4.802   2.336 -0.1140 -0.0717  0.0954
 8869TIP3    H148098   4.681   4.877   2.278  0.1230  0.0580  0.2115
 8869TIP3    H248099   4.743   4.739   2.284  0.4197  0.1934  0.2773
 8870TIP3   OH248100   5.903   6.309  16.564 -0.9331 -0.2731 -0.3705
 8870TIP3    H148101   5.863   6.384  16.608 -0.4340  0.1957 -0.7001
 8870TIP3    H248102   5.865   6.233  16.607  0.1842  0.1486  1.5100
 8871TIP3   OH248103   4.034   2.446  14.930 -0.3445  0.1824  0.7736
 8871TIP3    H148104   4.074   2.477  15.011  0.7009  0.2732  0.2430
 8871TIP3    H248105   4.061   2.354  14.924  0.1536  0.3596  0.1991
 8872TIP3   OH248106   5.220   1.902   0.848  0.1482 -0.4862  0.0686
 8872TIP3    H148107   5.184   1.945   0.771 -0.9558 -1.1036  0.2184
 8872TIP3    H248108   5.286   1.963   0.881  0.9848 -0.4027 -1.6086
 8873TIP3   OH248109   1.929   2.280  11.897 -0.2759 -0.0480  0.6796
 8873TIP3    H148110   1.901   2.189  11.893  0.9062 -0.3844 -0.8705
 8873TIP3    H248111   1.976   2.294  11.815  0.2594  1.7234  1.2530
 8874TIP3   OH248112   4.594   3.743  16.844 -0.1986 -0.0714  0.3122
 8874TIP3    H148113   4.527   3.727  16.778 -0.8692  0.7024  0.7781
 8874TIP3    H248114   4.549   3.728  16.927  0.2544  0.3037  0.6278
 8875TIP3   OH248115   0.563   1.062   4.335  0.0498 -0.0588 -0.7690
 8875TIP3    H148116   0.542   0.976   4.370  1.1416  0.5614  1.5627
 8875TIP3    H248117   0.496   1.120   4.370  0.0884  0.2826 -1.2451
 8876TIP3   OH248118   2.047   6.589   4.490  0.8893  0.4645 -0.0684
 8876TIP3    H148119   1.968   6.641   4.502  0.2897 -0.7205  1.4578
 8876TIP3    H248120   2.108   6.623   4.555  0.7596 -0.1985  0.4165
 8877TIP3   OH248121   5.351   1.325  12.036 -0.8329  0.0331  0.5222
 8877TIP3    H148122   5.348   1.264  12.109  2.7970  0.0350  0.8478
 8877TIP3    H248123   5.314   1.276  11.962 -0.1344 -1.7170  1.2848
 8878TIP3   OH248124   6.289   4.476   2.292 -0.0911 -0.2202  0.5238
 8878TIP3    H148125   6.235   4.437   2.360 -1.9959  1.0850 -0.1581
 8878TIP3    H248126   6.246   4.453   2.210  0.1746  1.1288 -0.0243
 8879TIP3   OH248127   3.448   6.724  13.224  0.0276 -0.4061  0.3023
 8879TIP3    H148128   3.529   6.706  13.176  0.3246 -0.9507  0.9998
 8879TIP3    H248129   3.389   6.652  13.201  0.0837 -0.5334  0.5488
 8880TIP3   OH248130   1.937   2.014   0.801 -0.1035 -0.5503  0.2111
 8880TIP3    H148131   1.986   1.982   0.877 -0.9061  0.6862  1.2925
 8880TIP3    H248132   1.876   1.943   0.780  0.8638 -1.3363  0.0348
 8881TIP3   OH248133   1.363   0.554  16.172 -0.0418  0.4306 -0.2244
 8881TIP3    H148134   1.339   0.503  16.249  0.7451 -0.1491 -0.3506
 8881TIP3    H248135   1.406   0.632  16.207  0.9251 -0.1545 -0.0850
 8882TIP3   OH248136   5.898   3.783   2.170  0.1798  0.1819  0.1859
 8882TIP3    H148137   5.951   3.730   2.109  2.1084  1.9794  0.2098
 8882TIP3    H248138   5.860   3.851   2.115 -0.5547  0.0529  0.5205
 8883TIP3   OH248139   2.459   4.674   3.670  0.3663 -0.0235  0.4138
 8883TIP3    H148140   2.366   4.681   3.653  0.3561  0.4553  0.6683
 8883TIP3    H248141   2.468   4.594   3.722  0.3407 -1.2283 -1.3550
 8884TIP3   OH248142   0.099   4.124  14.154  0.1640  0.0560  0.0190
 8884TIP3    H148143   0.006   4.099  14.157  0.1739  0.0941  1.1775
 8884TIP3    H248144   0.146   4.040  14.154  0.1385  0.0381  0.4597
 8885TIP3   OH248145   2.139   4.952   1.967 -0.1162 -0.1609 -0.0570
 8885TIP3    H148146   2.078   5.026   1.974 -3.9638 -3.0223 -0.4330
 8885TIP3    H248147   2.163   4.932   2.058 -0.3468  0.5208  0.1620
 8886TIP3   OH248148   1.246   5.160   4.029 -0.3119  0.5668 -0.2578
 8886TIP3    H148149   1.274   5.161   3.938 -0.9745  1.1132 -0.4642
 8886TIP3    H248150   1.185   5.086   4.034  0.3098  0.0633 -0.0729
 8887TIP3   OH248151   5.436   0.112  10.526 -0.3527 -0.5176 -0.1355
 8887TIP3    H148152   5.417   0.050  10.455  0.0143  0.4360 -1.0887
 8887TIP3    H248153   5.350   0.136  10.561 -0.6155 -0.1461 -1.0107
 8888TIP3   OH248154   0.800   5.408   0.873 -0.1112 -0.1886 -0.7405
 8888TIP3    H148155   0.745   5.450   0.807 -0.3694  1.4621  0.4601
 8888TIP3    H248156   0.889   5.433   0.849 -0.0535 -0.9863 -1.3960
 8889TIP3   OH248157   5.105   2.149   5.604 -0.2958  0.3869 -0.2727
 8889TIP3    H148158   5.186   2.104   5.578 -1.1670 -0.7359 -1.1670
 8889TIP3    H248159   5.096   2.221   5.541 -0.4755 -0.0683 -0.7722
 8890TIP3   OH248160   1.811   0.069   1.481  0.2276 -0.1504 -0.2774
 8890TIP3    H148161   1.872   0.002   1.511 -0.1199 -0.9371 -1.2665
 8890TIP3    H248162   1.853   0.152   1.503  0.8491 -0.6853  0.5956
 8891TIP3   OH248163   1.757   5.068   0.920  0.0600  0.0512 -0.1580
 8891TIP3    H148164   1.767   5.160   0.895  1.0499  0.5869  1.9692
 8891TIP3    H248165   1.801   5.019   0.850  1.1086  1.3193 -0.4293
 8892TIP3   OH248166   2.025   4.593  12.182  0.3779 -0.6455  0.3422
 8892TIP3    H148167   2.063   4.678  12.161 -1.4507  0.8216  2.4937
 8892TIP3    H248168   2.058   4.573  12.269 -1.0919 -0.9040  0.8770
 8893TIP3   OH248169   6.739   6.358  15.080 -0.1564  0.1176  0.0429
 8893TIP3    H148170   6.813   6.360  15.141 -0.4929 -0.8631  0.4924
 8893TIP3    H248171   6.728   6.450  15.053  0.3194  0.4863  1.0633
 8894TIP3   OH248172   1.943   0.097   5.767  0.0071 -0.0089  0.2395
 8894TIP3    H148173   1.986   0.063   5.689 -0.6369 -1.7070  0.5984
 8894TIP3    H248174   1.866   0.143   5.734  1.1782  1.6768 -0.2862
 8895TIP3   OH248175   2.652   4.215  11.595 -0.4332  0.3974 -0.4892
 8895TIP3    H148176   2.564   4.224  11.560 -0.5045  1.2433 -0.1284
 8895TIP3    H248177   2.640   4.186  11.685 -0.4421  2.1437  0.1118
 8896TIP3   OH248178   0.150   0.162  12.234  0.2784 -0.0328 -0.1198
 8896TIP3    H148179   0.104   0.079  12.228 -0.9867  0.6007  0.4650
 8896TIP3    H248180   0.081   0.227  12.246  1.3681  0.8422  1.8473
 8897TIP3   OH248181   2.116   0.625  16.810  0.0418  0.1814 -0.0060
 8897TIP3    H148182   2.144   0.581  16.730  0.7426 -0.9357  0.8117
 8897TIP3    H248183   2.103   0.716  16.785  1.4093  0.1032 -1.1287
 8898TIP3   OH248184   6.764   4.865   0.547 -0.6681 -0.1401  0.1344
 8898TIP3    H148185   6.828   4.842   0.615 -1.1016 -0.1804  0.5347
 8898TIP3    H248186   6.683   4.823   0.576 -0.9263  0.0864 -0.2584
 8899TIP3   OH248187   4.013   2.730  16.934 -0.5072 -0.5189  0.1341
 8899TIP3    H148188   3.971   2.757  17.015  0.7953 -0.7394  0.9164
 8899TIP3    H248189   3.997   2.636  16.929  1.5199 -1.0066  1.5017
 8900TIP3   OH248190   5.628   2.688   5.084 -0.0012 -0.4629  0.3145
 8900TIP3    H148191   5.699   2.659   5.028 -0.1385  1.3144 -0.8571
 8900TIP3    H248192   5.670   2.714   5.166  0.4650 -1.0927  0.2781
 8901TIP3   OH248193   3.667   2.833  13.313 -0.1118  0.4941  0.2012
 8901TIP3    H148194   3.740   2.871  13.263 -1.2771  2.7630  0.1188
 8901TIP3    H248195   3.589   2.869  13.272 -1.2060 -0.0057  1.7868
 8902TIP3   OH248196   4.410   0.997   3.528  0.0876 -0.2365  0.1207
 8902TIP3    H148197   4.417   0.924   3.466  2.1135 -0.3533  0.4416
 8902TIP3    H248198   4.426   0.957   3.614  3.5351  0.8481  0.1140
 8903TIP3   OH248199   4.237   3.295   2.509  0.2480 -0.1172  0.9978
 8903TIP3    H148200   4.164   3.303   2.571  0.1906 -0.1905  0.9405
 8903TIP3    H248201   4.194   3.294   2.423  0.2690 -0.7743  0.9868
 8904TIP3   OH248202   5.129   1.016   0.527  0.7393 -0.0573 -0.1726
 8904TIP3    H148203   5.037   1.027   0.548  0.5323  0.8525 -1.4188
 8904TIP3    H248204   5.130   0.998   0.433  1.8674  0.8082 -0.3552
 8905TIP3   OH248205   5.679   2.271   3.265  0.3363 -0.1345 -0.4391
 8905TIP3    H148206   5.716   2.254   3.352 -1.6348 -0.4733  0.3753
 8905TIP3    H248207   5.749   2.246   3.204  1.9114  0.5080  1.0244
 8906TIP3   OH248208   6.511   1.797  15.882  0.0081  0.3806  0.1782
 8906TIP3    H148209   6.556   1.855  15.820 -0.5566  0.7399  0.0996
 8906TIP3    H248210   6.515   1.844  15.965  0.9038 -0.1724  0.4652
 8907TIP3   OH248211   3.875   2.662  14.989  0.0502 -0.3270 -0.3593
 8907TIP3    H148212   3.820   2.682  14.914  2.1158 -1.2884 -2.2723
 8907TIP3    H248213   3.915   2.577  14.968  0.3543 -0.8755  2.0696
 8908TIP3   OH248214   0.834   0.065   2.786  0.1057 -0.6363  0.1002
 8908TIP3    H148215   0.778   0.077   2.862  0.3459 -0.1927  0.2143
 8908TIP3    H248216   0.809  -0.020   2.750 -1.3448 -0.0119 -0.4408
 8909TIP3   OH248217   2.791   3.086   0.529  0.5743  0.0331 -0.2895
 8909TIP3    H148218   2.739   3.096   0.450  1.3291  0.2850 -0.7687
 8909TIP3    H248219   2.775   3.166   0.579 -1.1583 -0.8172  0.5980
 8910TIP3   OH248220   0.056   4.809   1.793 -0.2151  0.5297 -0.1379
 8910TIP3    H148221  -0.024   4.855   1.768  0.1147  2.2033  1.6845
 8910TIP3    H248222   0.123   4.843   1.733 -0.4555  0.5710 -0.3874
 8911TIP3   OH248223   1.437   3.820  15.356 -0.2807  0.2259 -0.4601
 8911TIP3    H148224   1.377   3.784  15.421  0.2839 -1.0977 -0.6417
 8911TIP3    H248225   1.380   3.867  15.295 -1.2748 -1.6307 -1.0526
 8912TIP3   OH248226   0.270   1.427  16.151  0.3603 -0.1026  0.0912
 8912TIP3    H148227   0.331   1.456  16.083 -0.6866 -0.7539 -1.1689
 8912TIP3    H248228   0.209   1.501  16.161 -1.8930 -1.3927 -2.6299
 8913TIP3   OH248229   2.701   1.999   3.167 -0.2058  0.1011  0.4286
 8913TIP3    H148230   2.645   1.970   3.095 -1.1158  2.2826  0.1742
 8913TIP3    H248231   2.709   1.922   3.224 -3.0055 -0.5058  0.1649
 8914TIP3   OH248232   6.645   5.362   0.639  0.5505  0.0981  0.0203
 8914TIP3    H148233   6.691   5.430   0.590 -0.1365  0.7339  0.2371
 8914TIP3    H248234   6.701   5.285   0.631 -0.2225 -0.2706 -2.9959
 8915TIP3   OH248235   4.158   4.508  16.251  0.1055 -0.0080  0.2504
 8915TIP3    H148236   4.185   4.504  16.342  0.8977  2.3323  0.1919
 8915TIP3    H248237   4.142   4.601  16.235 -0.7428 -0.4534 -1.7945
 8916TIP3   OH248238   0.381   2.829  11.549 -0.6740  0.2559 -0.5921
 8916TIP3    H148239   0.314   2.807  11.484 -1.2863 -1.8027  0.6315
 8916TIP3    H248240   0.332   2.871  11.620 -0.6213 -0.7908  0.0822
 8917TIP3   OH248241   1.746   3.823   0.740 -0.6454  0.0554 -0.2958
 8917TIP3    H148242   1.729   3.760   0.669  2.5976  0.1930 -1.3566
 8917TIP3    H248243   1.697   3.901   0.715  1.4853  0.5984 -3.2726
 8918TIP3   OH248244   2.632   2.246  14.257  0.2392 -0.2729 -0.5726
 8918TIP3    H148245   2.642   2.233  14.352 -3.6219 -0.1641  0.0008
 8918TIP3    H248246   2.622   2.157  14.223  0.7754 -0.2524 -0.8007
 8919TIP3   OH248247   1.368   1.910   5.116 -0.2824 -0.6652  0.0011
 8919TIP3    H148248   1.320   1.900   5.199 -0.8826  0.0278 -0.2534
 8919TIP3    H248249   1.398   1.822   5.095  0.2731 -0.7815  1.1959
 8920TIP3   OH248250   0.553   3.781  12.408 -0.1822 -0.1352 -0.4415
 8920TIP3    H148251   0.552   3.689  12.382  1.2861 -0.7389  1.3858
 8920TIP3    H248252   0.465   3.798  12.441 -0.5451 -0.7890 -1.0477
 8921TIP3   OH248253   5.498   6.698   3.038 -0.0631  0.4937 -0.1192
 8921TIP3    H148254   5.486   6.627   3.100 -1.5815  0.8282  0.0064
 8921TIP3    H248255   5.420   6.753   3.048  0.6974  1.7565 -0.7576
 8922TIP3   OH248256   5.355   1.849  10.895 -0.3316  0.4284  0.5562
 8922TIP3    H148257   5.300   1.913  10.940 -0.4955  0.1404  0.7652
 8922TIP3    H248258   5.296   1.805  10.834 -0.3198  0.1706  0.7282
 8923TIP3   OH248259   0.325   1.526  10.980 -0.2307  0.2549 -0.1342
 8923TIP3    H148260   0.362   1.474  10.908  1.5699 -0.8125  1.4857
 8923TIP3    H248261   0.239   1.554  10.947  0.5151 -0.1967 -2.6714
 8924TIP3   OH248262   4.283   4.394  11.006  0.1165  0.7774 -0.3675
 8924TIP3    H148263   4.251   4.354  11.086  1.9906 -0.9196 -0.3678
 8924TIP3    H248264   4.222   4.365  10.938 -0.3060  0.4869  0.1349
 8925TIP3   OH248265   3.177   2.431   2.191 -0.4052 -0.2478 -0.0412
 8925TIP3    H148266   3.238   2.486   2.143  0.0604 -0.0905  0.7193
 8925TIP3    H248267   3.137   2.490   2.256 -1.6272 -0.2591 -0.7539
 8926TIP3   OH248268   5.779   0.141  13.560 -0.1423  0.0868  0.4356
 8926TIP3    H148269   5.870   0.116  13.543 -0.3416 -1.6318  1.6881
 8926TIP3    H248270   5.756   0.198  13.486  1.5765 -0.3845 -0.5205
 8927TIP3   OH248271   1.913   0.116  11.024  0.0398 -0.2575  0.1367
 8927TIP3    H148272   1.978   0.051  11.052  0.3342 -0.4221 -0.8865
 8927TIP3    H248273   1.915   0.183  11.093  1.4240 -0.1687  0.0303
 8928TIP3   OH248274   2.640   3.049   0.255  0.4131  0.3616 -0.3107
 8928TIP3    H148275   2.644   3.028   0.162  0.6437 -0.5085 -0.1186
 8928TIP3    H248276   2.579   2.984   0.291  2.1067 -0.8150  0.5216
 8929TIP3   OH248277   3.317   1.102   4.643  0.6911 -0.0332 -0.5171
 8929TIP3    H148278   3.325   1.087   4.549 -1.8512  0.0342 -0.8053
 8929TIP3    H248279   3.225   1.125   4.657  1.5068  2.4543  1.6766
 8930TIP3   OH248280   3.239   2.152  10.470 -0.3432  0.9315 -0.2737
 8930TIP3    H148281   3.214   2.131  10.560  0.3241 -2.2693 -0.7205
 8930TIP3    H248282   3.177   2.105  10.416  0.7197  0.8492 -1.4678
 8931TIP3   OH248283   1.256   5.758  10.806 -0.3665 -0.4933 -0.3460
 8931TIP3    H148284   1.197   5.697  10.762 -1.3730  1.0620 -1.2660
 8931TIP3    H248285   1.198   5.812  10.860  0.0921  1.3147 -1.5671
 8932TIP3   OH248286   2.233   1.641   3.970 -0.1157 -0.4287 -0.1547
 8932TIP3    H148287   2.191   1.681   3.894 -1.2554 -1.4351 -0.0876
 8932TIP3    H248288   2.292   1.709   4.003 -0.5350  0.4732 -1.1892
 8933TIP3   OH248289   4.554   6.632   0.396 -0.2393  0.2972  0.2718
 8933TIP3    H148290   4.498   6.559   0.422  0.4357 -0.5781 -0.6706
 8933TIP3    H248291   4.494   6.701   0.369 -0.8703 -0.4151 -0.1651
 8934TIP3   OH248292   3.252   1.123   5.277 -0.5192 -0.2960 -0.1042
 8934TIP3    H148293   3.293   1.044   5.314 -0.8110 -0.8802 -0.9944
 8934TIP3    H248294   3.322   1.187   5.271 -0.6165  0.1066  2.2141
 8935TIP3   OH248295   6.827   5.621   2.154  0.7711 -0.1240 -0.2737
 8935TIP3    H148296   6.838   5.659   2.067 -0.1322  0.4103 -0.1657
 8935TIP3    H248297   6.736   5.590   2.156  0.3091  1.1824  0.9625
 8936TIP3   OH248298   1.983   1.047  12.321 -0.2693 -0.0667 -0.3384
 8936TIP3    H148299   2.035   1.039  12.401  0.3072  0.0158 -0.6986
 8936TIP3    H248300   2.006   1.132  12.285 -1.1618  0.2624 -0.1584
 8937TIP3   OH248301   1.223   1.522  16.710  0.2665  0.1939 -0.0879
 8937TIP3    H148302   1.240   1.500  16.618 -1.6659  0.9356 -0.6683
 8937TIP3    H248303   1.149   1.467  16.734  0.1261  0.7268  0.7198
 8938TIP3   OH248304   1.900   5.909  11.419 -0.6897  0.8723 -0.2823
 8938TIP3    H148305   1.929   5.890  11.330 -0.1472  1.4946 -0.2442
 8938TIP3    H248306   1.841   5.985  11.410  0.4697  1.8395  0.0317
 8939TIP3   OH248307   3.183   1.852   3.153 -0.4158 -0.4098 -0.5617
 8939TIP3    H148308   3.120   1.907   3.105  1.0965 -0.3085 -2.5685
 8939TIP3    H248309   3.237   1.813   3.084  1.2132 -1.1174  1.0601
 8940TIP3   OH248310   5.418   3.944   5.142  0.0773 -0.0354 -0.3468
 8940TIP3    H148311   5.453   3.967   5.056 -0.7730 -1.7955 -1.2273
 8940TIP3    H248312   5.343   4.002   5.154 -0.1257 -0.1500 -1.0457
 8941TIP3   OH248313   6.057   0.753   3.278  0.3976  0.3310 -0.3273
 8941TIP3    H148314   5.973   0.709   3.271 -1.1794  3.0189  0.4161
 8941TIP3    H248315   6.071   0.764   3.372  2.1610 -0.9616 -0.3687
 8942TIP3   OH248316   4.438   3.973   3.542  0.1537 -0.6948 -0.5828
 8942TIP3    H148317   4.424   4.061   3.506  1.4750 -0.5671 -0.8434
 8942TIP3    H248318   4.396   3.975   3.628  1.7518  0.8179  0.2159
 8943TIP3   OH248319   1.560   2.822  13.900 -0.2573 -0.1410 -0.3650
 8943TIP3    H148320   1.652   2.845  13.918  0.1294  2.1960 -4.1157
 8943TIP3    H248321   1.510   2.884  13.952  0.4756  1.0928 -1.0706
 8944TIP3   OH248322   3.935   2.036   1.199  0.4245 -0.4267  0.4282
 8944TIP3    H148323   3.905   2.121   1.167  0.3372 -0.5941  0.0553
 8944TIP3    H248324   3.925   2.041   1.294  2.2486  0.6805  0.6092
 8945TIP3   OH248325   2.456   3.259  14.065  0.1806 -0.3174 -0.6240
 8945TIP3    H148326   2.370   3.230  14.095 -0.3161 -0.0876 -1.7674
 8945TIP3    H248327   2.453   3.354  14.070  0.3500 -0.3069 -0.7043
 8946TIP3   OH248328   0.829   0.976  16.080 -0.2074  0.4843 -0.0021
 8946TIP3    H148329   0.895   1.010  16.019  1.7003  2.0099  2.7109
 8946TIP3    H248330   0.869   0.898  16.118 -1.1548 -0.1483 -0.2518
 8947TIP3   OH248331   3.998   3.393   5.234 -0.5827  0.1026 -0.5482
 8947TIP3    H148332   3.952   3.411   5.152 -1.1718  0.2813 -0.1883
 8947TIP3    H248333   3.958   3.453   5.297 -0.3889 -0.2867 -0.0489
 8948TIP3   OH248334   5.963   5.253   3.319 -0.0909 -0.1670  0.0023
 8948TIP3    H148335   5.912   5.295   3.249 -1.0239  1.1759  1.4322
 8948TIP3    H248336   5.897   5.212   3.375  0.5390  0.0228  0.8886
 8949TIP3   OH248337   5.468   6.414  14.985  0.8706 -0.1179 -0.2296
 8949TIP3    H148338   5.395   6.459  14.941 -1.3575 -1.6729  1.6220
 8949TIP3    H248339   5.464   6.325  14.952 -0.0120 -0.9725  1.9590
 8950TIP3   OH248340   0.501   6.526  12.863 -0.1027 -0.0908  0.0499
 8950TIP3    H148341   0.500   6.466  12.789 -1.8549  1.9928 -1.7312
 8950TIP3    H248342   0.445   6.483  12.929  1.1915 -1.7912  0.1168
 8951TIP3   OH248343   1.575   3.734   5.157  0.0418  0.2646 -0.2667
 8951TIP3    H148344   1.666   3.765   5.154 -0.3193  1.7686  1.6059
 8951TIP3    H248345   1.575   3.667   5.226  0.0945 -1.3220 -1.7505
 8952TIP3   OH248346   3.768   0.770   1.875 -0.4088 -0.2577  0.0383
 8952TIP3    H148347   3.708   0.843   1.889 -0.6075  0.4306 -3.4498
 8952TIP3    H248348   3.851   0.811   1.850  0.3404 -1.2353  0.8542
 8953TIP3   OH248349   6.683   4.565  12.378  0.4601  0.1358 -0.4065
 8953TIP3    H148350   6.719   4.480  12.404  0.1083  0.8862  2.9093
 8953TIP3    H248351   6.747   4.629  12.409 -1.3155  1.2464  1.2050
 8954TIP3   OH248352   4.425   6.040   6.565 -0.7397  0.2946 -0.1524
 8954TIP3    H148353   4.506   6.038   6.515 -1.4150  1.9485 -1.4003
 8954TIP3    H248354   4.424   6.126   6.606 -1.8808  0.3026 -0.1686
 8955TIP3   OH248355   4.693   3.094   6.197  0.0798  0.0581  0.8998
 8955TIP3    H148356   4.674   3.052   6.281 -2.0089  0.5364  0.7242
 8955TIP3    H248357   4.769   3.047   6.164 -0.3119 -1.5457  2.1104
 8956TIP3   OH248358   5.936   2.920  11.513 -0.5635 -0.3860 -0.2582
 8956TIP3    H148359   6.023   2.952  11.488 -0.9420  1.0893  0.1776
 8956TIP3    H248360   5.876   2.967  11.454 -1.1919  0.1462  0.7838
 8957TIP3   OH248361   3.461   4.724  17.057 -0.2743  0.2861 -0.4499
 8957TIP3    H148362   3.535   4.782  17.075  1.2418 -1.5470 -0.3067
 8957TIP3    H248363   3.414   4.718  17.140 -0.8973  1.8164 -0.6588
 8958TIP3   OH248364   5.720   1.827  12.539  0.7994 -0.1031 -0.7190
 8958TIP3    H148365   5.661   1.752  12.529  1.8854 -1.2140  0.8899
 8958TIP3    H248366   5.792   1.810  12.478  0.4793  0.2340 -1.1997
 8959TIP3   OH248367   1.862   5.967  13.834 -0.9687  0.4190 -0.0903
 8959TIP3    H148368   1.881   5.874  13.845 -2.0834  0.3371  1.6031
 8959TIP3    H248369   1.940   6.004  13.794 -0.7573 -1.3527 -1.4047
 8960TIP3   OH248370   1.949   0.418   5.191  0.1606 -0.4998  0.2391
 8960TIP3    H148371   1.891   0.430   5.116  0.5788  0.4300  0.0382
 8960TIP3    H248372   2.016   0.486   5.180  0.9580 -1.1817  0.7670
 8961TIP3   OH248373   5.008   1.084   1.023 -0.4894  0.1165  0.0504
 8961TIP3    H148374   5.040   1.155   0.968 -0.2286 -0.5773 -0.7021
 8961TIP3    H248375   4.967   1.022   0.963 -0.5633 -0.4604  0.6744
 8962TIP3   OH248376   1.679   6.535   1.165  0.1380 -0.5389 -0.2616
 8962TIP3    H148377   1.724   6.451   1.151  2.7916  0.7085  0.0620
 8962TIP3    H248378   1.750   6.596   1.184 -1.8624  1.3715  1.5682
 8963TIP3   OH248379   4.794   2.023  13.142 -0.4924 -0.1353 -0.3221
 8963TIP3    H148380   4.886   2.025  13.169 -0.5579  0.4902 -0.1347
 8963TIP3    H248381   4.786   2.095  13.079 -0.7449 -0.4851 -0.6923
 8964TIP3   OH248382   6.595   4.111  13.553 -0.6600 -0.2165 -0.0908
 8964TIP3    H148383   6.590   4.030  13.502 -0.6292  0.1060 -0.6093
 8964TIP3    H248384   6.625   4.082  13.640 -0.1506 -0.6932 -0.4199
 8965TIP3   OH248385   3.298   0.144   1.548 -0.3138 -0.1476 -0.1022
 8965TIP3    H148386   3.331   0.105   1.629  0.8429 -0.9161 -0.9298
 8965TIP3    H248387   3.203   0.145   1.559 -0.4538 -3.3465 -0.0773
 8966TIP3   OH248388   2.587   2.856  16.867 -0.3954 -0.4470  0.0244
 8966TIP3    H148389   2.657   2.825  16.808 -0.4724 -1.8131  0.6268
 8966TIP3    H248390   2.509   2.810  16.837 -0.5507 -0.7119  0.8249
 8967TIP3   OH248391   4.906   2.899   3.136 -0.0317 -0.4630  0.4484
 8967TIP3    H148392   4.880   2.811   3.108  1.3602 -1.3985  1.9450
 8967TIP3    H248393   4.984   2.885   3.188 -0.3071  1.5929  1.4819
 8968TIP3   OH248394   3.231   3.429   3.468  0.1815  0.3420  0.7077
 8968TIP3    H148395   3.240   3.334   3.476 -0.4415 -0.0039 -1.9292
 8968TIP3    H248396   3.137   3.444   3.475  0.2091  0.6801  0.3115
 8969TIP3   OH248397   1.523   5.472  14.853  0.2695 -0.0737  0.5658
 8969TIP3    H148398   1.469   5.398  14.824 -0.6451  0.9199 -0.3861
 8969TIP3    H248399   1.529   5.462  14.948 -0.0064 -1.2600  0.4727
 8970TIP3   OH248400   3.264   2.467  14.009  0.1660 -0.1188  0.4835
 8970TIP3    H148401   3.189   2.409  14.022  0.0373 -0.1065 -0.1549
 8970TIP3    H248402   3.272   2.515  14.091  0.5044 -1.2923  1.1674
 8971TIP3   OH248403   2.733   2.829   4.263  0.0604  0.5384  0.0298
 8971TIP3    H148404   2.806   2.786   4.218  0.1382  0.9814 -0.2794
 8971TIP3    H248405   2.744   2.806   4.355  0.6544  0.6943  0.0006
 8972TIP3   OH248406   6.647   0.724  16.052  0.1537  0.0753 -0.4425
 8972TIP3    H148407   6.671   0.810  16.017 -0.4525  0.4593  0.0721
 8972TIP3    H248408   6.657   0.733  16.146 -1.4848  0.0960 -0.2526
 8973TIP3   OH248409   4.372   4.814  13.881 -0.1055 -0.0223 -0.6204
 8973TIP3    H148410   4.458   4.808  13.840 -0.1076 -0.1712 -0.6040
 8973TIP3    H248411   4.382   4.772  13.966  0.4538  2.1617  0.4579
 8974TIP3   OH248412   2.264   6.478  14.155 -0.0280  0.2705  0.2828
 8974TIP3    H148413   2.197   6.511  14.095  0.4123  0.5335 -0.0757
 8974TIP3    H248414   2.329   6.435  14.098  0.1872  0.1588  0.6065
 8975TIP3   OH248415   5.057   2.258   2.740  0.3458  0.8086  0.3825
 8975TIP3    H148416   5.034   2.263   2.647  0.4555 -0.4763  0.2692
 8975TIP3    H248417   4.992   2.198   2.778  0.8816  0.5581  0.9313
 8976TIP3   OH248418   2.225   1.744  15.800  0.1907  0.2855 -0.8134
 8976TIP3    H148419   2.178   1.815  15.757  2.6675  2.8020  0.3548
 8976TIP3    H248420   2.280   1.707  15.731  1.0937  1.5402 -0.7906
 8977TIP3   OH248421   5.210   2.565   5.670 -0.6041 -0.3135  0.3139
 8977TIP3    H148422   5.242   2.605   5.589 -0.9744  1.3781  0.9587
 8977TIP3    H248423   5.143   2.503   5.641 -0.9678  0.5130 -0.6731
 8978TIP3   OH248424   1.751   6.312   5.360 -0.0238 -0.4728  0.1425
 8978TIP3    H148425   1.797   6.308   5.444  0.5392  0.1532 -0.1259
 8978TIP3    H248426   1.715   6.224   5.348  0.4367 -0.7484  0.7337
 8979TIP3   OH248427   0.981   6.515  16.467 -0.5136  0.0124  0.1954
 8979TIP3    H148428   0.893   6.544  16.443 -0.1045  0.5508 -0.7302
 8979TIP3    H248429   1.008   6.458  16.395  0.2135  0.5316  0.0496
 8980TIP3   OH248430   0.837   5.277   5.922 -0.0357 -0.4016  0.0055
 8980TIP3    H148431   0.882   5.192   5.921  1.8121  0.5436 -0.4177
 8980TIP3    H248432   0.749   5.256   5.954 -0.1166 -2.7062 -1.4821
 8981TIP3   OH248433   1.241   0.272  14.024  0.5211  0.1589  0.7418
 8981TIP3    H148434   1.336   0.282  14.018  0.5404  0.0628  0.8862
 8981TIP3    H248435   1.214   0.247  13.935  0.9579 -2.4467  1.2567
 8982TIP3   OH248436   2.129   0.370   0.566  0.6333  0.5215 -0.1634
 8982TIP3    H148437   2.156   0.450   0.522 -1.4458  0.2958 -2.0121
 8982TIP3    H248438   2.068   0.399   0.634  0.6536  0.5792 -0.1701
 8983TIP3   OH248439   0.524   3.486  12.741 -0.1025  0.1483 -0.3013
 8983TIP3    H148440   0.605   3.487  12.691 -0.9087  0.4740 -1.6604
 8983TIP3    H248441   0.551   3.473  12.832  1.4977  0.9573 -0.6398
 8984TIP3   OH248442   6.646   1.480   2.698  0.4914  0.4399 -0.1463
 8984TIP3    H148443   6.735   1.445   2.687  0.9079  1.6876 -1.0435
 8984TIP3    H248444   6.626   1.519   2.613 -0.5603  0.9754  0.3394
 8985TIP3   OH248445   1.847   3.477  11.479  0.0559 -0.2764 -0.2171
 8985TIP3    H148446   1.777   3.431  11.432  1.0720 -0.9048 -1.1584
 8985TIP3    H248447   1.897   3.522  11.410  0.5296  0.2445  0.4480
 8986TIP3   OH248448   6.448   5.006   1.076 -0.1858  0.2092 -0.2140
 8986TIP3    H148449   6.429   4.916   1.101 -1.5878 -0.0841 -2.1074
 8986TIP3    H248450   6.445   5.006   0.981 -0.2552  2.2618 -0.2683
 8987TIP3   OH248451   4.257   3.604  15.381  0.5806 -0.2318 -0.3926
 8987TIP3    H148452   4.219   3.521  15.351 -0.5593 -0.6465  2.0075
 8987TIP3    H248453   4.349   3.597  15.358  0.4827 -2.0913 -0.4028
 8988TIP3   OH248454   2.873   1.795   5.466  0.1972  0.5001 -0.3910
 8988TIP3    H148455   2.932   1.738   5.417 -0.9611 -0.7637 -0.3758
 8988TIP3    H248456   2.930   1.846   5.523  1.2558 -0.9018 -0.1518
 8989TIP3   OH248457   4.644   0.250  10.872  0.2998  0.1585 -0.2232
 8989TIP3    H148458   4.607   0.258  10.783  0.1496 -1.4571 -0.3342
 8989TIP3    H248459   4.574   0.282  10.929 -0.4001 -0.6762 -0.5794
 8990TIP3   OH248460   4.660   6.148   0.558  0.3266  0.0273  0.3203
 8990TIP3    H148461   4.568   6.120   0.554 -0.4078  2.3521 -1.0581
 8990TIP3    H248462   4.693   6.133   0.469  0.4475  1.6393  0.0631
 8991TIP3   OH248463   5.089   3.576  11.949 -0.1285 -0.0274 -0.3224
 8991TIP3    H148464   5.168   3.591  11.897 -1.1701  1.4362 -1.5837
 8991TIP3    H248465   5.022   3.553  11.884 -0.9377 -0.4178  0.6275
 8992TIP3   OH248466   5.551   2.120   0.168 -0.3424  0.3761  0.4976
 8992TIP3    H148467   5.610   2.194   0.157  0.8027 -0.8041 -2.0291
 8992TIP3    H248468   5.584   2.074   0.246 -0.1722  1.6703  1.2121
 8993TIP3   OH248469   0.338   4.496   3.839 -0.1894  0.3775  0.1085
 8993TIP3    H148470   0.298   4.415   3.869  0.3660  0.2427  0.4733
 8993TIP3    H248471   0.292   4.565   3.888 -1.0369  0.3394 -0.5895
 8994TIP3   OH248472   4.190   1.612  15.653 -0.6559  0.5881 -0.1937
 8994TIP3    H148473   4.253   1.540  15.659 -1.8127 -0.5374 -0.9720
 8994TIP3    H248474   4.167   1.630  15.744  3.1263  3.2994  0.4708
 8995TIP3   OH248475   4.579   1.202   3.743  0.7390 -0.4612 -0.2855
 8995TIP3    H148476   4.597   1.211   3.649  0.1615  1.9295 -0.2340
 8995TIP3    H248477   4.605   1.286   3.780  1.5567 -1.5786  1.8479
 8996TIP3   OH248478   3.073   1.806  15.699  0.0437  0.5097  0.5361
 8996TIP3    H148479   3.107   1.885  15.741  1.5362  2.7973 -4.2513
 8996TIP3    H248480   2.991   1.835  15.657  0.4970 -0.4580 -1.1098
 8997TIP3   OH248481   0.629   6.358  14.482  0.0958  0.3778 -0.3727
 8997TIP3    H148482   0.666   6.282  14.526  2.4364  0.9401 -1.2110
 8997TIP3    H248483   0.539   6.333  14.461  0.1992 -1.3856  1.0950
 8998TIP3   OH248484   2.880   4.250   6.810  0.0668 -0.5284  0.0934
 8998TIP3    H148485   2.936   4.172   6.815  0.5607 -0.4455 -2.5952
 8998TIP3    H248486   2.928   4.317   6.860  1.3151 -1.0523 -0.3566
 8999TIP3   OH248487   4.346   4.534   2.292 -0.3441 -0.2921 -0.4142
 8999TIP3    H148488   4.376   4.484   2.215 -2.4951 -0.8541 -0.9490
 8999TIP3    H248489   4.266   4.490   2.319 -0.2915  0.6658  1.4218
 9000TIP3   OH248490   5.332   2.504  13.277 -0.5405  0.4516  0.3287
 9000TIP3    H148491   5.346   2.547  13.361  0.3375 -0.1196  0.4828
 9000TIP3    H248492   5.410   2.523  13.226 -1.1527  0.9645 -0.4522
 9001TIP3   OH248493   1.408   6.176   3.297  0.0540  0.1431 -0.8863
 9001TIP3    H148494   1.370   6.209   3.216  1.1642 -0.6036 -1.7475
 9001TIP3    H248495   1.334   6.164   3.356 -0.6182  2.1397 -1.2495
 9002TIP3   OH248496   6.392   4.296  11.809 -0.0124 -0.7290 -0.5762
 9002TIP3    H148497   6.357   4.283  11.898 -0.5615 -0.3369 -0.7292
 9002TIP3    H248498   6.478   4.253  11.811  0.1940 -0.3015  0.2904
 9003TIP3   OH248499   6.036   0.926  11.865 -0.2317  0.7634  0.5762
 9003TIP3    H148500   6.062   0.869  11.937 -1.5222  0.5434  0.8860
 9003TIP3    H248501   6.000   1.004  11.906 -1.7795  0.2694  0.2012
 9004TIP3   OH248502   1.217   5.440   1.619 -0.5652 -0.5892  0.4693
 9004TIP3    H148503   1.305   5.445   1.654 -0.4255 -1.7355  0.3035
 9004TIP3    H248504   1.160   5.451   1.695 -0.3015  0.2395  0.5652
 9005TIP3   OH248505   4.911   2.370  14.498  0.2050  0.0398  0.0536
 9005TIP3    H148506   4.903   2.440  14.434 -0.2135 -1.6088 -1.7751
 9005TIP3    H248507   4.830   2.375  14.549 -0.2766  0.2768 -0.7159
 9006TIP3   OH248508   6.173   3.721  12.756 -0.4244  0.4015 -0.1105
 9006TIP3    H148509   6.246   3.680  12.803  1.4038  0.3783 -2.7413
 9006TIP3    H248510   6.173   3.678  12.670 -3.9099  0.0727 -0.0733
 9007TIP3   OH248511   4.894   2.319  14.960  0.1373  0.2613 -0.2726
 9007TIP3    H148512   4.824   2.285  14.904 -0.8251  0.8420  0.5297
 9007TIP3    H248513   4.905   2.410  14.933  1.7811 -0.2616 -1.5196
 9008TIP3   OH248514   3.650   2.279   2.968  0.8279 -0.3507 -0.1080
 9008TIP3    H148515   3.636   2.373   2.955  0.9991 -0.3594 -0.3667
 9008TIP3    H248516   3.697   2.273   3.051  0.8082 -0.2084 -0.0863
 9009TIP3   OH248517   0.077   0.738   1.066  0.0541 -0.1889 -0.5384
 9009TIP3    H148518   0.057   0.649   1.036  0.0013 -0.8937  1.4652
 9009TIP3    H248519  -0.002   0.788   1.046  0.1860 -0.4884 -1.9405
 9010TIP3   OH248520   3.589   6.223  16.345 -0.4298 -0.6037 -0.4701
 9010TIP3    H148521   3.614   6.183  16.428  1.2518  0.7410 -0.2813
 9010TIP3    H248522   3.519   6.284  16.368  0.4933  0.2672  0.1135
 9011TIP3   OH248523   0.447   0.292  13.332 -0.5156  0.1143  0.4891
 9011TIP3    H148524   0.402   0.240  13.266  0.2628 -0.9661  0.7762
 9011TIP3    H248525   0.530   0.247  13.345  0.2995  1.5605  0.5940
 9012TIP3   OH248526   3.573   4.466  12.744 -0.3510 -0.1098 -0.4344
 9012TIP3    H148527   3.505   4.410  12.707 -0.9907  0.6185 -0.3895
 9012TIP3    H248528   3.539   4.494  12.829 -0.0311  0.3137 -0.4376
 9013TIP3   OH248529   3.917   5.067   2.854  0.1954 -0.2648 -0.1708
 9013TIP3    H148530   3.885   5.029   2.772 -0.7555  1.0301 -0.4359
 9013TIP3    H248531   3.923   4.993   2.914  1.1903 -1.2969 -1.4775
 9014TIP3   OH248532   1.399   2.170  13.420  0.6845  0.0748  0.2004
 9014TIP3    H148533   1.456   2.096  13.444  2.8294  0.8051 -2.2141
 9014TIP3    H248534   1.429   2.242  13.476  0.1882 -0.2625  0.9111
 9015TIP3   OH248535   1.454   0.829  12.811 -0.1970 -0.4448 -0.0128
 9015TIP3    H148536   1.486   0.851  12.723 -0.7281 -0.1598 -0.1358
 9015TIP3    H248537   1.360   0.845  12.807 -0.4152 -1.5556  0.2578
 9016TIP3   OH248538   6.047   1.887  14.335  0.6434  0.2457  0.2066
 9016TIP3    H148539   6.114   1.896  14.267 -0.0023  0.9238 -0.3457
 9016TIP3    H248540   6.058   1.965  14.389  2.0158 -0.9045  1.6913
 9017TIP3   OH248541   1.325   0.339   1.512 -0.3941 -0.4492  0.2493
 9017TIP3    H148542   1.272   0.403   1.561 -0.3014 -0.6112  0.5633
 9017TIP3    H248543   1.279   0.256   1.525  0.0780 -0.6362  0.7402
 9018TIP3   OH248544   4.789   1.427  10.306  0.6861 -0.3569 -0.4955
 9018TIP3    H148545   4.768   1.405  10.397  0.5749 -1.0021 -0.6676
 9018TIP3    H248546   4.705   1.418  10.260  0.3497  1.7133 -0.3592
 9019TIP3   OH248547   4.888   3.391  13.367 -0.0022  0.3678 -0.0984
 9019TIP3    H148548   4.948   3.322  13.394  0.0509  0.5757  0.3196
 9019TIP3    H248549   4.814   3.344  13.328 -0.3425  0.0313  0.9407
 9020TIP3   OH248550   6.239   1.013   5.086 -0.4693 -0.2767 -0.2410
 9020TIP3    H148551   6.187   0.961   5.024 -1.8648  0.5816  0.1786
 9020TIP3    H248552   6.202   0.992   5.172 -0.3069  0.5494  0.0399
 9021TIP3   OH248553   1.239   5.453  13.653  0.7571 -0.0510 -0.0558
 9021TIP3    H148554   1.301   5.387  13.683  1.4935  0.2888 -0.7831
 9021TIP3    H248555   1.230   5.513  13.726 -1.1521 -1.7738  1.2258
 9022TIP3   OH248556   4.050   6.117   0.964  0.3990 -0.6116  0.0653
 9022TIP3    H148557   4.100   6.054   1.014 -0.0784 -0.2019  1.0908
 9022TIP3    H248558   4.073   6.202   1.002 -0.8896 -0.3957  0.4318
 9023TIP3   OH248559   6.533   2.968   1.749 -0.2096  0.2482  0.2333
 9023TIP3    H148560   6.471   2.912   1.794 -1.3352  0.2890 -1.1829
 9023TIP3    H248561   6.563   2.916   1.675 -0.5296  1.1336 -0.5471
 9024TIP3   OH248562   6.835   6.205   2.151 -0.6369  0.5185 -0.1642
 9024TIP3    H148563   6.902   6.231   2.088 -1.3773  0.7174 -0.8900
 9024TIP3    H248564   6.780   6.282   2.161 -0.4391  0.5444  0.8691
 9025TIP3   OH248565   1.158   3.406   1.173  0.0766  0.4168 -0.1465
 9025TIP3    H148566   1.125   3.333   1.225  0.7554  0.0928 -0.1586
 9025TIP3    H248567   1.253   3.399   1.179  0.1591  1.6975  0.3995
 9026TIP3   OH248568   1.728   5.707  16.597  0.0350  0.8178  0.0989
 9026TIP3    H148569   1.667   5.633  16.598  0.9886  0.0125  0.2595
 9026TIP3    H248570   1.672   5.784  16.608 -0.9348  0.0966  0.3993
 9027TIP3   OH248571   5.730   1.885  15.277 -0.0336 -0.2939 -0.8538
 9027TIP3    H148572   5.741   1.882  15.372 -1.2260 -0.3289 -0.7126
 9027TIP3    H248573   5.817   1.861  15.242  0.2930 -0.7050  0.2143
 9028TIP3   OH248574   6.238   2.850  15.912 -0.1051  0.4454 -0.1017
 9028TIP3    H148575   6.148   2.824  15.891 -0.5053  1.4151  0.3261
 9028TIP3    H248576   6.253   2.813  15.999  1.0600 -2.3815 -1.3702
 9029TIP3   OH248577   1.572   6.633   4.637 -0.8906 -0.0462 -0.2695
 9029TIP3    H148578   1.639   6.603   4.699 -0.7370  1.2639  0.2392
 9029TIP3    H248579   1.502   6.569   4.645 -0.4775 -0.4211  0.5688
 9030TIP3   OH248580   1.623   1.685   5.059  0.3424  0.1558  0.3062
 9030TIP3    H148581   1.638   1.598   5.096  2.1505  0.5430  0.5709
 9030TIP3    H248582   1.624   1.672   4.965 -0.8470 -0.3039  0.3365
 9031TIP3   OH248583   2.486   1.340   4.773  0.1706 -0.0693  0.5175
 9031TIP3    H148584   2.484   1.354   4.678  0.6719 -0.9619  0.3586
 9031TIP3    H248585   2.575   1.364   4.799  1.1365 -2.8644  0.2013
 9032TIP3   OH248586   2.442   1.023   0.244  0.7174  0.1558 -0.7143
 9032TIP3    H148587   2.494   1.086   0.194  1.2513 -0.6972 -1.2650
 9032TIP3    H248588   2.373   1.076   0.285  1.2280  1.1112 -1.0443
 9033TIP3   OH248589   2.859   4.756  14.475 -0.7146 -0.6801 -0.0325
 9033TIP3    H148590   2.903   4.804  14.405 -1.3566 -0.4064 -0.2504
 9033TIP3    H248591   2.853   4.666  14.441  2.7853 -1.6129  1.3933
 9034TIP3   OH248592   1.051   6.127  11.156  0.7435  0.1341  0.4936
 9034TIP3    H148593   1.144   6.142  11.143  0.6921 -0.6418 -1.0673
 9034TIP3    H248594   1.010   6.212  11.138  1.1049  0.3293  0.5895
 9035TIP3   OH248595   2.145   3.797   2.934  0.5804  0.2081 -0.1714
 9035TIP3    H148596   2.051   3.814   2.935  0.6203  0.4926 -0.6755
 9035TIP3    H248597   2.171   3.813   2.843  0.9460 -0.8329 -0.2535
 9036TIP3   OH248598   1.698   3.404  10.267 -0.0711  0.6159  0.9382
 9036TIP3    H148599   1.610   3.367  10.266  0.8348 -1.7910 -1.4008
 9036TIP3    H248600   1.741   3.362  10.342 -0.2929  0.1010  0.7818
 9037TIP3   OH248601   5.433   4.955   5.796 -0.3706 -0.3537  0.3758
 9037TIP3    H148602   5.463   5.024   5.855 -4.7091  1.3249  0.9906
 9037TIP3    H248603   5.414   4.881   5.854 -0.7410 -0.1558  0.5111
 9038TIP3   OH248604   3.582   4.724  12.605  0.4702 -0.5278 -0.0820
 9038TIP3    H148605   3.499   4.730  12.652  0.8479  1.6841  0.4284
 9038TIP3    H248606   3.606   4.631  12.608 -1.2117 -0.9581  1.0895
 9039TIP3   OH248607   0.017   2.405   0.234  0.4382  0.0044  0.8566
 9039TIP3    H148608   0.006   2.466   0.307  0.9984 -0.8926  1.7172
 9039TIP3    H248609  -0.070   2.395   0.197  0.0681  0.1693  1.6660
 9040TIP3   OH248610   6.723   1.681   2.862  0.0817 -0.0662  0.9358
 9040TIP3    H148611   6.682   1.602   2.827  0.3398  1.0679 -2.2310
 9040TIP3    H248612   6.689   1.752   2.807  0.4830  1.9567  3.1424
 9041TIP3   OH248613   3.715   2.211  13.103  0.6617 -0.1567 -0.2144
 9041TIP3    H148614   3.786   2.231  13.043 -1.0139 -2.3005 -3.1674
 9041TIP3    H248615   3.749   2.139  13.157  2.6043  2.5571  2.5328
 9042TIP3   OH248616   2.446   0.360   5.541  0.2415  0.2952  0.0784
 9042TIP3    H148617   2.401   0.329   5.620  0.0087 -2.8601 -1.1274
 9042TIP3    H248618   2.537   0.331   5.553  0.5352  1.1015 -0.1761
 9043TIP3   OH248619   1.864   4.673  13.950  0.0810 -0.7109  0.5114
 9043TIP3    H148620   1.958   4.661  13.966  0.6158  1.6778 -0.3929
 9043TIP3    H248621   1.831   4.713  14.031 -0.1654 -1.5072  0.8116
 9044TIP3   OH248622   4.450   4.678   3.413  0.2551  0.4219 -0.1287
 9044TIP3    H148623   4.535   4.665   3.455  0.3014  1.5061  0.1498
 9044TIP3    H248624   4.469   4.677   3.319  0.9712  2.7324 -0.0863
 9045TIP3   OH248625   4.770   6.684  13.903  0.2918 -0.0936 -0.0997
 9045TIP3    H148626   4.719   6.691  13.822  0.2402 -2.6106 -0.3396
 9045TIP3    H248627   4.720   6.736  13.967 -1.8958 -1.4004 -0.6565
 9046TIP3   OH248628   3.261   0.747   2.451  0.4081 -0.1429  0.0335
 9046TIP3    H148629   3.179   0.708   2.484  0.3534 -0.4724 -0.4890
 9046TIP3    H248630   3.326   0.721   2.516  0.1241  0.0238  0.3939
 9047TIP3   OH248631   6.797   3.345   1.597  0.2865 -0.0134  0.4970
 9047TIP3    H148632   6.795   3.262   1.550 -0.1656  0.6469 -0.7011
 9047TIP3    H248633   6.862   3.332   1.666  3.3678 -0.0886 -2.1531
 9048TIP3   OH248634   6.533   5.012  12.711  0.2777 -0.6605  0.2592
 9048TIP3    H148635   6.475   5.027  12.636 -0.1541  0.3700  0.7733
 9048TIP3    H248636   6.603   4.957  12.677  0.3057  0.1149 -1.0136
 9049TIP3   OH248637   5.861   1.891  13.870  0.1304  0.1317 -0.5527
 9049TIP3    H148638   5.937   1.834  13.860  1.6975  2.0827 -0.2511
 9049TIP3    H248639   5.862   1.917  13.962 -0.8235  0.3054 -0.5775
 9050TIP3   OH248640   4.646   3.305   3.486 -0.1683 -0.2582  0.9850
 9050TIP3    H148641   4.659   3.349   3.402  1.3911 -0.8970  0.8640
 9050TIP3    H248642   4.579   3.238   3.467  0.3291 -0.5448  0.1850
 9051TIP3   OH248643   5.366   4.801   6.017  0.3809  0.2052  0.5263
 9051TIP3    H148644   5.404   4.844   6.094  0.0327  1.3005  0.1017
 9051TIP3    H248645   5.272   4.805   6.031  0.3032  0.6776 -0.0854
 9052TIP3   OH248646   4.932   0.736   3.707  0.1821  0.0750 -0.2859
 9052TIP3    H148647   4.874   0.736   3.783 -1.8374  0.6436 -1.7300
 9052TIP3    H248648   4.873   0.753   3.633  2.2901  1.2204 -1.7908
 9053TIP3   OH248649   3.494   2.246   4.525 -0.1294 -0.3804 -0.5568
 9053TIP3    H148650   3.552   2.236   4.449 -1.1825  0.2270 -1.4780
 9053TIP3    H248651   3.451   2.331   4.512 -2.0473 -1.2786 -0.5266
 9054TIP3   OH248652   1.159   6.229  10.839  0.1668  0.0768  0.2498
 9054TIP3    H148653   1.065   6.243  10.824  0.3841  1.1039 -0.2117
 9054TIP3    H248654   1.181   6.157  10.779 -0.3557 -0.3168  0.5149
 9055TIP3   OH248655   0.233   6.098  15.957 -0.6179 -0.4063 -0.2254
 9055TIP3    H148656   0.212   6.177  16.006  3.4520  0.2839  0.7814
 9055TIP3    H248657   0.190   6.111  15.872 -2.3558  1.4884  0.8424
 9056TIP3   OH248658   5.553   2.842  12.462  0.4776 -0.6578  0.4066
 9056TIP3    H148659   5.470   2.849  12.510  1.2816  0.2605  1.7299
 9056TIP3    H248660   5.581   2.752  12.475 -0.3779 -1.0176 -0.1742
 9057TIP3   OH248661   3.116   0.493  11.999  0.1769 -0.3079  0.3157
 9057TIP3    H148662   3.032   0.530  11.972  1.1197  1.3813 -0.4770
 9057TIP3    H248663   3.105   0.473  12.091 -0.5074  1.8144  0.7506
 9058TIP3   OH248664   5.385   0.717   3.785  0.1317  0.2896  0.3825
 9058TIP3    H148665   5.397   0.655   3.713  1.5422  0.9083  0.0332
 9058TIP3    H248666   5.328   0.785   3.749  0.7320  0.5323 -0.1341
 9059TIP3   OH248667   1.925   1.520  15.012  0.0047  0.3805 -0.7176
 9059TIP3    H148668   2.003   1.483  14.970  1.1669  2.0972 -0.1663
 9059TIP3    H248669   1.930   1.491  15.103  1.0880  2.0029 -0.2049
 9060TIP3   OH248670   5.890   0.908   2.308  0.6948  0.0217 -0.7194
 9060TIP3    H148671   5.908   0.817   2.285  0.4422 -0.0805 -0.5226
 9060TIP3    H248672   5.962   0.958   2.268  2.1563 -0.5006  1.1321
 9061TIP3   OH248673   5.132   1.495   2.527 -0.9270 -0.1330 -0.4074
 9061TIP3    H148674   5.079   1.539   2.594 -0.7089  0.6813 -0.7683
 9061TIP3    H248675   5.120   1.548   2.448 -0.2199 -0.4057 -0.7032
 9062TIP3   OH248676   0.204   0.945   2.854  0.5930 -0.2634  0.1698
 9062TIP3    H148677   0.197   1.040   2.851 -1.0538 -0.3347  0.6352
 9062TIP3    H248678   0.272   0.924   2.790  1.0478  1.2177  0.1292
 9063TIP3   OH248679   2.846   1.842   0.347 -0.2098  0.0292  0.0866
 9063TIP3    H148680   2.903   1.914   0.376 -0.7751 -0.3207  2.2541
 9063TIP3    H248681   2.885   1.813   0.264 -0.0715  2.9065 -0.9793
 9064TIP3   OH248682   1.246   2.921  16.831  0.0346  0.5744  0.7761
 9064TIP3    H148683   1.151   2.914  16.844 -0.0044 -0.6638  0.0820
 9064TIP3    H248684   1.261   3.012  16.809 -1.4251  0.2608 -1.9342
 9065TIP3   OH248685   3.024   2.515   1.176  0.0789 -0.4048 -0.1061
 9065TIP3    H148686   2.995   2.452   1.242  0.3726  0.1428  0.5562
 9065TIP3    H248687   3.011   2.470   1.093 -3.5582  0.1127  0.0379
 9066TIP3   OH248688   3.712   4.413   0.989 -0.3946 -0.6744  0.7832
 9066TIP3    H148689   3.680   4.323   0.990  1.2444 -1.2771  0.9052
 9066TIP3    H248690   3.637   4.464   0.957 -1.0932 -2.1712 -0.0808
 9067TIP3   OH248691   6.466   0.053   3.397  0.1140  0.1571  0.5379
 9067TIP3    H148692   6.443  -0.033   3.360 -1.1683  0.0838  1.4563
 9067TIP3    H248693   6.408   0.063   3.473  0.1738  1.8807  0.3924
 9068TIP3   OH248694   3.546   5.336  16.988 -0.2679  0.2466  0.1811
 9068TIP3    H148695   3.606   5.268  16.957  0.8476  0.1326  2.3420
 9068TIP3    H248696   3.459   5.298  16.978  0.2701 -1.1112  0.3936
 9069TIP3   OH248697   5.433   5.988   6.488 -0.2084 -0.5063  0.0654
 9069TIP3    H148698   5.528   5.976   6.489  0.0162  1.0460  1.1242
 9069TIP3    H248699   5.413   6.014   6.398  0.4598 -0.2257 -0.0073
 9070TIP3   OH248700   2.587   2.683   0.350  0.2887  0.2184  0.1478
 9070TIP3    H148701   2.621   2.724   0.270 -1.1424  0.1175 -0.5387
 9070TIP3    H248702   2.545   2.754   0.398  0.5967  0.1564  0.5154
 9071TIP3   OH248703   2.679   5.121   1.416 -0.0559  0.6571 -0.3200
 9071TIP3    H148704   2.583   5.117   1.424  0.0896  0.5394  1.9942
 9071TIP3    H248705   2.701   5.210   1.444  0.5114  0.8524 -1.3277
 9072TIP3   OH248706   3.642   1.059  16.271  0.1994  0.4528  0.7618
 9072TIP3    H148707   3.709   0.991  16.277  0.9097  1.0632 -0.0128
 9072TIP3    H248708   3.691   1.141  16.268 -0.3011  0.8193 -3.3925
 9073TIP3   OH248709   3.642   6.842   1.050 -0.2212  0.0723  0.4974
 9073TIP3    H148710   3.698   6.862   0.975  1.2126 -0.6433  1.3161
 9073TIP3    H248711   3.645   6.921   1.104  1.5884 -0.5888  1.4446
 9074TIP3   OH248712   4.765   4.218  10.783  0.2405  0.2396  0.0963
 9074TIP3    H148713   4.688   4.268  10.811 -0.5443 -0.8795  0.0210
 9074TIP3    H248714   4.749   4.201  10.690  0.7000  0.2067  0.0241
 9075TIP3   OH248715   4.548   4.002   0.250  0.5026 -0.3649 -0.0495
 9075TIP3    H148716   4.496   3.922   0.256  1.7828 -1.2915 -0.8021
 9075TIP3    H248717   4.486   4.068   0.221 -0.5996 -1.0564  0.6523
 9076TIP3   OH248718   5.168   2.778  10.754  0.0793 -0.0471  0.2588
 9076TIP3    H148719   5.088   2.726  10.741  0.7265 -0.7679 -1.0207
 9076TIP3    H248720   5.175   2.788  10.849  0.0338 -2.4765  0.5818
 9077TIP3   OH248721   1.328   5.940  14.022  0.2581 -0.4221  0.4321
 9077TIP3    H148722   1.267   5.994  14.071  1.0169  1.2532 -0.3895
 9077TIP3    H248723   1.335   5.983  13.936 -0.5437 -2.8887 -0.9820
 9078TIP3   OH248724   6.571   5.159   5.775 -0.3845  0.6263 -0.0034
 9078TIP3    H148725   6.565   5.217   5.851  0.1667  2.4434 -1.3068
 9078TIP3    H248726   6.649   5.106   5.792 -0.5435  0.6567  0.9085
 9079TIP3   OH248727   0.015   5.077  14.209 -0.2155 -0.1295 -0.2986
 9079TIP3    H148728   0.075   5.019  14.257  0.5777 -1.5273 -2.8109
 9079TIP3    H248729  -0.054   5.098  14.273  2.5395  1.0934  2.5811
 9080TIP3   OH248730   6.535   2.355  16.559 -0.6345  0.0955  0.0407
 9080TIP3    H148731   6.499   2.395  16.639 -0.2989  0.3076  0.0866
 9080TIP3    H248732   6.627   2.378  16.560 -0.3467 -1.0169  0.2663
 9081TIP3   OH248733   4.683   2.507   2.535 -0.5305 -0.2112  0.8304
 9081TIP3    H148734   4.659   2.587   2.582  0.5040  1.5282 -1.4231
 9081TIP3    H248735   4.618   2.443   2.562 -2.3567  1.8383  1.5633
 9082TIP3   OH248736   1.305   5.031   5.027  0.0450 -0.2372 -0.8137
 9082TIP3    H148737   1.388   4.985   5.012  1.9934  2.5027  0.7830
 9082TIP3    H248738   1.299   5.094   4.955 -0.2490  0.1409 -0.4595
 9083TIP3   OH248739   1.862   0.165  11.606  0.4183 -0.0772  0.0494
 9083TIP3    H148740   1.882   0.191  11.517  0.2742  2.5841  0.7066
 9083TIP3    H248741   1.916   0.087  11.622 -0.3291 -1.2488 -2.6187
 9084TIP3   OH248742   6.819   5.703  15.423  0.3090  0.6225 -0.6011
 9084TIP3    H148743   6.764   5.737  15.352  0.5586  1.0810 -0.5793
 9084TIP3    H248744   6.759   5.691  15.496 -0.0152 -0.1740 -0.9832
 9085TIP3   OH248745   3.071   3.994   6.617 -0.5457  0.1723 -0.2093
 9085TIP3    H148746   3.032   3.912   6.586  0.6853 -0.5744  0.1471
 9085TIP3    H248747   3.165   3.981   6.608 -0.3080  1.3808  0.2977
 9086TIP3   OH248748   5.417   5.779   1.711  0.6317 -0.3217 -0.0315
 9086TIP3    H148749   5.349   5.845   1.724  1.5790  0.6588  0.1073
 9086TIP3    H248750   5.416   5.762   1.617  2.3708  2.2018 -0.6334
 9087TIP3   OH248751   2.771   2.462  13.748 -0.0967  0.2879  0.5363
 9087TIP3    H148752   2.803   2.519  13.679  0.0679  0.8976  1.1080
 9087TIP3    H248753   2.688   2.501  13.776  0.4016  0.7213  1.4761
 9088TIP3   OH248754   6.774   2.902  10.934  0.0464  0.0796  0.1229
 9088TIP3    H148755   6.841   2.963  10.962 -0.3779  0.4715  0.2993
 9088TIP3    H248756   6.707   2.957  10.893 -0.3039 -0.2741  0.2158
 9089TIP3   OH248757   2.877   4.028  16.472 -0.2359 -0.0634  0.1395
 9089TIP3    H148758   2.837   4.076  16.400 -1.4322  0.3485  1.0424
 9089TIP3    H248759   2.851   3.937  16.457 -1.2465  0.1513  0.5252
 9090TIP3   OH248760   1.296   1.364  10.683  0.6548  0.3041 -0.3541
 9090TIP3    H148761   1.275   1.424  10.755 -0.7956  1.1266 -1.4068
 9090TIP3    H248762   1.242   1.395  10.610  1.1354 -1.2792 -1.4257
 9091TIP3   OH248763   4.660   3.380  12.693 -0.2954 -1.3899  0.2931
 9091TIP3    H148764   4.711   3.388  12.773 -0.7550 -1.5011  0.6049
 9091TIP3    H248765   4.722   3.350  12.627  0.0332 -1.5458  0.6717
 9092TIP3   OH248766   0.087   1.890  15.064  0.4257  0.1609 -0.3250
 9092TIP3    H148767   0.033   1.860  15.136  0.6571 -0.6922 -0.4969
 9092TIP3    H248768   0.025   1.913  14.995  0.0688  2.7335  0.7178
 9093TIP3   OH248769   3.602   5.702   1.426  0.3744  0.1692 -0.0353
 9093TIP3    H148770   3.573   5.621   1.383  1.6637 -0.2380 -0.1705
 9093TIP3    H248771   3.681   5.677   1.474  1.2408  1.5180 -0.7091
 9094TIP3   OH248772   6.427   3.266   5.408 -0.3496  0.9017 -0.5772
 9094TIP3    H148773   6.366   3.339   5.395  1.2371  2.2940 -0.5177
 9094TIP3    H248774   6.510   3.298   5.374  0.1316 -1.3844 -1.7374
 9095TIP3   OH248775   3.445   2.958  14.949  0.2035 -0.6142  0.5394
 9095TIP3    H148776   3.501   2.890  14.988 -0.8298 -0.3424  2.6758
 9095TIP3    H248777   3.358   2.917  14.945  0.0266 -0.1657 -0.2490
 9096TIP3   OH248778   5.260   1.325   2.760 -0.2765 -0.4433  0.3821
 9096TIP3    H148779   5.238   1.311   2.852  0.2294 -1.0057  0.4256
 9096TIP3    H248780   5.212   1.404   2.735 -0.3963 -0.2723  1.1367
 9097TIP3   OH248781   5.778   1.156  11.526  0.0698  0.2595 -0.2929
 9097TIP3    H148782   5.842   1.117  11.467 -2.5878 -1.5967 -2.1612
 9097TIP3    H248783   5.748   1.234  11.481 -1.8315 -1.0645 -1.4822
 9098TIP3   OH248784   1.097   5.552   2.168 -0.3120 -0.3200 -0.0995
 9098TIP3    H148785   1.101   5.457   2.155  0.4525 -0.1579 -1.2221
 9098TIP3    H248786   1.180   5.584   2.133 -0.5599  0.7664  0.2731
 9099TIP3   OH248787   5.903   0.518  15.363  0.1517  0.6415 -0.1895
 9099TIP3    H148788   5.858   0.512  15.447  0.3354  0.1959 -0.1161
 9099TIP3    H248789   5.865   0.448  15.310  2.9854 -2.0180  0.9760
 9100TIP3   OH248790   1.063   6.195  11.987 -0.6302  0.0324 -0.2671
 9100TIP3    H148791   1.115   6.271  11.960 -1.1509 -0.1015 -1.7703
 9100TIP3    H248792   0.979   6.232  12.013 -0.2624  0.1250  0.8173
 9101TIP3   OH248793   1.792   0.465  13.280  0.0777 -0.4263  0.6760
 9101TIP3    H148794   1.851   0.392  13.302  0.2908  0.1354  2.0753
 9101TIP3    H248795   1.706   0.435  13.309 -0.4339 -1.3391 -1.5736
 9102TIP3   OH248796   4.184   2.967   2.380 -0.0121  0.0973  1.3319
 9102TIP3    H148797   4.203   2.998   2.469 -1.9056 -2.5253  2.8085
 9102TIP3    H248798   4.089   2.974   2.372  0.1420  0.4692 -0.6180
 9103TIP3   OH248799   2.801   2.751   5.497  0.0694  0.3016  0.1088
 9103TIP3    H148800   2.749   2.831   5.493 -1.4603 -0.7042 -1.6777
 9103TIP3    H248801   2.889   2.779   5.469 -0.1808  1.5154  0.4660
 9104TIP3   OH248802   3.953   6.542  12.653 -0.2481  0.2224  0.3311
 9104TIP3    H148803   3.981   6.490  12.728  0.1669 -0.6062 -0.3870
 9104TIP3    H248804   3.995   6.501  12.578 -2.0790 -0.0543 -0.5905
 9105TIP3   OH248805   0.276   0.503  13.731  0.2527  0.0194 -0.1349
 9105TIP3    H148806   0.290   0.568  13.662  1.1578  0.4236  0.4111
 9105TIP3    H248807   0.290   0.419  13.687  0.0421  0.2308 -0.6207
 9106TIP3   OH248808   5.019   6.586  16.115  0.2104 -0.1572  0.5731
 9106TIP3    H148809   4.940   6.630  16.083  0.8668  0.6562  0.0333
 9106TIP3    H248810   5.081   6.657  16.130  1.3689 -0.9192 -0.5046
 9107TIP3   OH248811   1.556   3.680  15.060  0.4961  0.3625  0.2848
 9107TIP3    H148812   1.579   3.596  15.099 -0.1646 -0.0338 -0.1459
 9107TIP3    H248813   1.487   3.658  14.996  0.4488  1.2027  0.0381
 9108TIP3   OH248814   2.060   1.704   4.340 -1.0096  0.1064 -0.2229
 9108TIP3    H148815   2.043   1.780   4.285 -2.1026  0.4856  0.5962
 9108TIP3    H248816   2.132   1.731   4.398 -3.0507  1.5413  1.8319
 9109TIP3   OH248817   4.591   1.943  11.924  0.3346 -0.0052  0.3304
 9109TIP3    H148818   4.529   2.011  11.895 -0.3490 -0.7542  0.0031
 9109TIP3    H248819   4.565   1.865  11.875  3.2604  0.2962 -1.9479
 9110TIP3   OH248820   2.954   0.057   3.269 -0.5817  0.0082  0.3711
 9110TIP3    H148821   3.038   0.098   3.291 -0.6920  1.0740 -1.1172
 9110TIP3    H248822   2.936  -0.000   3.344  1.6110 -0.4884  0.6000
 9111TIP3   OH248823   1.518   2.042   1.769  0.5600 -0.7290 -0.1995
 9111TIP3    H148824   1.536   2.136   1.772  0.1521 -0.6694  0.6711
 9111TIP3    H248825   1.512   2.021   1.676  0.6927  0.0991 -0.3965
 9112TIP3   OH248826   3.110   1.481   1.768 -0.2099 -0.3662 -0.0755
 9112TIP3    H148827   3.122   1.493   1.674 -1.2318 -0.9197 -0.2865
 9112TIP3    H248828   3.041   1.415   1.775  0.2661 -0.7727  1.0584
 9113TIP3   OH248829   4.400   3.989   0.731 -0.1527 -0.3939 -0.0833
 9113TIP3    H148830   4.378   3.988   0.824  1.1194 -1.4118  0.2314
 9113TIP3    H248831   4.471   4.053   0.724  1.0811 -1.7136 -0.0007
 9114TIP3   OH248832   6.815   4.845   1.257 -0.0801 -0.2636  0.1902
 9114TIP3    H148833   6.826   4.795   1.176 -0.3128 -0.5233  0.3197
 9114TIP3    H248834   6.737   4.808   1.298  0.7269 -0.9818  1.1487
 9115TIP3   OH248835   0.048   2.644   2.068 -0.1930 -0.5523 -0.7968
 9115TIP3    H148836  -0.023   2.682   2.119 -1.2639  1.2538 -3.4190
 9115TIP3    H248837   0.029   2.550   2.068 -1.7557 -0.2755 -0.2011
 9116TIP3   OH248838   6.362   1.068   2.871 -0.2234 -0.2365 -0.2075
 9116TIP3    H148839   6.457   1.060   2.863 -0.1370 -0.1432  0.5854
 9116TIP3    H248840   6.348   1.088   2.964 -1.0862 -1.2443 -0.1065
 9117TIP3   OH248841   4.540   4.951  13.656 -0.5905 -0.2713 -0.1388
 9117TIP3    H148842   4.477   5.008  13.610  0.7338 -0.2519 -2.0608
 9117TIP3    H248843   4.565   5.000  13.734 -0.8038  1.0099 -0.8510
 9118TIP3   OH248844   3.555   0.115  16.842 -0.0841  0.1988  0.4336
 9118TIP3    H148845   3.477   0.067  16.872  0.1975 -0.5238  0.0337
 9118TIP3    H248846   3.624   0.089  16.903  0.6376 -1.7283 -1.0760
 9119TIP3   OH248847   5.646   6.432   0.749 -0.5343 -0.2181 -0.0198
 9119TIP3    H148848   5.610   6.446   0.836  0.0946  0.3580  0.1543
 9119TIP3    H248849   5.575   6.456   0.689 -1.6602 -2.4642  0.3036
 9120TIP3   OH248850   6.655   0.023   3.609 -0.2436 -0.5417 -0.2823
 9120TIP3    H148851   6.561   0.027   3.589 -0.5933 -0.8493  1.1873
 9120TIP3    H248852   6.679  -0.068   3.592 -0.4584 -0.7126  0.2798
 9121TIP3   OH248853   3.920   0.334   4.639  0.3800  0.0304 -0.3496
 9121TIP3    H148854   3.903   0.311   4.730 -1.1734  0.3822 -0.5361
 9121TIP3    H248855   3.907   0.251   4.591  2.6019 -0.5136 -0.1390
 9122TIP3   OH248856   2.152   4.590  12.419 -0.1459  0.6651 -0.2928
 9122TIP3    H148857   2.181   4.674  12.454  0.1093  0.7201 -0.6260
 9122TIP3    H248858   2.125   4.539  12.496  0.7050  0.6680  0.0209
 9123TIP3   OH248859   1.927   6.642   1.977  0.4594  0.0626 -0.1495
 9123TIP3    H148860   1.856   6.705   1.978 -0.5762 -1.0367 -0.9792
 9123TIP3    H248861   1.900   6.574   2.039  0.6235 -0.5367 -0.7282
 9124TIP3   OH248862   0.718   0.386  14.980 -0.0827  0.3972 -1.1069
 9124TIP3    H148863   0.718   0.481  14.987  3.9967  0.5264  3.8323
 9124TIP3    H248864   0.644   0.357  15.034 -0.8607  0.7316 -1.9808
 9125TIP3   OH248865   3.841   4.912  11.520  0.1025 -0.4014  0.5233
 9125TIP3    H148866   3.863   4.972  11.449  0.3820  1.0511  1.7892
 9125TIP3    H248867   3.758   4.872  11.492  1.0323 -1.1293 -1.3513
 9126TIP3   OH248868   0.418   2.316  14.702 -0.6748  0.8462  0.0127
 9126TIP3    H148869   0.471   2.244  14.666  0.5747  0.4191  2.5037
 9126TIP3    H248870   0.334   2.275  14.725 -1.3129  1.0254 -1.8126
 9127TIP3   OH248871   6.025   3.825   6.266 -0.3521 -1.1662 -0.4775
 9127TIP3    H148872   6.002   3.793   6.353 -0.0346 -0.7268 -0.2295
 9127TIP3    H248873   5.958   3.787   6.208  0.4531 -2.9006 -0.3257
 9128TIP3   OH248874   2.530   5.727   2.023  0.5229 -0.0064 -0.1784
 9128TIP3    H148875   2.476   5.655   2.056  1.4952  0.0294  1.6064
 9128TIP3    H248876   2.474   5.771   1.959 -1.5474 -0.0376  1.4872
 9129TIP3   OH248877   6.064   4.984  13.224 -0.0222 -0.2350 -0.6001
 9129TIP3    H148878   6.090   4.892  13.226  1.4561  0.0704  3.2844
 9129TIP3    H248879   6.142   5.032  13.196  0.2587 -0.0376  0.4449
 9130TIP3   OH248880   3.978   5.283  10.785 -0.1004 -0.1294 -0.7446
 9130TIP3    H148881   4.072   5.264  10.785 -0.3483 -1.8145  1.6561
 9130TIP3    H248882   3.972   5.375  10.811  0.8862 -0.2361 -0.0964
 9131TIP3   OH248883   6.291   4.810   5.692  0.2554  0.2773 -0.6873
 9131TIP3    H148884   6.354   4.787   5.760  1.2002 -2.5493 -2.3452
 9131TIP3    H248885   6.337   4.873   5.637  0.0115  1.4645  0.4261
 9132TIP3   OH248886   5.627   5.755   4.858 -0.0942 -0.2723  0.3121
 9132TIP3    H148887   5.548   5.776   4.807  0.3465 -0.7424 -0.5859
 9132TIP3    H248888   5.647   5.836   4.905 -1.1928 -0.1892  0.6738
 9133TIP3   OH248889   2.303   5.187   0.643 -0.1992 -0.8097 -0.1723
 9133TIP3    H148890   2.330   5.135   0.718 -2.0675 -2.6684 -0.6746
 9133TIP3    H248891   2.211   5.207   0.659 -0.3390 -0.3191 -1.4451
 9134TIP3   OH248892   2.529   4.059   3.287 -0.1264  0.6446  0.2588
 9134TIP3    H148893   2.515   3.975   3.242 -0.8486  0.6288  0.4916
 9134TIP3    H248894   2.489   4.124   3.230  0.6863  0.8778 -0.0596
 9135TIP3   OH248895   5.340   6.216   1.287 -0.4260  0.0391  0.5526
 9135TIP3    H148896   5.419   6.167   1.306 -0.6909 -0.7711 -0.3139
 9135TIP3    H248897   5.360   6.306   1.310  0.2290 -0.4034  1.7513
 9136TIP3   OH248898   3.694   6.501  13.478 -0.2124  0.2605 -0.2169
 9136TIP3    H148899   3.707   6.467  13.567 -1.5921 -1.7392 -0.7030
 9136TIP3    H248900   3.782   6.515  13.445  0.3411  1.7823  1.6860
 9137TIP3   OH248901   6.084   1.513  15.570  0.7885 -0.2560  0.2580
 9137TIP3    H148902   6.005   1.529  15.518 -0.1642 -0.9338  1.4642
 9137TIP3    H248903   6.129   1.598  15.570  0.6258 -0.1364 -1.3218
 9138TIP3   OH248904   0.444   5.133   4.497  0.0458 -0.2479 -0.0570
 9138TIP3    H148905   0.491   5.192   4.438 -0.0286 -0.9247 -0.8072
 9138TIP3    H248906   0.450   5.047   4.456  0.0091 -0.7441  0.9355
 9139TIP3   OH248907   1.967   4.859  16.901  0.0461  0.0549 -0.1569
 9139TIP3    H148908   1.921   4.869  16.984  0.1110  0.4709 -0.1704
 9139TIP3    H248909   2.004   4.771  16.905 -2.3996 -1.1012 -0.9717
 9140TIP3   OH248910   5.551   3.684   3.998  0.5245  0.3262 -0.2510
 9140TIP3    H148911   5.565   3.732   3.916  1.2852  1.2818  0.4139
 9140TIP3    H248912   5.505   3.745   4.054 -1.2799 -0.8208 -0.4178
 9141TIP3   OH248913   2.686   0.953   5.784  0.1908 -0.5302  0.0792
 9141TIP3    H148914   2.719   1.043   5.786  1.4392 -0.9580  1.6618
 9141TIP3    H248915   2.612   0.954   5.845 -1.4728 -0.0636 -1.8299
 9142TIP3   OH248916   5.422   3.006  16.220 -0.4377  0.1479  0.5967
 9142TIP3    H148917   5.435   2.930  16.164  2.8981  1.4632 -0.6689
 9142TIP3    H248918   5.380   3.071  16.164  1.5613  0.9635 -0.0304
 9143TIP3   OH248919   2.077   2.304  12.665 -0.0896 -0.1784  0.2322
 9143TIP3    H148920   2.147   2.369  12.663 -1.8076  1.8305  1.5807
 9143TIP3    H248921   2.065   2.279  12.573 -0.2103  2.4203 -0.5249
 9144TIP3   OH248922   0.141   3.578   0.089  0.2109  0.3083 -0.0815
 9144TIP3    H148923   0.216   3.603   0.035 -0.5188 -0.7208 -1.6486
 9144TIP3    H248924   0.180   3.548   0.171  1.3169  2.5123  0.2715
 9145TIP3   OH248925   3.139   1.681  12.442 -0.0136  0.8139  0.2365
 9145TIP3    H148926   3.215   1.660  12.496  1.6613  0.0815 -2.1985
 9145TIP3    H248927   3.072   1.619  12.469  1.3816 -0.7339  0.2813
 9146TIP3   OH248928   1.316   5.973   2.453  0.0298  0.1035 -0.3649
 9146TIP3    H148929   1.386   5.964   2.389 -0.6533 -0.8322 -1.0114
 9146TIP3    H248930   1.350   5.931   2.532 -0.0158 -0.9220 -0.8693
 9147TIP3   OH248931   4.788   4.332   1.115 -0.6106  0.8900 -0.2667
 9147TIP3    H148932   4.802   4.423   1.089  0.1744  0.5727 -0.9964
 9147TIP3    H248933   4.723   4.337   1.186 -0.7833  1.9873 -0.4845
 9148TIP3   OH248934   1.613   5.616  15.549  0.0409  0.0491  0.0893
 9148TIP3    H148935   1.698   5.574  15.536  0.2726  1.2391 -3.1631
 9148TIP3    H248936   1.553   5.545  15.569  1.1305 -1.3608 -1.4176
 9149TIP3   OH248937   6.236   3.683  14.497 -0.5319  0.3853  0.2278
 9149TIP3    H148938   6.193   3.628  14.431 -1.3590  0.4265  0.7129
 9149TIP3    H248939   6.169   3.695  14.564  0.1771  0.6574  0.8943
 9150TIP3   OH248940   3.969   2.327  16.277  0.0893  0.3350  0.4018
 9150TIP3    H148941   4.019   2.259  16.230 -0.7108 -0.5732  0.8174
 9150TIP3    H248942   3.886   2.331  16.230  0.3014  1.3616  0.1113
 9151TIP3   OH248943   2.807   0.127   2.220 -0.1123  0.2767 -0.1438
 9151TIP3    H148944   2.776   0.068   2.151  0.0861 -0.7838  0.6559
 9151TIP3    H248945   2.765   0.211   2.200 -2.8025 -0.8482  0.3625
 9152TIP3   OH248946   2.274   3.683   5.247 -0.2808 -0.1934  0.9445
 9152TIP3    H148947   2.236   3.607   5.290 -0.9435  0.1779  1.0215
 9152TIP3    H248948   2.214   3.704   5.175  1.2159 -1.3120 -0.7421
 9153TIP3   OH248949   0.631   1.665   4.637 -0.3423 -0.2971 -0.1658
 9153TIP3    H148950   0.691   1.653   4.563 -1.1725  0.7433 -1.0560
 9153TIP3    H248951   0.613   1.577   4.668 -1.2460 -0.9181 -2.2750
 9154TIP3   OH248952   2.083   2.928  11.824 -0.1481  0.6044  0.8299
 9154TIP3    H148953   2.096   2.854  11.883  0.6828 -0.2210 -0.3673
 9154TIP3    H248954   1.989   2.927  11.804 -0.3913  0.7320  1.8968
 9155TIP3   OH248955   2.508   2.467  11.605 -0.1366 -0.3084  0.1009
 9155TIP3    H148956   2.574   2.441  11.541  0.6529 -0.6912  1.0565
 9155TIP3    H248957   2.555   2.518  11.670 -1.0628  0.6674  0.0362
 9156TIP3   OH248958   4.639   3.656   0.950 -0.1835 -0.1038  0.1309
 9156TIP3    H148959   4.564   3.596   0.942  0.9692 -1.3827 -2.0125
 9156TIP3    H248960   4.642   3.701   0.866 -0.0147  1.8221  1.1236
 9157TIP3   OH248961   6.501   2.156   1.919  0.7211 -0.1628  0.3341
 9157TIP3    H148962   6.464   2.070   1.900  0.7113  0.1950 -1.3891
 9157TIP3    H248963   6.432   2.203   1.965  0.0323 -0.4361 -0.4138
 9158TIP3   OH248964   6.704   5.740  13.643  0.0348  0.0576  0.1374
 9158TIP3    H148965   6.760   5.666  13.666  0.5685  0.4743  0.2322
 9158TIP3    H248966   6.749   5.781  13.568 -1.8266 -1.4554 -1.9179
 9159TIP3   OH248967   1.255   1.231   2.130  0.2890  0.1347 -0.4093
 9159TIP3    H148968   1.174   1.209   2.175 -0.3253  2.0364 -0.5074
 9159TIP3    H248969   1.242   1.321   2.099  1.6615 -0.2126 -2.1682
 9160TIP3   OH248970   0.626   1.796  14.672  0.0150 -0.1891 -0.5127
 9160TIP3    H148971   0.703   1.831  14.717  0.5296 -1.7522 -0.1248
 9160TIP3    H248972   0.610   1.712  14.714 -0.1061 -1.2470 -2.5677
 9161TIP3   OH248973   0.562   6.105   3.214 -0.0278  0.1355 -0.2738
 9161TIP3    H148974   0.656   6.096   3.202  0.0459  2.0801 -1.6980
 9161TIP3    H248975   0.523   6.055   3.142 -0.1783 -1.7811  1.0789
 9162TIP3   OH248976   3.689   0.740   0.425 -0.0326  0.2100  0.2195
 9162TIP3    H148977   3.718   0.783   0.506  0.9836 -0.0912  0.0354
 9162TIP3    H248978   3.659   0.812   0.369 -1.6697  0.3406  1.1944
 9163TIP3   OH248979   3.796   6.284  14.877  0.1938  0.3355  0.4915
 9163TIP3    H148980   3.797   6.191  14.900 -0.5160  0.5389  1.4222
 9163TIP3    H248981   3.718   6.295  14.823  0.3109  0.3783  0.3302
 9164TIP3   OH248982   4.881   2.345  15.576  0.7043  0.0748 -0.4207
 9164TIP3    H148983   4.894   2.319  15.668  0.6876 -0.1287 -0.4739
 9164TIP3    H248984   4.787   2.338  15.563  0.5580  1.3096 -0.1027
 9165TIP3   OH248985   5.173   2.482   1.168 -0.8645 -0.2275  0.2145
 9165TIP3    H148986   5.091   2.433   1.173 -0.8540 -0.3592 -0.7835
 9165TIP3    H248987   5.189   2.493   1.074 -0.0303  0.2870  0.4071
 9166TIP3   OH248988   3.062   3.442   1.419 -0.0732  0.2591  0.8860
 9166TIP3    H148989   3.081   3.350   1.404  2.6334  0.6262  1.6151
 9166TIP3    H248990   3.084   3.485   1.337  0.0580  0.4188  1.0036
 9167TIP3   OH248991   6.786   0.587  14.594  0.2762  0.1565  0.1659
 9167TIP3    H148992   6.693   0.605  14.606  0.3769  0.6030  0.3045
 9167TIP3    H248993   6.794   0.492  14.606 -0.2731 -0.0052 -0.5978
 9168TIP3   OH248994   4.347   1.456   3.478  0.1915  0.4749  0.6732
 9168TIP3    H148995   4.365   1.550   3.487  3.6286 -0.0893  1.0161
 9168TIP3    H248996   4.411   1.426   3.414 -0.1497 -1.8140  1.3309
 9169TIP3   OH248997   4.506   0.426  11.073  0.0874  0.4421 -0.1655
 9169TIP3    H148998   4.507   0.520  11.060  3.3282  0.2982 -1.9486
 9169TIP3    H248999   4.548   0.412  11.158 -2.8541  0.5597  1.4661
 9170TIP3   OH249000   0.456   4.207   0.457  0.6389 -0.5031 -0.8107
 9170TIP3    H149001   0.399   4.139   0.420  0.8686 -1.1384 -0.0144
 9170TIP3    H249002   0.443   4.282   0.400 -2.1612 -0.1291  0.1729
 9171TIP3   OH249003   6.020   1.257   0.396  0.9072 -0.2346 -0.2572
 9171TIP3    H149004   5.939   1.272   0.348  1.9271 -0.9772 -2.3271
 9171TIP3    H249005   5.998   1.276   0.488 -0.8356  2.3295 -1.1119
 9172TIP3   OH249006   3.824   4.513   2.241 -0.2852 -0.0230  0.4344
 9172TIP3    H149007   3.751   4.452   2.251 -0.1330 -0.3064 -0.1071
 9172TIP3    H249008   3.791   4.580   2.181  0.4362 -1.0903 -1.2453
 9173TIP3   OH249009   5.537   2.562   5.587  0.3449  0.4419  0.1563
 9173TIP3    H149010   5.523   2.468   5.578  0.8544  0.2335  1.4077
 9173TIP3    H249011   5.503   2.599   5.505 -0.6537 -0.7392  0.0088
 9174TIP3   OH249012   1.633   4.630   5.207  0.2587  0.4878 -0.7272
 9174TIP3    H149013   1.558   4.613   5.264 -0.0370 -1.0185 -1.5198
 9174TIP3    H249014   1.695   4.677   5.263  0.1922 -1.3377  1.0129
 9175TIP3   OH249015   1.754   0.068  13.219 -0.2888  0.6115 -0.1971
 9175TIP3    H149016   1.758  -0.011  13.273 -0.6113  1.8170  1.6987
 9175TIP3    H249017   1.672   0.110  13.246 -1.6549  0.1942 -3.2850
 9176TIP3   OH249018   4.195   5.912  13.474 -0.1910  0.1904 -0.1861
 9176TIP3    H149019   4.106   5.898  13.443  0.2085 -2.0837 -0.4995
 9176TIP3    H249020   4.188   5.916  13.569 -0.5230 -1.3591 -0.1179
 9177TIP3   OH249021   0.079   3.869   0.830  0.0929 -0.1620 -0.0343
 9177TIP3    H149022   0.117   3.835   0.912 -0.3732  0.3530  0.3951
 9177TIP3    H249023   0.017   3.936   0.858 -0.1200 -0.0307 -0.8120
 9178TIP3   OH249024   3.411   3.610   1.416 -0.2481 -0.1566  0.9941
 9178TIP3    H149025   3.460   3.527   1.424 -0.6186 -0.6965 -1.5868
 9178TIP3    H249026   3.439   3.661   1.493  0.9653 -2.1581  1.9793
 9179TIP3   OH249027   5.417   3.086  11.559 -0.0053 -0.2774  0.2262
 9179TIP3    H149028   5.360   3.089  11.482  1.8962  0.4226 -1.2488
 9179TIP3    H249029   5.400   3.167  11.606 -1.3028 -0.7853  0.6714
 9180TIP3   OH249030   0.644   0.801  11.384  0.1080  0.5029 -0.3278
 9180TIP3    H149031   0.732   0.831  11.409 -0.4626  0.8782  1.3742
 9180TIP3    H249032   0.642   0.709  11.410  0.3760  0.1516 -1.4862
 9181TIP3   OH249033   1.375   0.441  14.578  0.6099  0.3670 -0.3237
 9181TIP3    H149034   1.448   0.413  14.634  0.1199 -1.4972 -0.5274
 9181TIP3    H249035   1.297   0.404  14.621 -0.1628  1.7992 -0.4403
 9182TIP3   OH249036   2.978   0.053  12.008  0.1102 -0.1501 -0.5424
 9182TIP3    H149037   2.942   0.086  11.926 -1.6750 -1.9769 -0.5718
 9182TIP3    H249038   2.955   0.120  12.073  1.2134  1.1312 -1.4076
 9183TIP3   OH249039   4.412   5.962  15.993  0.5658 -0.0920 -0.1844
 9183TIP3    H149040   4.319   5.985  16.003  0.6507 -0.1710  0.8224
 9183TIP3    H249041   4.446   6.030  15.935 -0.1187 -0.0598 -0.5665
 9184TIP3   OH249042   6.129   3.514  12.242  0.6498 -0.3779  0.0452
 9184TIP3    H149043   6.173   3.441  12.199  1.0344  0.4593 -1.0302
 9184TIP3    H249044   6.038   3.484  12.252  0.6393 -0.7510 -1.0160
 9185TIP3   OH249045   2.767   2.303  12.720 -0.2647 -0.0537  0.2511
 9185TIP3    H149046   2.853   2.266  12.737  0.3092  1.6403  1.3272
 9185TIP3    H249047   2.731   2.322  12.807 -1.2828  0.2238 -0.2135
 9186TIP3   OH249048   6.668   2.970  12.998 -0.0953  0.2071  0.5397
 9186TIP3    H149049   6.619   2.976  12.916 -2.8039 -1.4742  1.8727
 9186TIP3    H249050   6.648   3.052  13.044 -0.2880  0.2482  0.3820
 9187TIP3   OH249051   3.026   3.699   1.557 -0.6184 -0.2138  0.2518
 9187TIP3    H149052   3.061   3.621   1.513  0.0768  1.0486 -1.5428
 9187TIP3    H249053   3.001   3.668   1.644 -2.4561 -2.9633 -1.0978
 9188TIP3   OH249054   4.235   4.866   3.191 -0.1985  0.4346 -0.0212
 9188TIP3    H149055   4.268   4.895   3.276  1.7038 -0.0800 -0.5355
 9188TIP3    H249056   4.232   4.771   3.197 -0.1745  0.4025 -0.4855
 9189TIP3   OH249057   4.625   3.313   3.142  0.0506  0.1766  0.3484
 9189TIP3    H149058   4.695   3.249   3.153  0.8619  0.9851 -0.0316
 9189TIP3    H249059   4.664   3.384   3.091 -0.9916  0.7295  0.2793
 9190TIP3   OH249060   4.489   1.424   1.448 -0.1783 -0.0964 -0.2276
 9190TIP3    H149061   4.432   1.357   1.487 -0.7219  0.2097 -0.4918
 9190TIP3    H249062   4.495   1.400   1.356  0.6387 -0.4857 -0.0832
 9191TIP3   OH249063   1.630   4.890   6.144 -0.1491 -0.1478  0.2696
 9191TIP3    H149064   1.621   4.833   6.220  0.4484 -0.4928  0.0881
 9191TIP3    H249065   1.714   4.934   6.157 -0.5404  0.6071  0.3448
 9192TIP3   OH249066   6.255   3.017  11.071  0.5692 -0.5537 -0.4270
 9192TIP3    H149067   6.308   3.038  10.994  1.2691 -0.7616 -0.0100
 9192TIP3    H249068   6.171   2.987  11.035  0.0079  1.5980 -1.0733
 9193TIP3   OH249069   6.612   2.943   0.247 -0.0020  0.5046  0.3641
 9193TIP3    H149070   6.581   2.852   0.242 -0.4566  0.7114 -0.8284
 9193TIP3    H249071   6.703   2.938   0.216 -0.0596  0.4745  0.1997
 9194TIP3   OH249072   0.339   4.875   0.601 -0.1852  0.0263 -0.5320
 9194TIP3    H149073   0.289   4.802   0.637  2.5157 -0.9883  1.4544
 9194TIP3    H249074   0.344   4.938   0.672  2.1061 -0.3416 -0.3138
 9195TIP3   OH249075   4.695   3.600  15.541  0.5504  0.2415  0.7613
 9195TIP3    H149076   4.650   3.671  15.586 -1.1099 -0.6239  0.5238
 9195TIP3    H249077   4.637   3.576  15.470  1.2634 -1.1091  0.6033
 9196TIP3   OH249078   0.810   2.891  13.116 -0.1383  0.1832 -0.0758
 9196TIP3    H149079   0.792   2.804  13.079 -2.2307  0.4898  0.1543
 9196TIP3    H249080   0.891   2.878  13.166 -0.6094 -1.7390  0.2835
 9197TIP3   OH249081   6.671   1.104  16.778  0.2697 -0.4148 -0.0915
 9197TIP3    H149082   6.581   1.119  16.809 -0.0632 -0.7349 -0.8804
 9197TIP3    H249083   6.721   1.088  16.858 -0.1827  0.6901  0.4342
 9198TIP3   OH249084   0.112   1.469   4.100 -0.5212 -0.1101 -0.0294
 9198TIP3    H149085   0.025   1.501   4.074  0.0159 -0.7094 -2.8013
 9198TIP3    H249086   0.173   1.531   4.061  0.3702  0.0984  1.5884
 9199TIP3   OH249087   5.036   1.443   5.006  0.0303 -0.8019 -0.4078
 9199TIP3    H149088   4.955   1.477   4.968  1.2789  1.0248 -1.6015
 9199TIP3    H249089   5.057   1.367   4.952  1.2824  1.2176 -2.9655
 9200TIP3   OH249090   0.333   1.325  13.916  0.2500  0.6202 -0.1179
 9200TIP3    H149091   0.300   1.353  13.830  0.8293 -1.7449 -1.1998
 9200TIP3    H249092   0.424   1.356  13.918 -0.5141  2.9796  0.8316
 9201TIP3   OH249093   1.618   4.306   4.972 -0.3451 -0.2593 -0.2363
 9201TIP3    H149094   1.599   4.399   4.962  0.5220  0.0153  0.4839
 9201TIP3    H249095   1.533   4.264   4.974 -0.9687  0.8789  2.7519
 9202TIP3   OH249096   6.090   5.164   1.615  0.2608 -0.2823  0.0475
 9202TIP3    H149097   6.011   5.138   1.567  0.5850  1.0305 -1.2920
 9202TIP3    H249098   6.146   5.086   1.614  0.3981 -0.2211 -2.0883
 9203TIP3   OH249099   0.836   1.415   1.184 -0.6658  0.3727  0.2513
 9203TIP3    H149100   0.905   1.481   1.177  0.0331 -0.4511 -0.9542
 9203TIP3    H249101   0.816   1.412   1.278  2.3865 -0.7903  0.9824
 9204TIP3   OH249102   6.269   3.556   2.716 -0.4000 -0.1496 -0.4908
 9204TIP3    H149103   6.356   3.564   2.677  0.0187 -0.2112  0.4091
 9204TIP3    H249104   6.264   3.628   2.778 -1.5542  0.7271 -1.5428
 9205TIP3   OH249105   0.803   2.336   3.637  0.9133 -0.2917 -0.2799
 9205TIP3    H149106   0.832   2.402   3.574  0.4808  0.5184  0.3703
 9205TIP3    H249107   0.877   2.326   3.697  0.2990  0.9887  0.7356
 9206TIP3   OH249108   0.899   3.550  15.092  0.0818  0.2434 -0.2570
 9206TIP3    H149109   0.858   3.574  15.009 -0.0897  1.6456  0.2007
 9206TIP3    H249110   0.850   3.599  15.158  1.8693  1.2390  0.3988
 9207TIP3   OH249111   1.228   3.919  11.379 -0.4410 -0.3690 -0.3038
 9207TIP3    H149112   1.159   3.926  11.445  0.6577 -1.7222  1.0731
 9207TIP3    H249113   1.183   3.934  11.296 -2.2822 -0.6322  0.5801
 9208TIP3   OH249114   0.833   4.309   2.934 -0.1959  0.3888 -0.0095
 9208TIP3    H149115   0.753   4.359   2.925 -1.7911 -1.2331  3.1922
 9208TIP3    H249116   0.804   4.222   2.961  2.5991 -0.8951 -0.7236
 9209TIP3   OH249117   6.526   1.812  10.827  0.3660 -0.3676  0.3103
 9209TIP3    H149118   6.483   1.825  10.742  0.4463 -0.4306  0.2604
 9209TIP3    H249119   6.556   1.900  10.851  0.5922 -0.3955  0.1387
 9210TIP3   OH249120   5.715   0.804  15.897 -0.0616 -0.4033  0.6647
 9210TIP3    H149121   5.709   0.797  15.992 -1.7082  1.8973  0.8269
 9210TIP3    H249122   5.705   0.898  15.880 -1.8988 -0.9669 -1.8953
 9211TIP3   OH249123   2.382   5.812   5.953  0.6448 -0.5186  0.1269
 9211TIP3    H149124   2.316   5.823   6.022  0.3114  0.9901 -0.3775
 9211TIP3    H249125   2.459   5.778   5.998  1.8192  4.0730  2.1673
 9212TIP3   OH249126   4.319   2.894  11.471 -0.4264  0.5728  0.0059
 9212TIP3    H149127   4.308   2.980  11.431 -0.9381  0.1518 -0.7920
 9212TIP3    H249128   4.235   2.876  11.514 -0.1946  0.6239  0.4934
 9213TIP3   OH249129   1.735   0.486  11.701  0.1859 -0.4244 -0.0883
 9213TIP3    H149130   1.713   0.454  11.789 -0.8871  1.5145  0.3958
 9213TIP3    H249131   1.659   0.538  11.674  0.7561 -0.4736 -1.9239
 9214TIP3   OH249132   0.462   3.975  14.686  0.0322  0.0113 -0.9346
 9214TIP3    H149133   0.391   3.951  14.627 -0.4917 -0.7514 -0.0230
 9214TIP3    H249134   0.541   3.940  14.644 -0.3963 -0.9785 -0.9295
 9215TIP3   OH249135   6.363   2.737  10.936  0.5191  0.3567 -0.5475
 9215TIP3    H149136   6.407   2.785  10.865 -1.6573 -1.8628 -3.6457
 9215TIP3    H249137   6.273   2.770  10.935 -0.0373 -1.0958 -0.1439
 9216TIP3   OH249138   2.359   4.278   4.348 -0.8378 -0.1312 -0.0756
 9216TIP3    H149139   2.414   4.356   4.352 -0.0303 -0.7107  0.9178
 9216TIP3    H249140   2.310   4.279   4.430 -2.0851  0.1909 -0.7966
 9217TIP3   OH249141   1.780   1.670   5.329  0.2362  0.0889  0.3132
 9217TIP3    H149142   1.749   1.700   5.415  0.8872 -0.5804  0.7970
 9217TIP3    H249143   1.805   1.579   5.344 -0.0792 -0.1758 -0.7080
 9218TIP3   OH249144   2.894   3.272  12.132 -0.3017  0.4342  1.0080
 9218TIP3    H149145   2.909   3.266  12.227 -0.0593  1.4468  1.0452
 9218TIP3    H249146   2.818   3.329  12.123 -1.6377 -1.2923  0.6405
 9219TIP3   OH249147   6.553   5.743  11.303 -0.4563 -0.0127 -0.9391
 9219TIP3    H149148   6.647   5.756  11.312 -0.6180  0.5400  0.0797
 9219TIP3    H249149   6.536   5.661  11.350 -0.5553  0.1865 -0.6204
 9220TIP3   OH249150   5.725   1.011  16.311  0.2528  0.2215  0.6899
 9220TIP3    H149151   5.737   1.082  16.373  0.6153  0.4361  0.3760
 9220TIP3    H249152   5.806   0.961  16.315 -1.0838 -1.9892  3.1609
 9221TIP3   OH249153   4.412   6.653  16.725 -0.4329 -0.4505  0.1748
 9221TIP3    H149154   4.368   6.590  16.782  0.4413  0.7842  2.3270
 9221TIP3    H249155   4.490   6.680  16.774  0.9359 -0.0469 -2.0645
 9222TIP3   OH249156   1.129   3.955  15.159 -0.4261  0.6748 -0.3843
 9222TIP3    H149157   1.162   4.011  15.088  0.8187  0.0907 -0.3026
 9222TIP3    H249158   1.036   3.945  15.141 -0.3406  1.4215 -1.3312
 9223TIP3   OH249159   1.965   0.585  14.503  0.0276  0.1268  0.6687
 9223TIP3    H149160   2.043   0.571  14.557 -0.2814 -1.1041  0.8282
 9223TIP3    H249161   1.997   0.574  14.413  0.0423 -0.4320  0.7363
 9224TIP3   OH249162   0.299   0.739   5.778 -0.6368 -0.3663 -0.3715
 9224TIP3    H149163   0.241   0.710   5.848 -0.9014  1.7225  0.3254
 9224TIP3    H249164   0.376   0.774   5.823  0.1148 -0.8811 -1.2087
 9225TIP3   OH249165   5.848   4.372   0.017 -0.5859 -0.3212 -0.2209
 9225TIP3    H149166   5.906   4.388  -0.057  0.1360  0.5244  0.5047
 9225TIP3    H249167   5.760   4.376  -0.020 -0.2226 -0.6052 -1.1489
 9226TIP3   OH249168   5.497   2.897  14.146 -0.2266 -0.0029 -0.0089
 9226TIP3    H149169   5.428   2.870  14.206 -0.4291 -0.3771 -0.4072
 9226TIP3    H249170   5.568   2.834  14.159  0.2717  0.6969  0.7912
 9227TIP3   OH249171   2.418   2.340  13.594 -0.5573  0.0543  0.5147
 9227TIP3    H149172   2.476   2.364  13.522 -1.4619 -1.3675 -0.7495
 9227TIP3    H249173   2.412   2.419  13.648  0.4810  1.0117 -0.7204
 9228TIP3   OH249174   0.331   2.378  10.697  0.5299 -0.3630  0.7268
 9228TIP3    H149175   0.242   2.350  10.674  1.2693 -0.9271 -1.7134
 9228TIP3    H249176   0.376   2.298  10.723  0.4789 -0.1497  1.5038
 9229TIP3   OH249177   6.560   3.787   0.534  0.7791 -0.4615 -0.0752
 9229TIP3    H149178   6.492   3.853   0.552  0.7637 -0.4098 -0.3193
 9229TIP3    H249179   6.512   3.705   0.528  0.9459 -0.7047  1.5197
 9230TIP3   OH249180   0.823   0.310   4.776 -0.3850 -0.2283 -0.2202
 9230TIP3    H149181   0.801   0.364   4.700  1.3090  0.3452 -0.3579
 9230TIP3    H249182   0.898   0.355   4.816 -1.4943 -0.2839  2.0510
 9231TIP3   OH249183   6.094   6.394  14.380 -0.2215  0.3045 -0.1928
 9231TIP3    H149184   6.041   6.467  14.348 -0.4543  0.7871  1.1915
 9231TIP3    H249185   6.177   6.434  14.404  0.0876 -0.1112 -0.5550
 9232TIP3   OH249186   0.735   0.940   4.609 -0.5085  0.0199 -0.2801
 9232TIP3    H149187   0.653   0.957   4.655  0.1245 -0.0371  0.9155
 9232TIP3    H249188   0.708   0.898   4.527 -1.6415 -0.6779  0.4184
 9233TIP3   OH249189   2.540   3.647  13.657 -1.0932 -0.4526  0.3604
 9233TIP3    H149190   2.522   3.689  13.741 -0.4263  0.6905 -0.0387
 9233TIP3    H249191   2.581   3.563  13.681  1.4608  0.9168  1.2415
 9234TIP3   OH249192   1.769   0.343  15.559  0.0503  0.4085  0.3665
 9234TIP3    H149193   1.787   0.423  15.510 -1.7126  0.1117 -0.8371
 9234TIP3    H249194   1.682   0.316  15.531 -0.5477 -0.4494  2.7996
 9235TIP3   OH249195   3.006   2.172   1.137  0.0169  0.0426  0.1697
 9235TIP3    H149196   2.934   2.149   1.078  0.8578  0.9403 -1.2618
 9235TIP3    H249197   2.965   2.225   1.205 -0.9001 -0.6512  0.1807
 9236TIP3   OH249198   0.273   0.518  10.639  0.4013  0.2271  0.1454
 9236TIP3    H149199   0.299   0.505  10.548  0.3319  0.4394  0.0930
 9236TIP3    H249200   0.292   0.611  10.655  2.5336 -0.2930  1.0308
 9237TIP3   OH249201   2.909   1.131  15.826  0.0988  0.8256  0.2086
 9237TIP3    H149202   2.946   1.111  15.912  1.5122 -2.0383 -0.9477
 9237TIP3    H249203   2.984   1.152  15.771 -0.0641 -2.5192 -1.5304
 9238TIP3   OH249204   5.466   3.654   5.134  0.0540 -0.5207  0.0982
 9238TIP3    H149205   5.550   3.694   5.112 -0.3870 -0.7532 -2.2829
 9238TIP3    H249206   5.489   3.575   5.184  1.2402 -0.3956 -0.2216
 9239TIP3   OH249207   4.610   3.239   2.692  0.7298  0.4816 -0.6950
 9239TIP3    H149208   4.655   3.232   2.608  0.1704  0.8093 -1.0335
 9239TIP3    H249209   4.638   3.323   2.727  2.8814 -0.6973  0.6235
 9240TIP3   OH249210   6.505   3.308  12.095  0.0823 -0.1646  0.4294
 9240TIP3    H149211   6.519   3.384  12.151  0.3657  0.9069 -1.0436
 9240TIP3    H249212   6.411   3.308  12.077 -0.0903 -0.8014  1.2814
 9241TIP3   OH249213   3.035   2.735  11.271 -0.2011  0.6787 -0.1244
 9241TIP3    H149214   2.953   2.685  11.274 -0.2470  0.7787  0.4787
 9241TIP3    H249215   3.079   2.705  11.192  0.9044 -2.1605  1.3929
 9242TIP3   OH249216   0.269   5.777   6.173 -0.1174  0.1645 -0.0103
 9242TIP3    H149217   0.305   5.791   6.261  0.0808  1.1629 -0.2328
 9242TIP3    H249218   0.341   5.795   6.114 -0.2724 -0.4333 -0.3856
 9243TIP3   OH249219   1.117   6.363   3.160 -0.2504  0.0789  0.6538
 9243TIP3    H149220   1.099   6.372   3.254 -2.2413  0.6078  0.2737
 9243TIP3    H249221   1.057   6.294   3.131  1.0364 -0.7830 -0.0854
 9244TIP3   OH249222   0.259   3.066  15.310  0.0843 -0.6256 -0.3768
 9244TIP3    H149223   0.165   3.080  15.321 -0.0849 -2.2603  0.5802
 9244TIP3    H249224   0.272   3.066  15.216 -1.1299 -1.7062 -0.5832
 9245TIP3   OH249225   3.797   5.901  14.523  0.3542 -0.1063 -0.1548
 9245TIP3    H149226   3.718   5.847  14.528  0.1528  0.0646 -1.2806
 9245TIP3    H249227   3.769   5.981  14.479  0.8786  0.5011  0.5862
 9246TIP3   OH249228   0.228   2.837  16.379 -0.1517  0.3622 -0.2142
 9246TIP3    H149229   0.182   2.811  16.459 -1.4869  1.1595 -0.6890
 9246TIP3    H249230   0.309   2.785  16.380 -0.0027  0.5541  1.7704
 9247TIP3   OH249231   4.026   5.078   5.016 -0.6220 -0.3160  0.9273
 9247TIP3    H149232   4.039   5.152   4.956  0.7868 -1.6820 -0.5726
 9247TIP3    H249233   3.933   5.058   5.008 -0.3387 -1.0110 -1.5975
 9248TIP3   OH249234   6.241   2.550  11.091  0.4839  0.1699  0.1885
 9248TIP3    H149235   6.308   2.597  11.040  2.7165 -2.4863  0.4131
 9248TIP3    H249236   6.220   2.474  11.038 -0.0399 -0.6493  1.5234
 9249TIP3   OH249237   6.765   4.742   0.287 -0.0607  0.0415  0.0536
 9249TIP3    H149238   6.824   4.809   0.253  0.3664 -0.7816 -0.8748
 9249TIP3    H249239   6.760   4.760   0.381 -0.5582  1.8264 -0.2809
 9250TIP3   OH249240   5.222   4.165   5.199  0.2239 -0.4752  0.1605
 9250TIP3    H149241   5.267   4.248   5.184  0.4915 -0.4822  0.8663
 9250TIP3    H249242   5.129   4.185   5.185  0.4228 -0.4760 -1.3747
 9251TIP3   OH249243   4.751   3.782   4.418 -0.2112  0.5700 -0.2292
 9251TIP3    H149244   4.786   3.760   4.332  0.6849  1.0055  0.0114
 9251TIP3    H249245   4.656   3.772   4.409  0.0083 -2.0832 -0.5025
 9252TIP3   OH249246   3.890   4.120   2.844  0.0312 -0.0032  0.0443
 9252TIP3    H149247   3.911   4.058   2.774 -2.5666  0.5296 -1.3012
 9252TIP3    H249248   3.858   4.065   2.915 -1.9643 -0.3108 -1.0281
 9253TIP3   OH249249   6.460   5.861   0.450  0.4465  0.3193 -0.4855
 9253TIP3    H149250   6.471   5.902   0.364  0.5438  1.5255  0.0724
 9253TIP3    H249251   6.526   5.792   0.452  0.9425  0.7556 -1.1066
 9254TIP3   OH249252   5.063   0.850   5.126  0.1264  0.4348 -0.0860
 9254TIP3    H149253   4.978   0.895   5.132  1.2051  2.6047 -0.0575
 9254TIP3    H249254   5.071   0.804   5.209  0.1370  2.4728  1.1103
 9255TIP3   OH249255   5.086   0.248  14.435 -0.3367 -0.5103 -0.2459
 9255TIP3    H149256   5.051   0.192  14.366  0.6600 -1.4109 -0.0580
 9255TIP3    H249257   5.059   0.336  14.410 -2.0107 -1.0582 -0.5068
 9256TIP3   OH249258   0.228   3.285   3.955  0.4718  0.2127  0.0886
 9256TIP3    H149259   0.231   3.313   3.864 -0.4109 -0.4572 -0.1662
 9256TIP3    H249260   0.157   3.337   3.993 -0.2179 -0.6062 -0.0277
 9257TIP3   OH249261   4.303   3.161  11.028 -0.6094  0.1652  0.2007
 9257TIP3    H149262   4.293   3.092  10.963  2.2361  1.7069 -2.1391
 9257TIP3    H249263   4.220   3.208  11.027 -1.2377 -0.9254 -1.0078
 9258TIP3   OH249264   2.065   0.918  14.381 -0.6828 -0.0810  0.5132
 9258TIP3    H149265   1.993   0.903  14.320 -0.5806 -1.4519  0.6904
 9258TIP3    H249266   2.143   0.921  14.325 -0.8356  1.1475  0.3469
 9259TIP3   OH249267   5.783   1.440   2.508  0.6070 -0.0839 -0.1855
 9259TIP3    H149268   5.738   1.377   2.565 -1.7496 -0.0089 -1.8182
 9259TIP3    H249269   5.759   1.526   2.542  1.6357 -0.0297  0.4412
 9260TIP3   OH249270   1.898   0.845  14.744  0.2475 -0.0919 -0.0734
 9260TIP3    H149271   1.904   0.801  14.659  1.0936 -1.0552  0.4775
 9260TIP3    H249272   1.977   0.899  14.749  2.3848 -3.1007  1.7572
 9261TIP3   OH249273   1.271   3.757  12.157  0.4766 -0.2672 -0.2459
 9261TIP3    H149274   1.229   3.808  12.087  0.9918 -0.5385 -0.7614
 9261TIP3    H249275   1.345   3.810  12.185  1.6106 -1.1488 -1.4735
 9262TIP3   OH249276   5.387   0.575   1.298 -0.0973  0.2288 -0.1734
 9262TIP3    H149277   5.299   0.593   1.332 -0.1880  1.6061 -1.0625
 9262TIP3    H249278   5.374   0.502   1.236 -0.0607 -1.7111  1.9718
 9263TIP3   OH249279   3.977   3.042  15.929 -0.3297  0.0028  0.0359
 9263TIP3    H149280   3.972   3.087  15.845  0.5312  1.1882  0.5943
 9263TIP3    H249281   4.070   3.038  15.948 -0.5052 -0.5035  0.8110
 9264TIP3   OH249282   6.435   2.127   0.233 -0.1571  0.0228 -0.4542
 9264TIP3    H149283   6.401   2.087   0.314  2.1890  0.0716  0.6510
 9264TIP3    H249284   6.530   2.117   0.240  0.1165 -0.4054 -3.4845
 9265TIP3   OH249285   4.724   1.714   4.140  0.6503 -0.1140  0.1371
 9265TIP3    H149286   4.642   1.665   4.148  0.1412  0.6038 -0.5478
 9265TIP3    H249287   4.750   1.733   4.231 -1.0063  1.3644  0.3499
 9266TIP3   OH249288   1.998   3.777  14.303 -0.5868 -0.6532  0.8980
 9266TIP3    H149289   2.080   3.732  14.322 -0.5728 -1.2182 -0.4292
 9266TIP3    H249290   1.930   3.721  14.341 -0.6083 -2.1078 -1.1593
 9267TIP3   OH249291   3.470   2.497   4.396  0.4519 -0.5672  0.2179
 9267TIP3    H149292   3.558   2.536   4.399  0.4808 -0.6275  3.4975
 9267TIP3    H249293   3.411   2.573   4.399  0.5136 -0.4923  3.9019
 9268TIP3   OH249294   0.098   2.446  11.361 -0.8261  0.0172  0.6513
 9268TIP3    H149295   0.120   2.482  11.447  0.4735 -0.1347  0.4006
 9268TIP3    H249296   0.030   2.381  11.379  0.1444 -0.7325  1.6963
 9269TIP3   OH249297   1.276   1.205   0.837  0.1825  0.1562  0.3376
 9269TIP3    H149298   1.276   1.272   0.904  0.6596  0.1061  0.3969
 9269TIP3    H249299   1.227   1.132   0.875  0.3159  0.1874  0.5734
 9270TIP3   OH249300   4.305   0.082   0.733  0.3156 -0.0099  0.0169
 9270TIP3    H149301   4.378   0.029   0.701  0.9957  0.1435  1.2457
 9270TIP3    H249302   4.264   0.028   0.800  0.7146  0.7948  0.9378
 9271TIP3   OH249303   2.612   0.860   5.265  0.4635  0.3871 -0.4670
 9271TIP3    H149304   2.597   0.856   5.360  1.9366  0.8868 -0.1830
 9271TIP3    H249305   2.569   0.940   5.237  0.8452  0.7445 -0.0435
 9272TIP3   OH249306   4.803   5.875  12.293  0.2052  0.4677  0.2010
 9272TIP3    H149307   4.740   5.904  12.227 -0.3004  2.3219  1.4136
 9272TIP3    H249308   4.830   5.788  12.264 -0.7115  0.8218 -1.9080
 9273TIP3   OH249309   5.147   1.998  16.947 -0.1166  0.3041  0.1493
 9273TIP3    H149310   5.199   1.961  16.876  0.7544 -0.1492  0.9878
 9273TIP3    H249311   5.143   1.928  17.012 -1.0269  0.6543  0.4786
 9274TIP3   OH249312   3.222   3.024   2.432  0.0710 -0.4067  0.1273
 9274TIP3    H149313   3.268   2.941   2.424  0.6261  0.0610 -2.6147
 9274TIP3    H249314   3.200   3.048   2.342 -2.2753  1.2238  1.0459
 9275TIP3   OH249315   5.807   4.040  11.289  0.8596  0.2133 -0.3675
 9275TIP3    H149316   5.713   4.033  11.277  0.5909  0.4261  1.3078
 9275TIP3    H249317   5.832   3.958  11.331  1.0639  0.9376  0.9926
 9276TIP3   OH249318   0.663   3.376  13.785  0.2991 -0.0467  0.2643
 9276TIP3    H149319   0.646   3.394  13.878  0.6954  1.3556  0.0945
 9276TIP3    H249320   0.710   3.454  13.755  1.6395 -1.1885 -0.7193
 9277TIP3   OH249321   5.167   5.371   6.783  0.5383 -0.1427 -0.0792
 9277TIP3    H149322   5.236   5.437   6.788  0.8145 -0.5378  3.4377
 9277TIP3    H249323   5.210   5.293   6.747  1.3872  0.2263  0.1311
 9278TIP3   OH249324   3.419   4.006   0.860 -0.0727 -0.2169  0.0584
 9278TIP3    H149325   3.427   3.916   0.890 -1.4924 -0.0482  0.9993
 9278TIP3    H249326   3.346   4.005   0.799  1.1198 -0.0381 -1.4378
 9279TIP3   OH249327   6.019   1.999   5.737  0.0326  0.1836  0.2146
 9279TIP3    H149328   6.108   1.989   5.770  0.4516  1.0897 -0.5810
 9279TIP3    H249329   6.018   1.953   5.653 -0.2282  0.2252  0.1925
 9280TIP3   OH249330   3.431   0.525  11.300  0.2802  0.5427  0.4153
 9280TIP3    H149331   3.443   0.445  11.352  0.4115  0.7503  0.7070
 9280TIP3    H249332   3.520   0.551  11.276  0.4128  1.6788  1.9667
 9281TIP3   OH249333   2.189   5.570  13.836  0.2443 -0.1012  0.3341
 9281TIP3    H149334   2.207   5.571  13.931  1.4795  0.4212  0.1116
 9281TIP3    H249335   2.271   5.596  13.796 -0.5302  0.5819 -0.8652
 9282TIP3   OH249336   5.865   5.970   3.739 -0.1777 -0.2496  0.5854
 9282TIP3    H149337   5.950   5.945   3.776  0.3254  0.8617  0.2278
 9282TIP3    H249338   5.877   6.061   3.711 -1.3065 -0.2691 -0.0214
 9283TIP3   OH249339   4.571   1.755  12.110 -0.3980  0.1181  0.0254
 9283TIP3    H149340   4.660   1.759  12.146  0.1534 -0.7187 -1.1826
 9283TIP3    H249341   4.560   1.839  12.065 -0.2431  0.2453  0.2221
 9284TIP3   OH249342   3.547   5.240   0.105  0.6097 -0.3921 -0.7170
 9284TIP3    H149343   3.589   5.289   0.034 -2.4563  0.3452 -2.1932
 9284TIP3    H249344   3.552   5.299   0.181  0.1000  0.7379 -1.5261
 9285TIP3   OH249345   0.078   3.965  14.838  0.1472 -0.2596 -0.6497
 9285TIP3    H149346   0.121   4.028  14.782 -0.2455  0.6091 -0.0017
 9285TIP3    H249347  -0.011   3.959  14.804 -0.4149  1.0672  0.4519
 9286TIP3   OH249348   6.617   1.671   3.730 -0.4278  0.1513  0.5076
 9286TIP3    H149349   6.652   1.637   3.812  0.2048  1.0039  0.6012
 9286TIP3    H249350   6.524   1.646   3.732 -0.3703 -0.0384  1.3679
 9287TIP3   OH249351   5.347   3.623  14.668 -0.1456 -0.3490 -0.4071
 9287TIP3    H149352   5.269   3.633  14.615 -1.3694 -0.3246  1.3046
 9287TIP3    H249353   5.326   3.667  14.751  0.3751 -3.1564  1.3494
 9288TIP3   OH249354   1.926   2.950  15.641  0.1399 -1.0671 -0.0339
 9288TIP3    H149355   1.923   2.855  15.629  1.4228 -1.1769  0.4461
 9288TIP3    H249356   1.934   2.985  15.552 -0.0206 -1.4119 -0.1868
 9289TIP3   OH249357   2.363   6.633   1.366  0.5850  0.2356  0.0366
 9289TIP3    H149358   2.280   6.623   1.320  0.6848 -2.8312  0.3152
 9289TIP3    H249359   2.421   6.676   1.303 -0.4117 -0.2042 -1.2185
 9290TIP3   OH249360   3.935   5.892  12.295 -0.0926  0.1954 -0.3145
 9290TIP3    H149361   3.995   5.825  12.327 -1.3320 -1.1569 -0.6770
 9290TIP3    H249362   3.978   5.929  12.217  1.5577  1.3721  1.0810
 9291TIP3   OH249363   5.212   6.815   0.048 -0.8752  0.2326 -0.4831
 9291TIP3    H149364   5.196   6.743  -0.014 -0.7888 -1.1709  1.0582
 9291TIP3    H249365   5.144   6.805   0.114 -0.5299  1.2598  0.0448
 9292TIP3   OH249366   3.191   1.418  14.635  0.3345  0.1781 -0.3583
 9292TIP3    H149367   3.274   1.444  14.676  1.1238 -1.6434 -0.7121
 9292TIP3    H249368   3.207   1.330  14.601 -1.7570 -0.2215 -0.4595
 9293TIP3   OH249369   4.525   6.632   5.613  0.1548  0.5101 -0.2343
 9293TIP3    H149370   4.471   6.554   5.597  0.6658  0.0760  0.1378
 9293TIP3    H249371   4.566   6.651   5.529 -2.0756  2.0401 -1.1044
 9294TIP3   OH249372   3.928   1.941  15.026 -0.5559 -0.1475  0.2941
 9294TIP3    H149373   3.877   2.012  14.988 -0.2708  0.2560  0.6677
 9294TIP3    H249374   3.955   1.889  14.950 -2.8464 -1.3072  0.1718
 9295TIP3   OH249375   5.161   2.253  14.986 -0.3778  0.1762  0.4781
 9295TIP3    H149376   5.084   2.309  15.000 -0.6068 -0.0811  0.2512
 9295TIP3    H249377   5.161   2.194  15.061 -0.4475  0.1214  0.4349
 9296TIP3   OH249378   2.672   6.042   2.700  0.0418  0.5988 -0.0105
 9296TIP3    H149379   2.644   5.954   2.725  1.8602  0.3037  1.0923
 9296TIP3    H249380   2.655   6.046   2.605 -2.4900  0.0402  0.3570
 9297TIP3   OH249381   2.951   0.028   2.889 -0.9955 -0.0136  0.4556
 9297TIP3    H149382   2.904   0.075   2.820  0.4073 -1.4881 -1.6091
 9297TIP3    H249383   2.894  -0.047   2.910 -0.9344 -0.1587  0.1086
 9298TIP3   OH249384   6.852   1.027   2.523 -0.0399 -0.2356  0.5216
 9298TIP3    H149385   6.947   1.025   2.527 -0.0389 -0.8120  0.3837
 9298TIP3    H249386   6.827   0.936   2.507 -0.4852  0.3125 -2.5982
 9299TIP3   OH249387   2.983   1.188   4.505  0.1631  0.2824  0.1475
 9299TIP3    H149388   2.912   1.220   4.449 -0.2429  0.7971  0.9506
 9299TIP3    H249389   2.998   1.098   4.474 -0.8198  0.1652 -0.0448
 9300TIP3   OH249390   2.388   2.394   1.314  0.1038 -0.7355 -1.1428
 9300TIP3    H149391   2.332   2.423   1.243 -0.4339 -0.2826 -0.5450
 9300TIP3    H249392   2.352   2.308   1.339 -1.2673  0.1598  0.1794
 9301TIP3   OH249393   5.007   6.134  15.020 -0.0588  0.6176 -0.5279
 9301TIP3    H149394   4.997   6.082  14.940 -0.7500  1.4967 -1.0352
 9301TIP3    H249395   5.037   6.072  15.086 -2.9482 -0.9881 -0.5380
 9302TIP3   OH249396   5.279   3.185   2.471  0.4463 -0.7901 -0.6967
 9302TIP3    H149397   5.198   3.146   2.504  1.5262 -1.6324  1.0844
 9302TIP3    H249398   5.291   3.264   2.525  0.1987  0.0294 -1.7948
 9303TIP3   OH249399   2.732   2.031  13.554 -0.6562  0.4459  0.2208
 9303TIP3    H149400   2.770   1.944  13.541 -2.4192 -0.3380  0.0889
 9303TIP3    H249401   2.792   2.074  13.615  0.4033 -0.7376  0.0590
 9304TIP3   OH249402   0.800   6.731   3.992 -0.0490 -0.0330 -0.2346
 9304TIP3    H149403   0.866   6.767   4.052  0.2837  0.9943 -1.1815
 9304TIP3    H249404   0.849   6.700   3.917 -0.6127  0.4878 -0.8311
 9305TIP3   OH249405   3.269   2.945  16.747 -0.0006 -0.0812 -0.0880
 9305TIP3    H149406   3.314   2.989  16.675  1.2221 -2.4529 -0.9031
 9305TIP3    H249407   3.180   2.931  16.715  0.5920 -1.3225 -1.3231
 9306TIP3   OH249408   3.322   5.684  11.305 -0.6007  0.8552 -0.1090
 9306TIP3    H149409   3.367   5.604  11.276  0.2131  0.9672  0.7827
 9306TIP3    H249410   3.256   5.700  11.238 -2.0296 -1.5754  0.5933
 9307TIP3   OH249411   3.654   6.304  10.495 -0.6258  0.5019  0.8060
 9307TIP3    H149412   3.734   6.352  10.518  0.8792 -2.1057  1.4261
 9307TIP3    H249413   3.666   6.218  10.536 -3.6730 -0.0588  0.7070
 9308TIP3   OH249414   2.052   1.082   4.044 -0.0430 -0.1433 -0.2296
 9308TIP3    H149415   2.009   1.164   4.019  0.5020 -0.1307 -1.2015
 9308TIP3    H249416   2.048   1.028   3.965  1.3246 -0.2940 -0.2232
 9309TIP3   OH249417   4.344   5.622  14.524 -0.6491 -0.0816 -0.0827
 9309TIP3    H149418   4.380   5.548  14.573 -1.2701 -0.3908 -0.0847
 9309TIP3    H249419   4.348   5.594  14.433  0.9658  0.6892 -0.2838
 9310TIP3   OH249420   3.443   5.032  15.016  0.0777  0.1850 -0.4835
 9310TIP3    H149421   3.461   4.948  15.059  3.3191  0.8831 -0.2398
 9310TIP3    H249422   3.508   5.038  14.946 -1.0462  1.8826 -1.4644
 9311TIP3   OH249423   6.815   0.964   0.811 -0.2901 -0.2815  0.6385
 9311TIP3    H149424   6.834   0.958   0.718 -0.1657 -2.3547  0.7405
 9311TIP3    H249425   6.749   0.897   0.826 -1.5937  1.1988  1.7613
 9312TIP3   OH249426   1.740   0.317  13.564  0.7832  0.6068 -0.3528
 9312TIP3    H149427   1.783   0.255  13.505 -1.4454 -1.3803 -0.0388
 9312TIP3    H249428   1.672   0.358  13.511 -0.3277 -0.1652  0.4348
 9313TIP3   OH249429   1.113   6.853  11.947 -0.0403 -0.0086 -0.7379
 9313TIP3    H149430   1.168   6.931  11.937  1.4316 -0.9547 -0.3320
 9313TIP3    H249431   1.127   6.826  12.038 -2.1968  0.4448 -0.2338
 9314TIP3   OH249432   3.569   6.183   1.340 -0.4932 -0.2166 -0.1474
 9314TIP3    H149433   3.519   6.248   1.390  2.9219  1.1648  1.8239
 9314TIP3    H249434   3.607   6.233   1.267 -0.4970 -0.7904 -0.5484
 9315TIP3   OH249435   1.356   4.809   1.591 -0.3731 -0.1624 -0.2994
 9315TIP3    H149436   1.338   4.877   1.526 -0.4635 -0.1222 -0.2324
 9315TIP3    H249437   1.362   4.728   1.540  0.8371  0.0455 -0.5231
 9316TIP3   OH249438   5.099   6.790  14.511  0.2105 -0.1940 -0.2802
 9316TIP3    H149439   5.166   6.729  14.543 -0.1388 -0.4614 -0.0526
 9316TIP3    H249440   5.033   6.733  14.470  0.0072  0.0512 -0.2909
 9317TIP3   OH249441   2.972   4.792   6.230  0.8904 -0.2836  0.3438
 9317TIP3    H149442   3.052   4.795   6.283  0.6118  0.3158  0.7355
 9317TIP3    H249443   3.003   4.805   6.140  1.1068  1.5420  0.6412
 9318TIP3   OH249444   6.080   0.328   1.863  0.0533 -0.7835  0.2893
 9318TIP3    H149445   6.099   0.235   1.851  0.3430 -0.7904  0.7681
 9318TIP3    H249446   5.999   0.330   1.915 -0.6967 -0.7581 -0.8604
 9319TIP3   OH249447   1.624   1.400  14.797 -0.1458 -0.0317  0.6163
 9319TIP3    H149448   1.592   1.382  14.709 -0.8316 -0.6688  0.9853
 9319TIP3    H249449   1.680   1.325  14.818  1.2742  0.8536  0.1503
 9320TIP3   OH249450   0.111   2.608  13.016 -0.2133 -0.1273 -0.7070
 9320TIP3    H149451   0.168   2.657  13.076 -0.5391 -0.7038  0.0955
 9320TIP3    H249452   0.062   2.675  12.969 -1.3613  0.3512  1.0581
 9321TIP3   OH249453   3.336   4.354  13.579  0.6046  0.1579 -0.4224
 9321TIP3    H149454   3.280   4.304  13.520 -0.1996 -0.4035  0.7716
 9321TIP3    H249455   3.279   4.420  13.617  1.8311  2.6915 -2.6185
 9322TIP3   OH249456   4.603   0.068  15.909 -0.2512 -0.1335 -0.4343
 9322TIP3    H149457   4.620  -0.015  15.954 -0.6930 -0.8725 -1.5952
 9322TIP3    H249458   4.512   0.061  15.881 -1.0691  1.7451  1.4760
 9323TIP3   OH249459   1.217   6.138   6.313  0.1964  0.2296  0.2865
 9323TIP3    H149460   1.305   6.108   6.294  0.4863 -0.3676  2.3400
 9323TIP3    H249461   1.160   6.072   6.275  0.5504  0.9194 -1.5798
 9324TIP3   OH249462   0.858   2.356  13.649  0.0843 -0.1031  0.0402
 9324TIP3    H149463   0.797   2.426  13.625 -2.1724 -1.4370  1.5154
 9324TIP3    H249464   0.944   2.399  13.654 -0.8409  2.0379 -1.3020
 9325TIP3   OH249465   6.328   5.178  15.424  0.0142  0.1283  0.4186
 9325TIP3    H149466   6.242   5.136  15.422  0.9931 -1.9501  0.0336
 9325TIP3    H249467   6.387   5.116  15.381  1.2697  2.6217 -1.8029
 9326TIP3   OH249468   3.198   5.754   5.173 -0.2568 -0.6401  0.1301
 9326TIP3    H149469   3.272   5.808   5.146  0.7685 -0.7480  2.4838
 9326TIP3    H249470   3.178   5.701   5.095  1.9773 -0.4309 -0.6679
 9327TIP3   OH249471   1.912   5.192   5.236  0.0996  0.0393  0.3773
 9327TIP3    H149472   1.837   5.133   5.227 -0.7648  1.2090 -0.4919
 9327TIP3    H249473   1.913   5.242   5.154  0.7437  1.2545  1.0934
 9328TIP3   OH249474   0.833   4.686  13.925  0.3589 -0.4083  0.5195
 9328TIP3    H149475   0.798   4.615  13.872 -1.8928 -0.6108  2.0792
 9328TIP3    H249476   0.801   4.766  13.883  0.6525 -0.4462  0.2251
 9329TIP3   OH249477   4.917   2.141  16.887  0.2853  0.0256 -0.4203
 9329TIP3    H149478   5.002   2.096  16.882 -1.1542 -3.1134  0.9290
 9329TIP3    H249479   4.899   2.147  16.980 -0.6537  1.4011 -0.6717
 9330TIP3   OH249480   0.399   0.431  10.416 -0.0995  0.1527  0.5409
 9330TIP3    H149481   0.428   0.446  10.326  0.3897 -1.1069  0.4663
 9330TIP3    H249482   0.308   0.404  10.408 -0.1702  0.4155  0.4558
 9331TIP3   OH249483   4.503   4.134  14.293 -0.0932 -0.5208  0.3778
 9331TIP3    H149484   4.540   4.145  14.206 -2.3994  0.1079 -0.5933
 9331TIP3    H249485   4.514   4.220  14.335 -1.7231  0.1540 -0.4804
 9332TIP3   OH249486   3.365   2.772  12.916 -0.0728  0.0627  0.0409
 9332TIP3    H149487   3.434   2.819  12.870 -1.9354  3.3731  0.3282
 9332TIP3    H249488   3.293   2.765  12.852 -0.4660 -0.8824  0.5634
 9333TIP3   OH249489   3.631   2.835  13.003  0.3304 -0.1163  0.1233
 9333TIP3    H149490   3.607   2.750  13.039  1.5578  0.0550  1.4073
 9333TIP3    H249491   3.702   2.816  12.941  1.5934  0.0854  1.4618
 9334TIP3   OH249492   1.254   4.120  15.359 -0.3255 -0.2991  0.0191
 9334TIP3    H149493   1.247   4.093  15.450 -1.5870  0.4951  0.1754
 9334TIP3    H249494   1.197   4.059  15.311 -1.5967  0.7678  0.1127
 9335TIP3   OH249495   3.853   4.279  13.988 -0.5726  0.1763  0.6746
 9335TIP3    H149496   3.806   4.355  14.023 -1.3175 -0.1179  0.3246
 9335TIP3    H249497   3.854   4.292  13.894 -1.3339 -0.5970  0.5509
 9336TIP3   OH249498   3.291   5.499   5.276 -0.6389  0.1148  0.0910
 9336TIP3    H149499   3.359   5.502   5.209 -1.6746  1.1827 -0.9655
 9336TIP3    H249500   3.266   5.591   5.288 -1.2347 -0.1708  1.1594
 9337TIP3   OH249501   5.326   6.784  13.559 -0.3584 -0.0181 -0.3405
 9337TIP3    H149502   5.366   6.722  13.620  0.4182 -0.8026 -1.6130
 9337TIP3    H249503   5.232   6.769  13.568 -0.8040  3.3089  4.2743
 9338TIP3   OH249504   3.295   0.476  13.693 -0.2216 -0.8152  0.3214
 9338TIP3    H149505   3.363   0.472  13.627 -0.2179  0.8247  0.1837
 9338TIP3    H249506   3.234   0.407  13.669  0.4333 -1.0754 -0.6502
 9339TIP3   OH249507   1.545   2.807   0.824  0.3038  0.3744  0.4527
 9339TIP3    H149508   1.488   2.877   0.792 -0.3702 -0.1183  0.5558
 9339TIP3    H249509   1.574   2.761   0.745 -0.5294 -0.2028  0.4713
 9340TIP3   OH249510   4.074   4.204   3.415 -0.2172 -0.5693 -0.0684
 9340TIP3    H149511   3.988   4.186   3.377 -0.5632 -0.8499  0.8257
 9340TIP3    H249512   4.129   4.131   3.386  0.2384  0.5353 -2.1630
 9341TIP3   OH249513   0.152   0.095   4.051  0.2633 -0.6929 -0.1680
 9341TIP3    H149514   0.192   0.169   4.098  1.2476 -0.2829 -1.6048
 9341TIP3    H249515   0.136   0.128   3.963 -1.4666 -1.4916 -0.1999
 9342TIP3   OH249516   1.000   2.066   4.103 -0.3863 -0.4633  0.6067
 9342TIP3    H149517   0.941   2.062   4.028 -0.3604 -1.4559  0.6319
 9342TIP3    H249518   0.962   2.006   4.167  0.6627 -1.1545  0.6018
 9343TIP3   OH249519   0.257   0.788   0.878 -0.4977  0.1909 -0.1744
 9343TIP3    H149520   0.214   0.803   0.793 -0.1557  0.9203 -0.2275
 9343TIP3    H249521   0.189   0.751   0.933 -0.5112 -1.0776 -1.0076
 9344TIP3   OH249522   3.314   3.664  12.666  0.2513 -0.6792 -0.4572
 9344TIP3    H149523   3.229   3.643  12.629 -0.9891  2.1693  0.4989
 9344TIP3    H249524   3.305   3.647  12.760  0.3964  0.4949 -0.2163
 9345TIP3   OH249525   1.047   6.457   5.228  0.4263 -0.4489 -0.1940
 9345TIP3    H149526   0.969   6.430   5.179  1.1917 -2.4012 -0.4179
 9345TIP3    H249527   1.062   6.548   5.200 -1.9892  0.1446  0.2063
 9346TIP3   OH249528   6.477   2.868  13.379  0.2438  0.0974  0.1513
 9346TIP3    H149529   6.485   2.836  13.289  0.0722  0.4301  0.0174
 9346TIP3    H249530   6.385   2.857  13.401 -0.6805  3.7105 -1.1371
 9347TIP3   OH249531   1.049   4.545  12.852  0.0800 -0.3214 -0.0221
 9347TIP3    H149532   1.051   4.449  12.850 -1.1244 -0.3637 -0.2651
 9347TIP3    H249533   1.135   4.572  12.821  0.4404 -1.3273  0.0729
 9348TIP3   OH249534   3.314   5.127   5.685 -0.1730  0.3889  0.1614
 9348TIP3    H149535   3.372   5.147   5.759 -2.1297  1.8238  1.4001
 9348TIP3    H249536   3.314   5.031   5.681  0.5793  0.3010  1.5297
 9349TIP3   OH249537   3.178   4.198  11.298  0.1209  0.4239 -0.1172
 9349TIP3    H149538   3.149   4.167  11.384  1.4070 -0.3969  0.0524
 9349TIP3    H249539   3.252   4.255  11.316  0.9296 -0.4110 -0.7100
 9350TIP3   OH249540   3.811   5.147  12.672  0.2592  0.7393 -0.5002
 9350TIP3    H149541   3.825   5.203  12.596  1.3771  0.3573 -0.5971
 9350TIP3    H249542   3.895   5.101  12.684 -0.3067 -0.1519  0.1854
 9351TIP3   OH249543   4.498   2.260   0.298 -0.1817  0.8671 -0.3311
 9351TIP3    H149544   4.482   2.344   0.343 -1.3213  0.5697 -0.1509
 9351TIP3    H249545   4.436   2.199   0.339  1.2130 -0.2853  0.1342
 9352TIP3   OH249546   0.327   1.866   0.551  0.5454 -0.1642  0.1607
 9352TIP3    H149547   0.396   1.853   0.616  0.3895 -0.1012  0.3406
 9352TIP3    H249548   0.373   1.895   0.473  0.7266 -0.1572  0.2690
 9353TIP3   OH249549   3.715   6.317   2.984  0.6594 -0.3584  0.7524
 9353TIP3    H149550   3.685   6.274   3.064 -0.9452  2.8754  2.1167
 9353TIP3    H249551   3.668   6.272   2.913  0.4838 -1.9570  1.8488
 9354TIP3   OH249552   5.514   3.300  11.081 -0.2847 -0.5487 -0.1066
 9354TIP3    H149553   5.495   3.232  11.017 -1.2088 -0.7461  0.3601
 9354TIP3    H249554   5.591   3.345  11.047  0.0522 -1.5241 -0.6600
 9355TIP3   OH249555   3.613   6.445   1.708  0.2122  0.0003 -0.3731
 9355TIP3    H149556   3.646   6.523   1.753  0.1661 -0.0477 -0.2569
 9355TIP3    H249557   3.583   6.387   1.778  0.6658 -0.3120 -0.4335
 9356TIP3   OH249558   5.797   6.027   5.712 -0.1804 -0.1945  0.1245
 9356TIP3    H149559   5.792   6.121   5.696 -1.4544 -0.0838  1.0642
 9356TIP3    H249560   5.812   6.019   5.806  0.4536 -0.9353 -0.0239
 9357TIP3   OH249561   3.723   2.697  14.762  0.7275  0.7414 -0.2434
 9357TIP3    H149562   3.748   2.772  14.709 -0.8387  0.0427 -2.1074
 9357TIP3    H249563   3.783   2.628  14.735  1.4161  0.9826  0.6230
 9358TIP3   OH249564   2.384   6.327  11.676 -0.0040 -0.0844  0.0068
 9358TIP3    H149565   2.435   6.381  11.738 -2.1267 -0.6375  2.3980
 9358TIP3    H249566   2.311   6.383  11.650 -1.7158 -1.3670  1.7873
 9359TIP3   OH249567   1.905   2.892   1.425  0.2876 -0.0600  0.0900
 9359TIP3    H149568   1.919   2.838   1.347 -0.6120 -2.0038  1.2178
 9359TIP3    H249569   1.813   2.917   1.421  0.6128  1.1357 -0.2379
 9360TIP3   OH249570   3.944   0.662  11.651  0.6659  0.1715  0.2997
 9360TIP3    H149571   3.956   0.716  11.573  1.1557  0.2610  0.4326
 9360TIP3    H249572   3.979   0.576  11.625  0.9998  0.2513  0.4753
 9361TIP3   OH249573   1.120   6.777   5.781 -0.2730  0.0108  0.1882
 9361TIP3    H149574   1.061   6.804   5.852  1.2221 -1.6155  2.1588
 9361TIP3    H249575   1.095   6.686   5.763  1.9763 -0.9510  1.5556
 9362TIP3   OH249576   0.871   6.646  16.847 -0.0723  0.1374 -0.2720
 9362TIP3    H149577   0.958   6.674  16.819 -0.5672  0.9049 -1.1028
 9362TIP3    H249578   0.882   6.554  16.871  1.3659  0.7238  1.4816
 9363TIP3   OH249579   1.690   6.721  11.670 -0.4159 -0.5882  0.5640
 9363TIP3    H149580   1.645   6.707  11.586 -1.2983 -1.4093  1.1537
 9363TIP3    H249581   1.771   6.766  11.646 -0.9664 -0.1907 -0.6610
 9364TIP3   OH249582   3.111   5.659  13.177  0.3827 -0.2115 -0.2102
 9364TIP3    H149583   3.120   5.731  13.239  3.3257 -0.0703 -0.6753
 9364TIP3    H249584   3.101   5.581  13.231  0.8958  0.1430  0.4048
 9365TIP3   OH249585   6.457   1.637  10.567 -0.2759 -0.2853 -0.1632
 9365TIP3    H149586   6.466   1.648  10.472 -1.5850  0.4950 -0.2202
 9365TIP3    H249587   6.388   1.699  10.592 -1.9842 -2.4840  0.8751
 9366TIP3   OH249588   0.298   0.899  17.113  0.1942  0.4192 -0.0608
 9366TIP3    H149589   0.391   0.913  17.096  0.1993  1.4152  0.6960
 9366TIP3    H249590   0.254   0.929  17.033  0.5748 -1.6105 -1.1096
 9367TIP3   OH249591   1.538   0.618  15.443 -0.0555  0.4164  0.1257
 9367TIP3    H149592   1.616   0.591  15.394  0.3611  1.1342  0.3800
 9367TIP3    H249593   1.525   0.709  15.419 -0.4717  0.4656  0.5390
 9368TIP3   OH249594   0.760   4.309  10.406  0.1168 -0.3133 -0.1923
 9368TIP3    H149595   0.800   4.240  10.353 -0.2217 -1.0904  0.5464
 9368TIP3    H249596   0.675   4.274  10.431  0.8011 -0.5779  2.0154
 9369TIP3   OH249597   4.155   2.010  11.237  0.1188 -0.4628 -0.1461
 9369TIP3    H149598   4.113   1.960  11.308  0.7731 -0.1121  0.4996
 9369TIP3    H249599   4.237   2.041  11.275 -0.1090  0.8087 -0.6563
 9370TIP3   OH249600   6.065   6.695  12.425  0.0826  0.2838  0.5876
 9370TIP3    H149601   6.037   6.701  12.333  0.0360  2.0321  0.6772
 9370TIP3    H249602   6.063   6.786  12.456  1.9558 -0.0471  1.7826
 9371TIP3   OH249603   0.411   6.410   0.767 -0.0280  0.9430 -0.4022
 9371TIP3    H149604   0.343   6.477   0.761 -0.0131  1.2937  2.1469
 9371TIP3    H249605   0.492   6.459   0.780  0.1080  0.4731  0.5971
 9372TIP3   OH249606   4.627   6.710   5.343  0.0421 -0.8934 -0.4727
 9372TIP3    H149607   4.561   6.755   5.290  1.4627 -0.6364 -2.1227
 9372TIP3    H249608   4.710   6.748   5.314  0.9808 -1.7988  0.9424
 9373TIP3   OH249609   2.582   6.516  12.728 -0.2029  0.1222  0.1923
 9373TIP3    H149610   2.612   6.429  12.704  0.1155  0.0916  0.6769
 9373TIP3    H249611   2.492   6.504  12.757 -0.3219  0.0332 -0.2236
 9374TIP3   OH249612   3.221   2.596  15.507 -0.1846  0.5250  0.1071
 9374TIP3    H149613   3.177   2.513  15.488  0.9102 -0.4237  1.5814
 9374TIP3    H249614   3.153   2.662  15.491 -0.4468 -0.3851 -3.3227
 9375TIP3   OH249615   0.083   1.239   0.503 -0.6930 -0.5159  0.1325
 9375TIP3    H149616   0.121   1.193   0.428  0.4303  0.9893 -0.2777
 9375TIP3    H249617   0.156   1.289   0.540 -0.8474 -2.2134  3.0952
 9376TIP3   OH249618   6.323   3.011  12.138  0.3342  0.1957  0.6078
 9376TIP3    H149619   6.236   2.972  12.145  0.3675  0.1631  0.8260
 9376TIP3    H249620   6.356   2.980  12.053 -0.4223  1.3265 -0.1241
 9377TIP3   OH249621   5.371   1.869   0.533  0.3061  0.3348 -0.4430
 9377TIP3    H149622   5.458   1.895   0.505  0.5155  0.3264  0.1757
 9377TIP3    H249623   5.314   1.941   0.504  0.6390  0.7242 -0.1536
 9378TIP3   OH249624   4.535   4.076  13.805 -0.5039 -0.0069 -0.0597
 9378TIP3    H149625   4.527   4.129  13.726 -1.0720 -1.7137 -1.2263
 9378TIP3    H249626   4.465   4.011  13.796  0.0254 -0.8148  1.3896
 9379TIP3   OH249627   6.307   0.176   2.370 -0.3899  0.2497  0.3941
 9379TIP3    H149628   6.402   0.172   2.387 -0.5108  0.4567  1.1358
 9379TIP3    H249629   6.297   0.131   2.286  0.4742  1.0294 -0.1444
 9380TIP3   OH249630   6.489   4.261   3.119 -0.3992  0.0292 -0.6475
 9380TIP3    H149631   6.484   4.167   3.139  1.3441 -0.0797 -0.6351
 9380TIP3    H249632   6.418   4.275   3.055 -2.1781 -0.8023  1.0292
 9381TIP3   OH249633   0.281   2.033  12.835 -0.0903 -0.4844 -0.3682
 9381TIP3    H149634   0.341   2.104  12.859 -0.0665 -0.4798 -0.4430
 9381TIP3    H249635   0.336   1.970  12.790 -0.3041 -0.0965 -1.1836
 9382TIP3   OH249636   2.403   6.840  15.897  0.3804 -0.1280  0.0422
 9382TIP3    H149637   2.310   6.821  15.907  0.3872 -0.6215 -0.7491
 9382TIP3    H249638   2.434   6.779  15.830  1.0037  0.8251 -0.5779
 9383TIP3   OH249639   4.538   2.379  12.882  0.4486  0.2543 -0.1866
 9383TIP3    H149640   4.525   2.327  12.961 -0.8629  1.2972  0.3272
 9383TIP3    H249641   4.582   2.320  12.821 -0.7840 -1.3757  0.4364
 9384TIP3   OH249642   4.136   5.854   4.465  0.4248  0.1903  0.0145
 9384TIP3    H149643   4.133   5.760   4.483 -0.4250  0.0095 -0.9531
 9384TIP3    H249644   4.224   5.871   4.432 -0.4717 -1.0145 -3.3939
 9385TIP3   OH249645   3.585   3.482   5.838  0.9692 -0.4423  0.0787
 9385TIP3    H149646   3.549   3.556   5.788  0.1260 -0.7981  0.1486
 9385TIP3    H249647   3.516   3.416   5.837  0.6915 -0.2463  2.2090
 9386TIP3   OH249648   5.958   2.464   4.809  0.1029 -0.1147 -0.9921
 9386TIP3    H149649   5.943   2.456   4.904  0.5074  1.3403 -0.7739
 9386TIP3    H249650   6.053   2.467   4.800  0.0538  0.6025 -1.3453
 9387TIP3   OH249651   4.367   4.236   3.487 -0.4866  0.1652  0.2126
 9387TIP3    H149652   4.389   4.298   3.556  0.8384  0.2591 -0.2587
 9387TIP3    H249653   4.273   4.246   3.474 -0.4097  1.5464  0.6411
 9388TIP3   OH249654   0.908   3.349   4.989  0.4249  0.4691  0.0704
 9388TIP3    H149655   0.883   3.257   4.983 -1.8708  1.1310 -2.7308
 9388TIP3    H249656   0.943   3.370   4.902  2.1608  1.9623  1.0648
 9389TIP3   OH249657   1.336   0.379   2.255 -0.2010 -0.0229  0.0482
 9389TIP3    H149658   1.371   0.465   2.277  1.1575 -0.1043 -1.5971
 9389TIP3    H249659   1.353   0.369   2.161 -1.7502 -1.4515 -0.1287
 9390TIP3   OH249660   6.675   4.064  10.943 -0.1187 -0.3833 -0.1908
 9390TIP3    H149661   6.623   4.026  10.873 -0.6820 -0.6078  0.3457
 9390TIP3    H249662   6.628   4.043  11.023  0.9815 -0.9070  0.3449
 9391TIP3   OH249663   4.586   1.086   4.385  0.3345 -0.0482  0.0163
 9391TIP3    H149664   4.506   1.051   4.425 -0.9450  1.1107 -1.3848
 9391TIP3    H249665   4.598   1.034   4.305 -0.7894  1.6482 -1.3447
 9392TIP3   OH249666   5.175   1.100  10.880 -0.2174  0.0358  0.9133
 9392TIP3    H149667   5.253   1.083  10.827  2.0533  1.1564  3.6201
 9392TIP3    H249668   5.108   1.042  10.844  1.0213  0.8060 -3.1825
 9393TIP3   OH249669   5.334   4.286   3.056  0.1008  0.6320  0.3901
 9393TIP3    H149670   5.260   4.276   2.996 -0.1346 -0.9732  0.9068
 9393TIP3    H249671   5.328   4.210   3.114  2.8107 -0.1780 -0.2788
 9394TIP3   OH249672   4.172   4.371   4.871  0.2831  0.0489  0.0809
 9394TIP3    H149673   4.136   4.451   4.832 -0.1121 -0.2970 -0.2748
 9394TIP3    H249674   4.242   4.402   4.929  0.3879  0.6230 -0.3434
 9395TIP3   OH249675   6.561   5.899   2.247  0.0733  0.1293  0.6400
 9395TIP3    H149676   6.531   5.809   2.260 -2.7081  0.6546 -1.2907
 9395TIP3    H249677   6.518   5.928   2.167  1.9202  2.7959  0.4729
 9396TIP3   OH249678   1.231   3.732  15.521 -0.2330  0.0753 -0.2461
 9396TIP3    H149679   1.243   3.801  15.586  0.0210  0.3053 -0.5301
 9396TIP3    H249680   1.138   3.736  15.498  0.0095  1.1395 -1.1413
 9397TIP3   OH249681   4.116   0.637  12.076 -0.0692  0.1700 -0.7674
 9397TIP3    H149682   4.130   0.731  12.064  0.1052  0.1721 -0.5625
 9397TIP3    H249683   4.108   0.603  11.987 -0.8791  0.4837 -0.8212
 9398TIP3   OH249684   4.496   0.356  16.773  0.2668  0.0731 -0.2476
 9398TIP3    H149685   4.579   0.394  16.802 -0.0609  0.9949 -0.4811
 9398TIP3    H249686   4.429   0.406  16.819 -0.2017  0.3683 -1.2086
 9399TIP3   OH249687   5.721   0.511   4.706 -0.1068  0.2041 -0.5867
 9399TIP3    H149688   5.749   0.580   4.646  0.0736  0.4838 -0.1858
 9399TIP3    H249689   5.682   0.444   4.649  0.6177  0.1829 -1.0706
 9400TIP3   OH249690   4.354   4.980  14.634 -0.0715  0.1760  0.8063
 9400TIP3    H149691   4.263   5.006  14.620 -0.3994 -1.7325 -1.2227
 9400TIP3    H249692   4.349   4.896  14.679  0.6973  0.3081  1.1575
 9401TIP3   OH249693   1.215   5.748  15.852  0.3167  0.2042  0.1285
 9401TIP3    H149694   1.218   5.684  15.781 -1.4152 -1.1143  1.1653
 9401TIP3    H249695   1.176   5.701  15.926 -1.2277  2.4727  0.8896
 9402TIP3   OH249696   2.241   3.477  17.011 -0.2498  0.4383  0.1237
 9402TIP3    H149697   2.185   3.402  17.032  0.2911  0.1353  0.5190
 9402TIP3    H249698   2.180   3.545  16.983 -0.6760 -0.6022 -1.6791
 9403TIP3   OH249699   4.138   2.742   0.875 -0.2961  0.1552 -0.1239
 9403TIP3    H149700   4.201   2.771   0.941  0.0785  1.4027 -0.9936
 9403TIP3    H249701   4.190   2.725   0.797 -1.1001  2.7639 -1.3633
 9404TIP3   OH249702   5.119   4.559  11.804  0.2357 -0.4101  0.6182
 9404TIP3    H149703   5.195   4.530  11.754  1.9208  3.0402  0.9233
 9404TIP3    H249704   5.155   4.584  11.890 -1.4745 -0.0017  1.2529
 9405TIP3   OH249705   3.206   2.915  11.961 -0.2904  0.4822 -0.6192
 9405TIP3    H149706   3.268   2.980  11.995  1.9975 -1.0653 -1.5765
 9405TIP3    H249707   3.218   2.919  11.866 -2.0725  0.4789 -0.8673
 9406TIP3   OH249708   0.648   0.893  16.778 -0.1460 -0.7060 -0.0161
 9406TIP3    H149709   0.690   0.901  16.693  0.7748 -2.0218  0.2887
 9406TIP3    H249710   0.678   0.809  16.813  0.5564  0.3438  2.1478
 9407TIP3   OH249711   4.317   3.939   1.924  0.2148  0.0397  0.3765
 9407TIP3    H149712   4.382   3.901   1.865 -0.8184  1.4766 -1.8284
 9407TIP3    H249713   4.313   4.031   1.898 -2.4692  0.0742  0.6166
 9408TIP3   OH249714   2.791   0.090  17.136 -0.8679  0.1269 -0.0056
 9408TIP3    H149715   2.854   0.148  17.179 -2.5059  2.1415 -0.1508
 9408TIP3    H249716   2.815   0.094  17.043 -0.1571 -0.5237  0.1450
 9409TIP3   OH249717   6.284   2.733  15.492  0.4605 -0.6517 -0.2644
 9409TIP3    H149718   6.302   2.642  15.468  1.2970 -0.7267  0.6070
 9409TIP3    H249719   6.313   2.741  15.583  0.2585  0.4478 -0.2763
 9410TIP3   OH249720   5.541   3.857  13.683  0.1254 -0.6161  0.0162
 9410TIP3    H149721   5.578   3.945  13.682  0.0301 -0.5755  0.1696
 9410TIP3    H249722   5.617   3.799  13.688  0.1297 -0.5084  1.5800
 9411TIP3   OH249723   5.183   6.024   4.937 -0.0583 -0.3334  0.6022
 9411TIP3    H149724   5.153   6.040   4.848 -0.9801  1.5350  1.1978
 9411TIP3    H249725   5.166   5.931   4.953 -1.3804 -0.3161 -0.6160
 9412TIP3   OH249726   2.442   2.992  15.157 -0.2041 -0.3321 -0.2712
 9412TIP3    H149727   2.435   2.898  15.143  2.7568 -1.0925  2.2607
 9412TIP3    H249728   2.464   3.028  15.071  0.7111 -2.2829 -0.9028
 9413TIP3   OH249729   5.101   0.567  16.689  0.8359 -0.3399  0.0228
 9413TIP3    H149730   5.023   0.603  16.648  1.5566 -0.2921 -1.3646
 9413TIP3    H249731   5.165   0.560  16.618  2.3683  0.3700  1.2517
 9414TIP3   OH249732   4.412   1.076   5.493 -0.0415 -0.2744  0.2081
 9414TIP3    H149733   4.503   1.050   5.509 -0.3748 -0.3951  2.2043
 9414TIP3    H249734   4.407   1.167   5.520 -0.4728 -0.2295 -0.0109
 9415TIP3   OH249735   5.207   2.666  15.429 -0.9954 -0.0171 -0.4284
 9415TIP3    H149736   5.218   2.578  15.393 -1.0015 -0.7766  1.3286
 9415TIP3    H249737   5.117   2.669  15.462 -0.5282  0.0689  0.9242
 9416TIP3   OH249738   6.805   5.306   3.564  0.4188  0.3636 -0.0710
 9416TIP3    H149739   6.828   5.291   3.656 -4.1634  0.4951  1.3131
 9416TIP3    H249740   6.762   5.392   3.564 -1.9023 -0.6969 -1.7762
 9417TIP3   OH249741   6.524   1.220   0.801  0.4740  0.2650  0.5491
 9417TIP3    H149742   6.562   1.224   0.713 -1.3341 -1.0954 -0.3636
 9417TIP3    H249743   6.430   1.222   0.786  0.1346  0.2578  2.4965
 9418TIP3   OH249744   2.299   0.819  11.218 -0.5517  0.2855 -0.0446
 9418TIP3    H149745   2.343   0.763  11.282  0.0172  0.7955  0.0112
 9418TIP3    H249746   2.207   0.818  11.245 -0.3020  0.5663  0.8370
 9419TIP3   OH249747   6.195   3.239   5.126  0.4853  0.0248  0.6619
 9419TIP3    H149748   6.109   3.207   5.153  0.5811 -0.3492  0.5441
 9419TIP3    H249749   6.256   3.171   5.155  0.6950  0.0923  0.3903
 9420TIP3   OH249750   6.243   1.065  13.070  0.2176  0.0576 -0.1347
 9420TIP3    H149751   6.273   1.120  13.142  0.8970  1.2923 -1.3112
 9420TIP3    H249752   6.320   1.052  13.015 -0.1823 -1.2100 -0.4335
 9421TIP3   OH249753   6.059   4.702   0.425  0.6434 -0.1118  0.2789
 9421TIP3    H149754   6.024   4.789   0.405  0.9617 -0.0986 -0.2427
 9421TIP3    H249755   6.033   4.648   0.350  0.0780 -0.5772  0.8001
 9422TIP3   OH249756   1.745   1.761   5.958 -0.4450 -0.3615  0.3034
 9422TIP3    H149757   1.770   1.749   6.050  2.6843 -2.4484 -0.6538
 9422TIP3    H249758   1.735   1.856   5.948 -0.0356 -0.0092  2.6011
 9423TIP3   OH249759   1.702   1.105  12.804 -0.1747 -0.4001  0.0652
 9423TIP3    H149760   1.646   1.182  12.811 -0.5270 -0.7063  0.6104
 9423TIP3    H249761   1.791   1.141  12.798 -0.0014  0.0292  3.5657
 9424TIP3   OH249762   3.459   1.020  15.813  0.1309 -0.2269 -0.0305
 9424TIP3    H149763   3.525   1.088  15.800  1.0375 -1.2418 -0.7784
 9424TIP3    H249764   3.466   0.998  15.906  1.8237 -1.2783 -0.3631
 9425TIP3   OH249765   3.819   5.096  11.255 -0.4388 -0.1775 -0.1996
 9425TIP3    H149766   3.858   5.119  11.171 -1.4408  1.2743 -0.2979
 9425TIP3    H249767   3.747   5.158  11.266 -1.8794 -1.9200  0.5938
 9426TIP3   OH249768   0.217   2.825  14.257 -0.0576  0.7306 -0.1578
 9426TIP3    H149769   0.291   2.768  14.238 -0.4596  0.2035 -0.1528
 9426TIP3    H249770   0.226   2.847  14.349 -0.3965 -0.0574  0.0717
 9427TIP3   OH249771   6.244   4.533   2.673  0.1870  0.1563 -0.5001
 9427TIP3    H149772   6.206   4.512   2.759  0.3328 -0.4366 -0.5762
 9427TIP3    H249773   6.168   4.549   2.617  0.0550 -0.4075 -0.4954
 9428TIP3   OH249774   0.478   1.293   1.131  0.1183 -0.1507 -0.2130
 9428TIP3    H149775   0.489   1.384   1.159 -0.1733 -0.1310 -0.1641
 9428TIP3    H249776   0.494   1.295   1.036 -0.9830  0.1421 -0.4017
 9429TIP3   OH249777   0.288   5.515  15.242 -0.2601  0.0818 -0.4168
 9429TIP3    H149778   0.334   5.508  15.158 -3.4089  2.5850 -2.5844
 9429TIP3    H249779   0.216   5.451  15.235  0.5829 -1.1309  1.3342
 9430TIP3   OH249780   3.066   3.519  14.331 -0.2886 -0.5098 -0.0613
 9430TIP3    H149781   3.108   3.605  14.339  0.7320 -0.9656 -0.4542
 9430TIP3    H249782   2.979   3.539  14.294  0.2321  0.2960 -0.8961
 9431TIP3   OH249783   1.462   4.825   8.737 -0.3166 -0.0557  0.0490
 9431TIP3    H149784   1.536   4.879   8.763 -1.3651  1.5169 -0.1337
 9431TIP3    H249785   1.458   4.756   8.803  0.4032  0.6932  0.8854
 9432TIP3   OH249786   4.703   4.375   1.943 -0.0812  0.5467 -0.6048
 9432TIP3    H149787   4.761   4.366   1.868 -0.3229  1.0946 -0.8625
 9432TIP3    H249788   4.761   4.395   2.016  0.0404  1.3557 -0.9109
 9433TIP3   OH249789   0.957   0.883   1.446 -0.4562 -0.7650 -0.9158
 9433TIP3    H149790   1.028   0.891   1.510 -0.0780 -1.6728 -1.2096
 9433TIP3    H249791   0.949   0.971   1.408 -0.1181 -0.4299 -0.2217
 9434TIP3   OH249792   4.059   4.559   1.914  0.7103 -0.0030  0.9387
 9434TIP3    H149793   4.092   4.529   1.999  0.1665 -0.6055  0.9475
 9434TIP3    H249794   3.979   4.508   1.900  1.7751 -1.2924 -0.7949
 9435TIP3   OH249795   1.449   0.299  11.216 -0.2545 -0.2987  0.3357
 9435TIP3    H149796   1.391   0.228  11.244  1.0508 -2.3215 -1.7610
 9435TIP3    H249797   1.392   0.358  11.167 -1.3176  0.1190  1.9575
 9436TIP3   OH249798   0.945   4.683   0.788  0.1047 -0.4234  0.0367
 9436TIP3    H149799   1.001   4.753   0.755  0.9447 -1.9847 -2.0288
 9436TIP3    H249800   0.859   4.723   0.796  0.4061  0.6934 -1.7691
 9437TIP3   OH249801   1.594   0.398   1.090 -0.1233 -0.0832 -0.1014
 9437TIP3    H149802   1.531   0.368   1.024 -1.0028 -1.4371  1.2926
 9437TIP3    H249803   1.643   0.319   1.113  0.0830  0.3468  0.9481
 9438TIP3   OH249804   2.636   3.729  12.907 -0.5041 -0.1849 -0.7944
 9438TIP3    H149805   2.722   3.690  12.889 -0.9082 -2.3219  1.4428
 9438TIP3    H249806   2.639   3.750  13.000 -2.7591 -1.2799 -0.4329
 9439TIP3   OH249807   1.409   0.641   2.308 -0.5531 -0.1338  0.6137
 9439TIP3    H149808   1.497   0.665   2.278 -0.4450 -1.8251 -0.5590
 9439TIP3    H249809   1.353   0.713   2.278  0.1526  0.0469 -0.3221
 9440TIP3   OH249810   6.642   0.367  13.256  0.6976  0.3398  0.7358
 9440TIP3    H149811   6.600   0.448  13.227 -0.4181 -0.1736  0.8288
 9440TIP3    H249812   6.735   0.381  13.242  0.2992  0.0758 -3.2976
 9441TIP3   OH249813   3.291   0.528  11.040 -0.0826  0.5600 -0.3119
 9441TIP3    H149814   3.346   0.508  10.965  0.9808  2.5680 -0.1396
 9441TIP3    H249815   3.342   0.497  11.115  0.6962  2.0584 -0.1825
 9442TIP3   OH249816   2.240   0.183  14.793 -0.0588 -0.1368  0.0483
 9442TIP3    H149817   2.312   0.207  14.852 -0.2990 -0.8754  0.6742
 9442TIP3    H249818   2.195   0.112  14.840 -0.5198 -0.4399 -0.8385
 9443TIP3   OH249819   6.038   2.954  11.868 -0.3104  0.1133  0.1018
 9443TIP3    H149820   6.038   2.912  11.954 -1.2205 -2.9522 -1.2336
 9443TIP3    H249821   5.947   2.951  11.840  0.1448 -0.1948 -1.4688
 9444TIP3   OH249822   5.663   3.643   3.057  0.2489 -0.5530  0.2586
 9444TIP3    H149823   5.581   3.691   3.071  0.0655 -0.7616 -0.0808
 9444TIP3    H249824   5.732   3.709   3.067 -0.0935  0.4571 -2.9110
 9445TIP3   OH249825   1.166   2.915   4.346 -0.1595  0.8366 -0.0468
 9445TIP3    H149826   1.188   2.863   4.269 -1.2692 -0.0100  0.1748
 9445TIP3    H249827   1.071   2.926   4.340 -0.0529  2.0957  0.3879
 9446TIP3   OH249828   0.009   5.935   2.280 -0.4124  0.0367 -0.3819
 9446TIP3    H149829   0.010   6.010   2.220  1.5657 -1.6494 -2.6697
 9446TIP3    H249830  -0.077   5.896   2.268 -0.4461  0.3726 -1.3406
 9447TIP3   OH249831   3.887   1.550   5.296  0.1565  0.0389  0.0547
 9447TIP3    H149832   3.968   1.602   5.293  0.4171 -0.3085  0.6714
 9447TIP3    H249833   3.820   1.606   5.258  0.7203  0.2810 -0.5924
 9448TIP3   OH249834   5.349   3.860   2.872 -0.4748  0.5480 -0.3592
 9448TIP3    H149835   5.319   3.934   2.925 -2.7443  0.2963 -1.1525
 9448TIP3    H249836   5.307   3.784   2.912  2.2819 -0.4767  0.8000
 9449TIP3   OH249837   3.060   0.676   5.565 -0.3352 -0.2148 -0.6993
 9449TIP3    H149838   3.047   0.691   5.659  1.6065 -0.4523 -0.3514
 9449TIP3    H249839   3.033   0.586   5.551 -0.4165 -0.2548 -0.3051
 9450TIP3   OH249840   2.458   5.508   5.541  0.2391 -0.0365 -0.2896
 9450TIP3    H149841   2.477   5.512   5.448 -0.6040  2.0867 -0.4086
 9450TIP3    H249842   2.414   5.424   5.553 -0.6764  0.1666 -2.0102
 9451TIP3   OH249843   3.434   1.483  13.910 -0.5076  0.5773  0.0829
 9451TIP3    H149844   3.387   1.488  13.827 -0.5184 -3.1557 -0.3017
 9451TIP3    H249845   3.366   1.470  13.976 -0.3535  1.1062  0.3501
 9452TIP3   OH249846   2.395   0.343  14.504 -0.2952  0.2159  0.4613
 9452TIP3    H149847   2.393   0.255  14.467 -2.9297  0.8292 -1.1173
 9452TIP3    H249848   2.313   0.350  14.553 -0.4422  1.9716  0.0255
 9453TIP3   OH249849   0.828   6.806  15.847 -0.0114 -0.0454 -0.5001
 9453TIP3    H149850   0.874   6.753  15.913 -2.0779  0.4990  1.5003
 9453TIP3    H249851   0.888   6.878  15.829  1.5591 -1.4012 -0.9749
 9454TIP3   OH249852   0.772   0.736   1.576 -0.3324 -0.2867  0.1121
 9454TIP3    H149853   0.859   0.736   1.537  0.1048 -0.5798  1.0789
 9454TIP3    H249854   0.762   0.824   1.612  1.1547 -1.3391  3.4308
 9455TIP3   OH249855   6.105   0.112   0.893  0.1319 -0.2564 -0.4734
 9455TIP3    H149856   6.086   0.112   0.987 -1.8930  0.1276 -0.8256
 9455TIP3    H249857   6.104   0.019   0.868 -0.7166 -0.2856 -0.3471
 9456TIP3   OH249858   4.640   3.429   1.361 -0.1713 -0.2829  0.6043
 9456TIP3    H149859   4.691   3.349   1.378 -0.9653 -0.9246  0.0328
 9456TIP3    H249860   4.592   3.444   1.441  1.5138  0.8150  1.4730
 9457TIP3   OH249861   0.817   2.910   2.813  0.7283 -0.1359 -0.2285
 9457TIP3    H149862   0.834   2.975   2.881  2.0093 -1.3687  0.6932
 9457TIP3    H249863   0.795   2.830   2.862  2.3928 -1.2442 -1.1796
 9458TIP3   OH249864   5.542   5.043  11.526  0.7444  0.6070 -0.5502
 9458TIP3    H149865   5.486   5.057  11.450 -1.1667 -1.2982  0.3966
 9458TIP3    H249866   5.546   5.128  11.569 -1.6573  0.7723 -0.5319
 9459TIP3   OH249867   3.358   0.668   1.232  0.1178  0.0541 -0.3877
 9459TIP3    H149868   3.309   0.587   1.248  0.2270 -0.2572 -1.5115
 9459TIP3    H249869   3.424   0.671   1.301  0.3439 -1.0160 -0.5396
 9460TIP3   OH249870   2.461   2.523  16.681 -0.2712 -0.2341 -0.3559
 9460TIP3    H149871   2.417   2.571  16.751 -0.1300 -0.4197 -0.1396
 9460TIP3    H249872   2.486   2.591  16.617  3.5374  0.6883  1.7843
 9461TIP3   OH249873   2.389   5.970   4.555 -0.3388  0.2855  0.2832
 9461TIP3    H149874   2.463   5.978   4.616  0.6215 -1.0806 -0.6276
 9461TIP3    H249875   2.313   5.956   4.611  0.3120  0.3523  1.2104
 9462TIP3   OH249876   4.534   4.252   1.670  0.1897  0.1842  0.4015
 9462TIP3    H149877   4.588   4.187   1.713 -0.0342 -0.9579 -0.9680
 9462TIP3    H249878   4.505   4.210   1.589 -2.5559  0.8090  0.9362
 9463TIP3   OH249879   3.888   2.296   4.253 -0.6469  0.1373  0.3765
 9463TIP3    H149880   3.957   2.261   4.308 -1.1766 -0.3205  0.7561
 9463TIP3    H249881   3.870   2.383   4.290  0.9722  1.0487 -0.8353
 9464TIP3   OH249882   1.718   6.581   5.644  0.5375  0.5908  0.1084
 9464TIP3    H149883   1.795   6.621   5.686  1.8726 -1.0316 -0.7003
 9464TIP3    H249884   1.728   6.487   5.659 -0.6196  0.2333 -1.1415
 9465TIP3   OH249885   6.338   6.815  11.548  0.0143 -0.1272  0.6717
 9465TIP3    H149886   6.411   6.877  11.547  0.6844 -0.8950 -0.8135
 9465TIP3    H249887   6.272   6.854  11.491 -0.4864  0.2539  1.4945
 9466TIP3   OH249888   6.039   3.640   4.591  0.4205  0.2828 -0.3278
 9466TIP3    H149889   6.101   3.570   4.575 -0.5109 -0.1607 -2.3009
 9466TIP3    H249890   5.977   3.604   4.654  0.6907 -0.1970 -0.3376
 9467TIP3   OH249891   3.443   4.547   6.205 -0.2418  0.3878  0.3247
 9467TIP3    H149892   3.422   4.562   6.297  1.5880  2.4520  0.4887
 9467TIP3    H249893   3.478   4.458   6.202 -0.6808  0.1577  1.5288
 9468TIP3   OH249894   3.233   3.707  13.542 -0.7098  0.2687  0.2004
 9468TIP3    H149895   3.223   3.631  13.599 -1.0939  2.1938  2.8628
 9468TIP3    H249896   3.205   3.676  13.456 -3.1215 -1.9983  1.6520
 9469TIP3   OH249897   0.746   3.878  12.766 -0.4529 -0.6272 -0.0875
 9469TIP3    H149898   0.710   3.872  12.677 -1.0638 -2.7531  0.2546
 9469TIP3    H249899   0.700   3.810  12.815  0.3253  0.0956  1.7104
 9470TIP3   OH249900   2.159   4.542  11.813  0.4950 -0.0157  0.1513
 9470TIP3    H149901   2.110   4.624  11.809  1.3730  0.4733 -1.9270
 9470TIP3    H249902   2.092   4.474  11.817 -0.2711  0.7441  0.6132
 9471TIP3   OH249903   1.108   0.152  10.262 -0.5420  0.1194  0.1622
 9471TIP3    H149904   1.159   0.233  10.262 -0.9750  0.4073 -1.1575
 9471TIP3    H249905   1.174   0.082  10.255 -0.0811  0.2497  2.4270
 9472TIP3   OH249906   6.547   4.010  12.334 -0.4173 -0.5133  0.5093
 9472TIP3    H149907   6.642   4.022  12.329 -0.5397  0.3379 -0.0543
 9472TIP3    H249908   6.524   4.038  12.422 -0.1352 -0.7639  0.6624
 9473TIP3   OH249909   5.252   5.417   0.516 -0.2422  0.2176  0.6268
 9473TIP3    H149910   5.329   5.464   0.548 -0.9223  0.7916  1.4346
 9473TIP3    H249911   5.220   5.471   0.444 -0.1413  0.1996  0.5674
 9474TIP3   OH249912   6.252   2.934  16.552  0.7181  0.0816 -0.5293
 9474TIP3    H149913   6.322   2.878  16.518  0.4244 -1.7157  1.5869
 9474TIP3    H249914   6.255   2.922  16.647 -1.2819  1.4103 -0.2251
 9475TIP3   OH249915   0.709   1.745   0.419  0.7695  0.6914 -0.5024
 9475TIP3    H149916   0.733   1.667   0.369  0.3473  0.4219 -0.2865
 9475TIP3    H249917   0.665   1.802   0.356  2.1838  1.3111 -0.9770
 9476TIP3   OH249918   3.797   2.591  15.765  0.3366 -0.1674  0.2475
 9476TIP3    H149919   3.705   2.596  15.738  0.7376 -0.7940 -1.3155
 9476TIP3    H249920   3.833   2.677  15.743 -0.1282  0.5309  2.0112
 9477TIP3   OH249921   0.669   4.889  13.817 -0.0979  0.4878  0.0843
 9477TIP3    H149922   0.648   4.983  13.818 -2.5799  0.0022 -0.3711
 9477TIP3    H249923   0.615   4.851  13.886  0.8543 -0.6486  0.2416
 9478TIP3   OH249924   1.440   6.812   4.445  0.3285 -0.1554  0.0623
 9478TIP3    H149925   1.460   6.902   4.470 -0.2751 -0.1826  0.6560
 9478TIP3    H249926   1.514   6.761   4.478  0.4201  0.0527  0.1782
 9479TIP3   OH249927   0.358   2.687   3.887 -0.7066 -0.2921 -0.1930
 9479TIP3    H149928   0.427   2.750   3.903  0.0754 -0.9672 -0.8228
 9479TIP3    H249929   0.332   2.702   3.796  0.7389 -2.0117 -0.9610
 9480TIP3   OH249930   1.230   1.117  14.132 -0.2176 -0.0026 -0.3307
 9480TIP3    H149931   1.218   1.022  14.138 -0.6267  0.0632 -0.0514
 9480TIP3    H249932   1.322   1.131  14.156 -0.8054 -0.1053  2.2790
 9481TIP3   OH249933   2.273   5.766  12.002 -0.0528 -0.9956 -0.1351
 9481TIP3    H149934   2.222   5.693  11.968 -1.0529  0.6636 -2.5322
 9481TIP3    H249935   2.338   5.784  11.933 -0.5545  1.0240 -0.1430
 9482TIP3   OH249936   2.657   0.946   2.403 -0.0505 -0.2547  0.0820
 9482TIP3    H149937   2.632   0.868   2.452 -2.3651  1.0068  1.0466
 9482TIP3    H249938   2.669   0.915   2.313  1.4669 -2.0910  0.8440
 9483TIP3   OH249939   6.350   3.554  15.226 -0.2203  0.3058 -0.7150
 9483TIP3    H149940   6.437   3.594  15.229 -1.3997  3.0139  1.9235
 9483TIP3    H249941   6.296   3.617  15.180 -1.2394 -0.3077 -0.3867
 9484TIP3   OH249942   3.947   2.802   5.299  0.6269 -0.3623  0.5169
 9484TIP3    H149943   3.877   2.863   5.323 -0.8297 -2.2242  1.2527
 9484TIP3    H249944   4.019   2.823   5.359  0.6737  1.4659 -0.1286
 9485TIP3   OH249945   6.540   2.356  11.474 -0.0009 -0.5037  0.6843
 9485TIP3    H149946   6.536   2.382  11.382 -2.8856 -0.6083  0.6805
 9485TIP3    H249947   6.626   2.316  11.484  0.8685  0.5907 -1.6379
 9486TIP3   OH249948   6.239   2.995   0.639  0.3437  0.0998  0.2565
 9486TIP3    H149949   6.234   3.033   0.552 -1.0600 -1.4206 -0.3783
 9486TIP3    H249950   6.165   3.031   0.686 -2.4776 -3.3369 -1.0874
 9487TIP3   OH249951   4.133   1.257   5.794  0.7398 -0.1242 -0.3237
 9487TIP3    H149952   4.053   1.207   5.811  0.2894  0.8023  0.4216
 9487TIP3    H249953   4.197   1.192   5.767 -0.2094 -0.9198 -0.7411
 9488TIP3   OH249954   4.337   3.213  15.119 -0.5066  0.1258  0.1377
 9488TIP3    H149955   4.305   3.268  15.190  0.9556 -1.6280  2.2707
 9488TIP3    H249956   4.426   3.242  15.103 -0.5759  0.0235 -0.4831
 9489TIP3   OH249957   1.094   2.607   5.399 -0.0459  0.1740 -0.1887
 9489TIP3    H149958   1.034   2.585   5.328  0.3016 -2.3088  0.2188
 9489TIP3    H249959   1.036   2.639   5.469 -1.1590 -3.0407  0.5424
 9490TIP3   OH249960   4.941   3.287   3.601  0.4151 -0.6166  1.1228
 9490TIP3    H149961   4.893   3.236   3.536  1.6792  0.1097 -0.4402
 9490TIP3    H249962   4.872   3.334   3.649 -0.5935 -1.7926  0.8784
 9491TIP3   OH249963   5.565   6.721  14.926  0.0075  0.0139 -0.0516
 9491TIP3    H149964   5.488   6.678  14.890 -0.0562  0.8530 -0.9625
 9491TIP3    H249965   5.539   6.748  15.014 -1.0953  1.1677 -0.6991
 9492TIP3   OH249966   2.948   2.198  13.141  0.3283  0.2573  0.4466
 9492TIP3    H149967   2.870   2.172  13.092 -0.4978  1.1124  1.2623
 9492TIP3    H249968   2.916   2.258  13.207  1.5429 -0.1799  1.4817
 9493TIP3   OH249969   6.488   3.386   0.507 -0.5134  0.2294  0.7590
 9493TIP3    H149970   6.533   3.329   0.445 -0.9470  0.0126  0.6356
 9493TIP3    H249971   6.557   3.424   0.561 -0.2250 -0.4617  0.8792
 9494TIP3   OH249972   2.548   3.306  11.047  0.7865 -0.3321  0.6916
 9494TIP3    H149973   2.557   3.365  10.972  1.2743 -1.1955  0.0548
 9494TIP3    H249974   2.581   3.357  11.121  2.9363 -0.3946 -0.1496
 9495TIP3   OH249975   0.091   6.003   4.180 -0.2076 -0.6332  0.4693
 9495TIP3    H149976   0.180   6.025   4.154 -0.6613  0.6201 -0.1207
 9495TIP3    H249977   0.101   5.942   4.254  1.1197 -1.6154 -0.4690
 9496TIP3   OH249978   5.750   6.589   4.514  0.2059 -0.0136  0.1357
 9496TIP3    H149979   5.737   6.498   4.488  0.0051 -0.5014  1.8706
 9496TIP3    H249980   5.735   6.639   4.433  1.2928 -1.5567 -1.0898
 9497TIP3   OH249981   3.947   5.520   5.855 -0.0610  0.4801 -0.0145
 9497TIP3    H149982   3.900   5.441   5.884 -0.5224  0.5189 -0.6231
 9497TIP3    H249983   3.881   5.570   5.807 -0.1797  1.9268  1.5361
 9498TIP3   OH249984   5.986   4.060  15.786 -0.0119 -0.3022  0.0140
 9498TIP3    H149985   6.007   4.089  15.875  0.7777  3.1096 -1.1498
 9498TIP3    H249986   6.031   3.976  15.777  1.3972  0.1233  2.2411
 9499TIP3   OH249987   0.272   0.188   2.395 -0.9380 -0.1037  0.2465
 9499TIP3    H149988   0.233   0.201   2.482  2.4270  0.2556  1.8797
 9499TIP3    H249989   0.362   0.160   2.413 -0.8084 -2.5953 -3.1948
 9500TIP3   OH249990   6.530   0.446  16.972 -0.1324  0.0305 -0.3615
 9500TIP3    H149991   6.561   0.357  16.955  2.6064  0.8895 -0.3256
 9500TIP3    H249992   6.525   0.451  17.067  0.9180  0.2516 -0.3063
 9501TIP3   OH249993   4.765   0.869  14.918 -0.1426  0.1023  0.5089
 9501TIP3    H149994   4.850   0.907  14.897 -1.0198  0.9246 -1.9870
 9501TIP3    H249995   4.730   0.926  14.986  0.6421  0.7657  0.3735
 9502TIP3   OH249996   4.440   2.581  13.023  0.1186 -0.1387  0.2458
 9502TIP3    H149997   4.464   2.506  12.968 -1.4662 -1.5986  1.4192
 9502TIP3    H249998   4.453   2.657  12.967  0.5892 -1.3915 -1.4312
 9503TIP3   OH249999   1.748   4.300  15.598 -0.6049 -0.4047 -0.2856
 9503TIP3    H150000   1.669   4.291  15.652 -0.1524  0.0404  0.4703
 9503TIP3    H250001   1.721   4.358  15.527 -0.6706  0.6741  0.5881
 9504TIP3   OH250002   5.745   5.306   6.088  0.1797 -0.2268 -0.5843
 9504TIP3    H150003   5.679   5.275   6.149  1.6462  0.4106  1.4385
 9504TIP3    H250004   5.718   5.396   6.067 -0.2156 -0.3732 -0.7064
 9505TIP3   OH250005   3.373   3.011   3.057  0.0835 -0.0964  0.1235
 9505TIP3    H150006   3.415   2.936   3.015 -0.6470 -0.5904  0.2472
 9505TIP3    H250007   3.299   3.032   3.000 -1.2258 -1.0878  1.3392
 9506TIP3   OH250008   1.420   0.868  13.600 -0.1522  0.6369  0.1816
 9506TIP3    H150009   1.445   0.885  13.509 -0.1453  1.1445  0.2745
 9506TIP3    H250010   1.385   0.951  13.631 -0.3520  0.4077  0.5803
 9507TIP3   OH250011   1.798   6.433  15.474  0.0833 -0.1068  0.0108
 9507TIP3    H150012   1.760   6.510  15.433  1.1681 -0.3136 -1.4489
 9507TIP3    H250013   1.729   6.366  15.469  0.2576 -0.2030 -1.7487
 9508TIP3   OH250014   3.623   4.606  14.914  0.1190 -0.2176 -0.0119
 9508TIP3    H150015   3.536   4.645  14.922  0.0630 -0.5182  1.1067
 9508TIP3    H250016   3.673   4.667  14.859 -0.3875  0.6792  0.5041
 9509TIP3   OH250017   6.237   3.460  11.324  0.3641  0.2810  0.3241
 9509TIP3    H150018   6.283   3.543  11.336 -1.1349  1.3906 -1.1214
 9509TIP3    H250019   6.298   3.393  11.357  1.9271  1.8678  0.7854
 9510TIP3   OH250020   6.805   5.840  16.192  0.7697 -0.3369 -0.0829
 9510TIP3    H150021   6.772   5.902  16.257  1.4152  1.4658 -1.4000
 9510TIP3    H250022   6.879   5.797  16.234 -0.3946 -1.1100  1.2592
 9511TIP3   OH250023   1.973   2.623   5.937  0.5044 -0.1280  0.0221
 9511TIP3    H150024   2.047   2.626   5.877  1.3603  0.2257  1.0757
 9511TIP3    H250025   1.989   2.546   5.991  0.2331  0.0797  0.4050
 9512TIP3   OH250026   4.165   4.585   3.161 -0.2934  0.1669  0.0438
 9512TIP3    H150027   4.125   4.523   3.221  0.4946  0.1436  0.5619
 9512TIP3    H250028   4.104   4.591   3.088 -1.6752  0.8172  1.2051
 9513TIP3   OH250029   4.672   2.839   1.597  0.5985  0.5178  0.0503
 9513TIP3    H150030   4.724   2.858   1.519  1.3067 -0.2869  0.3167
 9513TIP3    H250031   4.647   2.747   1.588  0.3782  0.5183  0.5993
 9514TIP3   OH250032   1.544   0.519   3.851 -0.4427  0.2027  0.0840
 9514TIP3    H150033   1.559   0.437   3.898 -1.2895 -0.6181 -1.0186
 9514TIP3    H250034   1.460   0.551   3.884  0.7753  1.7045  1.9470
 9515TIP3   OH250035   4.225   5.913  11.474 -0.3713 -0.1000 -0.2909
 9515TIP3    H150036   4.204   6.000  11.442  1.2205  1.4996  2.6344
 9515TIP3    H250037   4.320   5.913  11.484 -0.4480 -1.7463  0.9025
 9516TIP3   OH250038   2.629   2.729   2.057  0.0334  0.9521 -0.1764
 9516TIP3    H150039   2.560   2.749   2.121  0.2374  0.9524  0.0442
 9516TIP3    H250040   2.582   2.692   1.982  0.0481 -2.1275  1.1993
 9517TIP3   OH250041   5.645   0.185  11.544  0.1677  0.2821  0.2784
 9517TIP3    H150042   5.600   0.194  11.628  0.6466  2.1948  0.3619
 9517TIP3    H250043   5.597   0.243  11.485  0.5786 -0.1141 -0.4536
 9518TIP3   OH250044   3.104   0.751   6.159  0.1822  0.2947 -0.3406
 9518TIP3    H150045   3.128   0.687   6.226  0.2277  1.9000  1.2393
 9518TIP3    H250046   3.071   0.826   6.208 -3.2368  0.2108 -2.2124
 9519TIP3   OH250047   4.599   5.131  13.885  0.0306  0.4223  0.3927
 9519TIP3    H150048   4.683   5.172  13.903 -0.1834  1.4960 -0.8741
 9519TIP3    H250049   4.560   5.117  13.971  1.5426 -0.2291  1.0045
 9520TIP3   OH250050   0.479   0.375   3.990 -0.1479  0.5307  0.0289
 9520TIP3    H150051   0.538   0.395   4.063 -0.1734  1.0874 -0.0975
 9520TIP3    H250052   0.500   0.285   3.966 -1.1597 -0.1945  1.6804
 9521TIP3   OH250053   0.423   2.637   0.548 -0.5147  0.0522 -0.0047
 9521TIP3    H150054   0.438   2.543   0.539 -0.9851 -0.0024 -0.2519
 9521TIP3    H250055   0.502   2.677   0.510 -0.2828 -0.2391  0.1636
 9522TIP3   OH250056   2.120   0.489   4.650 -0.4028  0.4740 -0.0733
 9522TIP3    H150057   2.046   0.508   4.591 -0.1709  0.2857 -0.4282
 9522TIP3    H250058   2.103   0.542   4.728 -2.2376 -1.4073  0.9144
 9523TIP3   OH250059   0.640   0.119   2.966  0.0097  0.3969 -0.0830
 9523TIP3    H150060   0.615   0.152   3.052  0.8574  0.3681  0.1820
 9523TIP3    H250061   0.571   0.056   2.943 -0.4388  0.7095  0.3808
 9524TIP3   OH250062   4.848   5.949  15.289 -0.2038  0.1273 -0.3143
 9524TIP3    H150063   4.788   5.958  15.362  0.3299  2.2727 -0.0660
 9524TIP3    H250064   4.935   5.960  15.327  0.1263  0.5242 -1.1449
 9525TIP3   OH250065   2.494   4.488   5.357  0.7787  1.1643 -0.4040
 9525TIP3    H150066   2.417   4.544   5.364 -0.5801 -0.7333  0.9131
 9525TIP3    H250067   2.541   4.501   5.440 -0.2243 -0.4914  0.4785
 9526TIP3   OH250068   5.951   4.026   3.227  0.2584 -0.0561 -0.5570
 9526TIP3    H150069   6.045   4.012   3.226  0.2560 -0.0460 -1.1309
 9526TIP3    H250070   5.939   4.111   3.184 -0.0064 -0.0321 -0.4366
 9527TIP3   OH250071   3.704   1.393   2.605 -0.4920 -0.0705 -0.1508
 9527TIP3    H150072   3.754   1.351   2.675 -2.5325 -0.7245  1.0279
 9527TIP3    H250073   3.732   1.484   2.607  0.7547 -0.4460  0.3353
 9528TIP3   OH250074   4.280   6.328  15.721  0.3216  0.1939  0.0093
 9528TIP3    H150075   4.290   6.352  15.629  0.5607  1.2139  0.2849
 9528TIP3    H250076   4.192   6.358  15.744 -0.4792 -1.7346 -0.3533
 9529TIP3   OH250077   1.969   5.012   1.696  0.3736 -0.8524  0.0363
 9529TIP3    H150078   1.943   4.965   1.616 -4.4545  0.4842  0.4461
 9529TIP3    H250079   2.044   5.065   1.669  0.3293 -2.0905 -2.9737
 9530TIP3   OH250080   5.577   0.257  17.072 -0.6566  0.4958  0.1948
 9530TIP3    H150081   5.484   0.270  17.093 -0.5977  1.3957 -0.0634
 9530TIP3    H250082   5.603   0.182  17.126 -1.3548  0.6749  0.8039
 9531TIP3   OH250083   0.236   2.522  14.864 -0.6097  0.4312 -0.1892
 9531TIP3    H150084   0.270   2.444  14.908 -0.3045  1.1370  0.8558
 9531TIP3    H250085   0.310   2.554  14.813 -1.0539 -0.5701 -1.5635
 9532TIP3   OH250086   4.687   3.093  15.789 -0.1328 -0.3197 -0.1687
 9532TIP3    H150087   4.680   3.003  15.823  1.0679  0.0882  1.2847
 9532TIP3    H250088   4.634   3.145  15.848  0.1686  0.0978 -0.2630
 9533TIP3   OH250089   2.746   6.496   4.965 -0.7506 -0.3184  0.2253
 9533TIP3    H150090   2.835   6.505   5.000 -0.6857 -0.3697  0.0718
 9533TIP3    H250091   2.691   6.488   5.043 -0.4380 -2.0223  0.3127
 9534TIP3   OH250092   5.798   3.383  14.411 -0.0148  0.3170 -0.2213
 9534TIP3    H150093   5.824   3.301  14.452 -1.7658 -1.1789 -1.8651
 9534TIP3    H250094   5.710   3.400  14.445  1.2137  2.9970  2.0556
 9535TIP3   OH250095   0.683   2.555   1.732  0.2663  0.1601  0.1110
 9535TIP3    H150096   0.668   2.463   1.713 -1.1954  0.2229  0.8462
 9535TIP3    H250097   0.604   2.599   1.700  0.4853  1.0216  0.7360
 9536TIP3   OH250098   3.617   1.762  16.922 -0.9930  0.6537 -0.2642
 9536TIP3    H150099   3.586   1.757  17.012  0.0280  0.9639  0.1184
 9536TIP3    H250100   3.682   1.832  16.922 -1.3285  0.9907 -1.3545
 9537TIP3   OH250101   4.931   1.635  11.829  0.0615  0.0054  0.1894
 9537TIP3    H150102   4.906   1.574  11.898  0.7234  0.3374  0.7259
 9537TIP3    H250103   4.849   1.678  11.804 -0.1538 -0.0088  0.8686
 9538TIP3   OH250104   1.621   6.693  16.625  0.0353 -0.4993  0.3384
 9538TIP3    H150105   1.712   6.719  16.640 -0.1966 -0.0876  1.0996
 9538TIP3    H250106   1.606   6.710  16.532  0.4611  0.3535  0.4110
 9539TIP3   OH250107   0.185   1.295   2.000  0.0704  0.2703  0.2214
 9539TIP3    H150108   0.263   1.243   1.978 -0.1262  0.1745 -0.2498
 9539TIP3    H250109   0.183   1.294   2.096  1.3806  1.3568  0.2845
 9540TIP3   OH250110   6.256   1.602   0.014 -0.9400 -0.5296  0.4701
 9540TIP3    H150111   6.350   1.601   0.030 -0.9373  0.1763  0.5008
 9540TIP3    H250112   6.217   1.573   0.096 -0.7316 -1.4296  0.2633
 9541TIP3   OH250113   3.057   0.712  13.601  0.5797 -0.0068 -0.2446
 9541TIP3    H150114   2.981   0.677  13.554  0.0411  1.8946 -0.8986
 9541TIP3    H250115   3.132   0.691  13.545  0.2671 -0.1081 -0.6316
 9542TIP3   OH250116   5.311   0.685   2.989  0.6246 -0.0106  0.0533
 9542TIP3    H150117   5.252   0.737   3.044  1.3077  1.4612 -0.5432
 9542TIP3    H250118   5.367   0.638   3.050  0.0486  0.0061  0.6067
 9543TIP3   OH250119   5.004   1.769   3.862  0.3601  0.0118 -0.4040
 9543TIP3    H150120   5.059   1.700   3.899  1.0936  0.4475 -0.6737
 9543TIP3    H250121   4.990   1.830   3.934  1.1819  0.4842 -0.6361
 9544TIP3   OH250122   2.242   4.498   5.540  0.0769 -0.9548  0.0581
 9544TIP3    H150123   2.198   4.504   5.455 -0.0622 -2.7966 -0.0414
 9544TIP3    H250124   2.201   4.567   5.593  1.1771  1.2125 -1.7364
 9545TIP3   OH250125   3.797   0.213  12.096  0.1008 -0.3868 -0.0104
 9545TIP3    H150126   3.789   0.209  12.191 -1.0324 -1.0733 -0.1152
 9545TIP3    H250127   3.721   0.264  12.068  0.8228  0.4449 -0.5066
 9546TIP3   OH250128   5.956   1.065   5.574  0.1679 -0.4295 -0.4596
 9546TIP3    H150129   5.923   0.975   5.568  0.5929 -0.5144 -2.0384
 9546TIP3    H250130   5.882   1.119   5.545 -0.0221 -0.2811  0.2951
 9547TIP3   OH250131   5.752   4.638  12.533  0.2817 -0.3453  0.2601
 9547TIP3    H150132   5.736   4.680  12.448  0.0494  1.8049  1.3163
 9547TIP3    H250133   5.690   4.565  12.535 -0.8708  0.5585 -0.7536
 9548TIP3   OH250134   0.199   2.659   2.574  0.1079 -0.3037  0.0343
 9548TIP3    H150135   0.113   2.653   2.615  0.2400  1.1974  0.5689
 9548TIP3    H250136   0.190   2.724   2.505  0.8941  0.1455  0.3352
 9549TIP3   OH250137   0.995   5.197   3.661 -1.1062  0.9489  0.0292
 9549TIP3    H150138   0.913   5.161   3.697 -0.6118 -1.0514 -0.6956
 9549TIP3    H250139   0.969   5.233   3.576 -1.2657  0.3270 -0.1952
 9550TIP3   OH250140   0.246   3.847  11.153  0.0345  0.0343 -0.2065
 9550TIP3    H150141   0.205   3.796  11.223 -0.9363 -1.2776 -1.6624
 9550TIP3    H250142   0.186   3.919  11.137 -0.2675 -0.2477 -0.3632
 9551TIP3   OH250143   3.902   2.479  17.026 -0.0666 -0.7941 -0.0435
 9551TIP3    H150144   3.970   2.414  17.042 -1.0623 -1.5908  1.1968
 9551TIP3    H250145   3.888   2.477  16.932  2.6742  0.5329 -0.5807
 9552TIP3   OH250146   3.244   6.305  15.298 -0.6417  0.2202 -0.6832
 9552TIP3    H150147   3.218   6.220  15.336 -1.7126  0.9351  0.2469
 9552TIP3    H250148   3.164   6.338  15.257  0.1599  0.0940 -2.4676
 9553TIP3   OH250149   0.745   1.826  16.580  0.1812  0.1372  0.1253
 9553TIP3    H150150   0.706   1.739  16.568  3.4151 -1.2984 -1.1609
 9553TIP3    H250151   0.798   1.818  16.660  2.1628  0.1686 -1.1210
 9554TIP3   OH250152   3.902   2.051   1.483  0.1259 -0.4337 -1.3141
 9554TIP3    H150153   3.859   1.976   1.525 -0.5844  0.3903 -0.5232
 9554TIP3    H250154   3.839   2.123   1.493  1.6990  0.8412 -0.0403
 9555TIP3   OH250155   1.644   3.030   2.007  0.2046  0.0562  0.1426
 9555TIP3    H150156   1.605   3.096   2.065  0.2532  0.3592 -0.1685
 9555TIP3    H250157   1.736   3.026   2.032  0.2995  0.4358 -0.1475
 9556TIP3   OH250158   0.692   5.639   1.642 -0.1889  0.2727  0.0718
 9556TIP3    H150159   0.703   5.683   1.558  1.5548  0.1483  0.1955
 9556TIP3    H250160   0.726   5.701   1.707  1.3504 -0.7742  0.3425
 9557TIP3   OH250161   5.070   3.502   1.155 -0.5019 -0.0173 -0.5182
 9557TIP3    H150162   5.104   3.591   1.166  0.2229 -0.3878  0.3805
 9557TIP3    H250163   4.975   3.512   1.159 -0.4560  0.3330  3.3405
 9558TIP3   OH250164   0.905   5.250   3.111  0.0571  0.0782  0.3120
 9558TIP3    H150165   0.883   5.243   3.018  0.8251 -1.8620  0.2380
 9558TIP3    H250166   0.997   5.223   3.116 -0.6717 -2.4354  1.9140
 9559TIP3   OH250167   3.414   4.552  15.887  0.5946  0.1826 -0.2800
 9559TIP3    H150168   3.340   4.587  15.838  0.0178  0.1110  0.5031
 9559TIP3    H250169   3.375   4.483  15.942  1.2784 -0.0031 -0.0177
 9560TIP3   OH250170   6.570   1.932  10.552 -0.2893  0.3263  0.2190
 9560TIP3    H150171   6.615   2.002  10.505  0.7360 -1.4663 -1.6739
 9560TIP3    H250172   6.507   1.897  10.489  0.2676 -1.3690  0.5353
 9561TIP3   OH250173   5.202   4.245   0.323 -0.6624 -0.0559 -0.1808
 9561TIP3    H150174   5.289   4.206   0.317 -0.0408  1.1655  0.3858
 9561TIP3    H250175   5.152   4.185   0.378 -0.3644 -1.0625 -0.9776
 9562TIP3   OH250176   0.438   6.634  14.904  0.5167  0.7155 -0.0776
 9562TIP3    H150177   0.490   6.559  14.876  1.2993  0.9852  0.6140
 9562TIP3    H250178   0.440   6.630  15.000 -1.4382  0.2552 -0.0012
 9563TIP3   OH250179   1.877   0.405  11.215 -0.5224  0.0975  0.4567
 9563TIP3    H150180   1.801   0.463  11.217 -1.0719 -0.5801 -0.2779
 9563TIP3    H250181   1.951   0.463  11.195 -0.9088  0.6872  0.7241
 9564TIP3   OH250182   2.269   1.077   4.210 -1.1583  0.3502 -0.2815
 9564TIP3    H150183   2.330   1.029   4.154 -1.8022 -0.8537  0.0306
 9564TIP3    H250184   2.189   1.086   4.158 -0.5804  2.4635 -0.9253
 9565TIP3   OH250185   0.514   4.785  13.467  0.5689  0.0484  0.2505
 9565TIP3    H150186   0.530   4.730  13.390  1.8041 -1.7959  1.7370
 9565TIP3    H250187   0.601   4.806  13.501  0.0464  0.5639  1.3380
 9566TIP3   OH250188   5.175   4.455   6.219  0.2340 -0.5285  0.1585
 9566TIP3    H150189   5.112   4.383   6.217 -0.7911  0.2929  1.4113
 9566TIP3    H250190   5.124   4.531   6.246  1.2239  0.7636 -1.3833
 9567TIP3   OH250191   5.291   5.855  16.953  0.6354 -0.3259  0.1510
 9567TIP3    H150192   5.319   5.765  16.940 -0.9879 -0.9274  0.6222
 9567TIP3    H250193   5.249   5.855  17.039 -1.9188  0.2053 -1.0073
 9568TIP3   OH250194   1.213   6.735   6.334 -0.0636  0.5068  0.1021
 9568TIP3    H150195   1.248   6.718   6.247  0.1407  0.9265  0.1021
 9568TIP3    H250196   1.161   6.814   6.324  2.3024  2.2922  0.9469
 9569TIP3   OH250197   6.481   6.698  16.985  0.0428 -0.0770  0.5711
 9569TIP3    H150198   6.445   6.787  16.986  0.0663 -0.0601  0.0635
 9569TIP3    H250199   6.449   6.660  16.904 -0.7249 -0.8579  1.2306
 9570TIP3   OH250200   5.405   4.724  14.670 -0.4613  0.4699 -1.3869
 9570TIP3    H150201   5.472   4.758  14.611 -0.1541  0.1666 -1.2159
 9570TIP3    H250202   5.362   4.655  14.619 -0.3824  0.3969 -1.3534
 9571TIP3   OH250203   6.303   1.827  12.103 -0.4916  0.0806  0.2709
 9571TIP3    H150204   6.214   1.862  12.093 -0.4099  0.3254  0.3795
 9571TIP3    H250205   6.359   1.905  12.105 -0.0925 -0.1116 -1.4843
 9572TIP3   OH250206   5.379   0.981  13.407 -0.7166  1.0343 -0.1026
 9572TIP3    H150207   5.296   0.945  13.440  0.5745  0.3343  2.6539
 9572TIP3    H250208   5.439   0.974  13.481  1.8304  1.5335 -1.9957
 9573TIP3   OH250209   0.477   6.274  15.024  0.4124  0.3770  0.1376
 9573TIP3    H150210   0.440   6.236  15.103 -0.5598  0.3758 -0.3105
 9573TIP3    H250211   0.403   6.311  14.977  0.7489 -0.8011 -1.4430
 9574TIP3   OH250212   1.619   4.738   0.794 -0.1213  0.5305  0.1966
 9574TIP3    H150213   1.552   4.714   0.730 -0.6989  2.7569 -0.0876
 9574TIP3    H250214   1.684   4.668   0.787 -1.6998 -0.9503 -0.5114
 9575TIP3   OH250215   1.992   1.296   3.863 -0.0950 -0.1056  0.5360
 9575TIP3    H150216   2.043   1.345   3.798  2.0152 -1.1264  1.3262
 9575TIP3    H250217   1.901   1.305   3.834  0.7497 -0.5714 -2.6242
 9576TIP3   OH250218   0.983   2.714  11.227 -0.1652  0.0253  0.2594
 9576TIP3    H150219   1.055   2.655  11.202 -1.2316 -0.7766 -1.1085
 9576TIP3    H250220   1.017   2.802  11.212  0.5371 -0.3479 -0.3819
 9577TIP3   OH250221   0.646   0.595   0.739 -0.0386 -0.5770 -0.3548
 9577TIP3    H150222   0.719   0.638   0.783  0.3368  0.2965 -1.7557
 9577TIP3    H250223   0.583   0.665   0.722 -1.0463 -1.2542  0.4911
 9578TIP3   OH250224   6.129   3.031  12.486 -0.3793 -0.3514  0.1075
 9578TIP3    H150225   6.213   2.986  12.491  0.1100  0.6350  3.4477
 9578TIP3    H250226   6.108   3.052  12.577 -3.0571  1.6112 -0.8334
 9579TIP3   OH250227   4.868   1.806  15.469  0.0904 -0.3407  0.5070
 9579TIP3    H150228   4.865   1.710  15.474 -0.3010 -0.3763 -0.2328
 9579TIP3    H250229   4.961   1.827  15.476  0.2443 -0.8218  0.0296
 9580TIP3   OH250230   0.103   5.161  12.606  0.1308  0.5895  0.2056
 9580TIP3    H150231   0.105   5.079  12.655  2.0930  0.5113  0.0903
 9580TIP3    H250232   0.023   5.205  12.634  0.0849 -0.4569  1.7965
 9581TIP3   OH250233   6.638   5.599  16.174 -0.2448  0.5636 -0.2306
 9581TIP3    H150234   6.600   5.545  16.243 -1.9555  2.1793  0.1636
 9581TIP3    H250235   6.627   5.689  16.204 -1.6366  1.3871 -2.8208
 9582TIP3   OH250236   0.427   4.160   3.874 -0.0305  0.3480  0.0473
 9582TIP3    H150237   0.379   4.225   3.925  0.5392  1.8246 -1.1801
 9582TIP3    H250238   0.361   4.097   3.846 -0.5208  0.0976  1.6877
 9583TIP3   OH250239   1.561   3.229   0.784  0.1659  0.1043  0.1992
 9583TIP3    H150240   1.525   3.307   0.742 -0.8973  0.3184  1.4263
 9583TIP3    H250241   1.629   3.198   0.724 -1.6798  0.0030 -2.0192
 9584TIP3   OH250242   0.673   2.099   3.478  0.1642  0.8091  0.0326
 9584TIP3    H150243   0.579   2.085   3.483  0.1824  0.7116  0.1020
 9584TIP3    H250244   0.689   2.173   3.537 -0.2357  2.6255 -1.9858
 9585TIP3   OH250245   3.189   3.653   4.302 -0.0381 -0.1601  0.1013
 9585TIP3    H150246   3.111   3.597   4.308  1.0329 -1.7708 -0.3729
 9585TIP3    H250247   3.215   3.647   4.210  0.9508 -0.0897  0.3693
 9586TIP3   OH250248   2.614   1.735  12.357  0.6021 -0.3649  0.3144
 9586TIP3    H150249   2.552   1.688  12.413 -0.9454 -2.8934 -3.1414
 9586TIP3    H250250   2.560   1.797  12.309  0.8370 -1.7268 -1.8504
 9587TIP3   OH250251   1.654   3.417  16.643  0.6315  0.0093  0.4152
 9587TIP3    H150252   1.709   3.340  16.627 -0.5356 -0.7361 -0.1229
 9587TIP3    H250253   1.581   3.384  16.695 -0.4693  0.5087 -0.7732
 9588TIP3   OH250254   3.595   0.683   4.057  0.4461  0.6373  0.3757
 9588TIP3    H150255   3.672   0.651   4.011 -0.0432 -0.1256  0.0681
 9588TIP3    H250256   3.541   0.605   4.071 -1.1192  1.4079 -1.0368
 9589TIP3   OH250257   1.591   3.994   4.761  0.1560  0.4531 -0.7029
 9589TIP3    H150258   1.664   4.009   4.820 -0.2079  0.5528 -0.2754
 9589TIP3    H250259   1.619   4.032   4.678  0.7021  0.2371 -0.6214
 9590TIP3   OH250260   0.117   0.363  16.266  0.2384  0.3096 -0.2848
 9590TIP3    H150261   0.169   0.384  16.343 -2.6088 -1.2785  2.3009
 9590TIP3    H250262   0.098   0.448  16.226  1.1816  1.2708  1.1935
 9591TIP3   OH250263   4.693   4.497  14.081  0.1421  0.0818  0.3180
 9591TIP3    H150264   4.705   4.402  14.078 -0.3313  0.0139  0.5239
 9591TIP3    H250265   4.767   4.528  14.133 -0.5392 -0.3346  1.5794
 9592TIP3   OH250266   3.040   1.119  16.792 -0.2573  0.1307 -0.0811
 9592TIP3    H150267   3.106   1.164  16.844 -0.6052 -0.7636  1.2020
 9592TIP3    H250268   3.021   1.039  16.842 -2.0832  0.2152 -0.5650
 9593TIP3   OH250269   4.859   2.039   1.217  0.1053 -0.2737 -0.5183
 9593TIP3    H150270   4.793   2.107   1.231  2.1733  1.8091 -0.1658
 9593TIP3    H250271   4.858   1.987   1.297 -1.0270 -0.2535 -0.4985
 9594TIP3   OH250272   6.688   0.390   3.513  0.5771 -0.2226  0.9464
 9594TIP3    H150273   6.783   0.390   3.522  0.4817  0.2019  2.1174
 9594TIP3    H250274   6.672   0.359   3.423  1.7979 -0.6750  0.8679
 9595TIP3   OH250275   6.508   4.084  12.619  0.5304 -0.8943 -0.0502
 9595TIP3    H150276   6.518   3.994  12.651 -0.4680 -0.3628  1.9235
 9595TIP3    H250277   6.459   4.129  12.688  2.0697  1.4976 -0.3979
 9596TIP3   OH250278   3.228   5.711   1.907 -0.2376 -0.1860 -0.5923
 9596TIP3    H150279   3.279   5.787   1.879 -0.4637 -0.5888 -2.2002
 9596TIP3    H250280   3.148   5.714   1.853 -0.2955 -1.4943 -0.6170
 9597TIP3   OH250281   0.102   6.790   2.639 -0.3879 -0.0138 -0.3526
 9597TIP3    H150282   0.058   6.710   2.611 -0.3730 -0.0635 -0.2344
 9597TIP3    H250283   0.032   6.843   2.679 -0.5750  0.4135 -1.2376
 9598TIP3   OH250284   2.918   6.267  10.331 -0.3003 -0.4640  0.8816
 9598TIP3    H150285   2.851   6.199  10.342 -0.4918 -0.3494  0.4253
 9598TIP3    H250286   2.968   6.239  10.254 -0.4300 -0.0471  0.6434
 9599TIP3   OH250287   0.058   0.343  16.913  0.1686  0.8825 -0.3015
 9599TIP3    H150288   0.100   0.314  16.832  0.3800  0.8678 -0.1851
 9599TIP3    H250289  -0.030   0.305  16.908  0.7602 -0.6122  0.3029
 9600TIP3   OH250290   6.010   1.795  15.280  0.1345  0.4032 -0.0693
 9600TIP3    H150291   6.025   1.806  15.374  0.6517  0.2076 -0.1197
 9600TIP3    H250292   6.076   1.851  15.239  0.5690 -0.2618 -0.3097
 9601TIP3   OH250293   0.845   5.926   3.697  0.2745 -0.2767 -0.3801
 9601TIP3    H150294   0.872   5.942   3.787 -0.9182 -1.9441  0.3342
 9601TIP3    H250295   0.852   5.831   3.687  0.8116 -0.0868 -2.2129
 9602TIP3   OH250296   1.887   5.530  15.567  0.1349 -0.2746 -0.3023
 9602TIP3    H150297   1.934   5.599  15.613 -2.2505  0.9715  0.4025
 9602TIP3    H250298   1.866   5.465  15.634 -0.9015  0.1807 -0.1664
 9603TIP3   OH250299   4.859   4.235  13.089 -0.1334  0.2238 -0.3325
 9603TIP3    H150300   4.854   4.281  13.172 -0.3398 -0.4862  0.0538
 9603TIP3    H250301   4.799   4.161  13.098  1.2522 -0.9467 -0.4133
 9604TIP3   OH250302   4.826   0.249   1.595  0.2678  0.4162  0.2822
 9604TIP3    H150303   4.877   0.169   1.586 -3.9192 -2.8152  1.7915
 9604TIP3    H250304   4.854   0.287   1.678  0.4111 -1.0950  0.9446
 9605TIP3   OH250305   0.391   4.342  13.292  0.4097 -0.1524 -0.3322
 9605TIP3    H150306   0.366   4.370  13.380 -4.2209  0.8040 -1.6644
 9605TIP3    H250307   0.428   4.420  13.251 -4.0742  1.8466 -1.1946
 9606TIP3   OH250308   2.669   5.785  12.364  0.3377 -0.1725 -0.4482
 9606TIP3    H150309   2.755   5.825  12.351 -0.1706  0.8111 -0.8392
 9606TIP3    H250310   2.617   5.813  12.288 -0.7373  0.3728  0.4617
 9607TIP3   OH250311   6.602   4.785   3.532 -0.3729 -0.0113 -0.0838
 9607TIP3    H150312   6.540   4.742   3.473  0.4426 -0.3594 -0.7041
 9607TIP3    H250313   6.549   4.808   3.608 -0.8511 -2.1386  0.2981
 9608TIP3   OH250314   5.070   2.035   3.006  0.5406  0.0713  0.1729
 9608TIP3    H150315   5.102   2.125   3.001 -1.7018  0.9518  0.4343
 9608TIP3    H250316   4.986   2.042   3.050 -0.3287 -1.9909 -0.9975
 9609TIP3   OH250317   4.520   3.171  12.570  0.0517 -0.2678 -0.0427
 9609TIP3    H150318   4.439   3.206  12.535  1.9505  1.2123 -3.4698
 9609TIP3    H250319   4.533   3.218  12.652 -1.8279  0.5392 -0.1616
 9610TIP3   OH250320   2.172   1.009   5.780 -0.4386  0.0547  0.0469
 9610TIP3    H150321   2.239   1.076   5.766 -0.3221 -0.0057  0.3292
 9610TIP3    H250322   2.127   1.037   5.859  0.4376 -0.8860  0.9009
 9611TIP3   OH250323   3.993   4.411   0.062  0.0910  0.3177 -0.4461
 9611TIP3    H150324   3.977   4.317   0.070  2.3852 -0.0842  0.0465
 9611TIP3    H250325   3.981   4.444   0.151 -1.0030  0.5757 -0.6728
 9612TIP3   OH250326   4.562   3.860   1.171  0.4263  0.3474 -0.0343
 9612TIP3    H150327   4.646   3.907   1.177 -0.3324  1.6823  0.8093
 9612TIP3    H250328   4.585   3.774   1.137  2.0752  0.8592 -0.3179
 9613TIP3   OH250329   3.515   5.970  17.021  0.1504  0.1393 -0.7252
 9613TIP3    H150330   3.442   6.023  17.054  1.2654  0.7681  0.8586
 9613TIP3    H250331   3.479   5.924  16.945 -1.6405  1.0666 -0.4916
 9614TIP3   OH250332   2.190   5.420   5.702 -0.0312 -0.2746 -0.6481
 9614TIP3    H150333   2.186   5.492   5.638  1.6413 -0.5755 -1.1383
 9614TIP3    H250334   2.237   5.351   5.656 -0.3786 -1.1629  0.3165
 9615TIP3   OH250335   2.467   5.495  14.473 -0.1540 -0.2377  0.3107
 9615TIP3    H150336   2.489   5.457  14.388 -1.2864 -0.8377  0.2545
 9615TIP3    H250337   2.549   5.496  14.521  0.7990  1.3538 -1.2348
 9616TIP3   OH250338   4.387   5.799  15.282 -0.5046  0.6146  0.0280
 9616TIP3    H150339   4.349   5.867  15.227 -1.9197 -0.2454 -0.1037
 9616TIP3    H250340   4.334   5.799  15.362 -2.3026 -1.9874 -0.9912
 9617TIP3   OH250341   3.037   3.492  11.934 -0.1940 -0.1803  0.3149
 9617TIP3    H150342   2.999   3.429  11.996 -1.1184 -0.8394 -0.8670
 9617TIP3    H250343   3.071   3.562  11.989 -0.5243 -0.9771  1.5935
 9618TIP3   OH250344   6.543   0.975   1.719 -0.4057 -0.5607  0.1401
 9618TIP3    H150345   6.594   0.998   1.641  0.2598  0.2591  0.7936
 9618TIP3    H250346   6.609   0.970   1.789 -1.0969 -0.5080  0.8010
 9619TIP3   OH250347   6.063   6.409   0.780 -0.4135 -0.2801 -0.2391
 9619TIP3    H150348   6.152   6.396   0.811 -0.5808 -2.0818 -0.3692
 9619TIP3    H250349   6.016   6.330   0.808 -2.0991  0.8342  0.2562
 9620TIP3   OH250350   1.923   3.275  13.340  0.2824  0.8772  0.2274
 9620TIP3    H150351   1.966   3.337  13.281  0.0066  0.9530  0.1024
 9620TIP3    H250352   1.853   3.236  13.287 -1.3721  2.4910  1.0834
 9621TIP3   OH250353   2.377   3.835   0.231 -0.1780 -0.7831  0.0582
 9621TIP3    H150354   2.438   3.876   0.293 -0.0846  1.0149 -1.1647
 9621TIP3    H250355   2.407   3.744   0.225  0.5161 -0.7121  1.7525
 9622TIP3   OH250356   2.923   1.456   6.722  0.2041 -0.2422  0.3086
 9622TIP3    H150357   2.898   1.383   6.665  2.3609  0.3946 -1.6226
 9622TIP3    H250358   3.003   1.427   6.765  1.6101  1.2290 -1.1796
 9623TIP3   OH250359   0.869   3.816  10.308 -0.3401  0.3747 -0.4858
 9623TIP3    H150360   0.792   3.811  10.365 -1.0526 -0.1977 -1.4671
 9623TIP3    H250361   0.888   3.909  10.302 -0.3767  0.4572  0.5132
 9624TIP3   OH250362   0.851   6.618   5.428 -0.2967  0.3653 -0.0800
 9624TIP3    H150363   0.885   6.706   5.446 -1.2816  1.0132 -1.2543
 9624TIP3    H250364   0.926   6.569   5.396  0.0756  1.0382 -0.2565
 9625TIP3   OH250365   4.908   3.988   4.976 -0.2257 -0.4124  0.0647
 9625TIP3    H150366   4.951   3.906   4.950  0.6949  0.3632 -0.9463
 9625TIP3    H250367   4.925   3.994   5.070 -0.2318 -1.3355  0.1389
 9626TIP3   OH250368   2.879   5.027  15.884 -0.1068 -0.5122 -0.2786
 9626TIP3    H150369   2.927   5.110  15.879 -0.8680 -0.0042  0.6409
 9626TIP3    H250370   2.828   5.025  15.803  0.0866 -0.1901 -0.4135
 9627TIP3   OH250371   4.505   1.377  14.906 -0.4039  1.0044 -0.8706
 9627TIP3    H150372   4.524   1.302  14.849 -1.2159  0.4445 -0.4238
 9627TIP3    H250373   4.582   1.433  14.898  1.0422 -0.7276  0.1673
 9628TIP3   OH250374   4.496   2.150  13.577  0.2585 -0.0957  0.7599
 9628TIP3    H150375   4.553   2.107  13.513  0.0368  0.2429  0.3365
 9628TIP3    H250376   4.433   2.082  13.602  1.0670 -0.5935  1.5189
 9629TIP3   OH250377   4.996   5.406  14.063 -0.4191 -0.0219 -0.3587
 9629TIP3    H150378   5.006   5.323  14.017 -1.9862  0.4395 -1.6278
 9629TIP3    H250379   5.059   5.465  14.021 -0.1155 -0.2519 -0.2294
 9630TIP3   OH250380   2.819   5.055   5.984  0.1555 -0.2894 -0.3764
 9630TIP3    H150381   2.803   5.084   5.895 -0.8687  0.0902 -0.0868
 9630TIP3    H250382   2.743   5.086   6.033  1.7312  1.4990  1.0992
 9631TIP3   OH250383   4.308   6.119   3.911 -0.0703  0.2851 -0.9910
 9631TIP3    H150384   4.299   6.190   3.848  1.2127  1.9912  0.6592
 9631TIP3    H250385   4.402   6.113   3.928 -0.2666 -0.9997 -0.1858
 9632TIP3   OH250386   6.070   2.046   1.964 -0.9321 -0.2718 -0.8058
 9632TIP3    H150387   6.103   2.063   1.876 -0.2695  0.8971 -0.3523
 9632TIP3    H250388   5.975   2.036   1.952 -1.1434  1.9295 -1.4048
 9633TIP3   OH250389   1.481   0.879  16.218  0.2654  0.6765  0.3105
 9633TIP3    H150390   1.481   0.865  16.313  1.7669 -1.0118  0.1082
 9633TIP3    H250391   1.551   0.942  16.203  0.1118  0.8446  0.2846
 9634TIP3   OH250392   4.761   1.179  16.075 -0.1413 -0.5044 -0.7781
 9634TIP3    H150393   4.757   1.122  15.999  1.1189  0.1650 -1.3807
 9634TIP3    H250394   4.849   1.217  16.072  0.0935 -0.7556  1.2259
 9635TIP3   OH250395   5.221   0.616  16.435  0.5355  0.0083  0.0214
 9635TIP3    H150396   5.144   0.582  16.390  2.4632 -2.1305 -1.9401
 9635TIP3    H250397   5.224   0.708  16.412 -0.5676 -0.2422 -1.2169
 9636TIP3   OH250398   6.301   4.163   2.203 -0.2322 -0.1600 -0.2138
 9636TIP3    H150399   6.334   4.116   2.126 -0.8891 -2.7913  0.9943
 9636TIP3    H250400   6.380   4.182   2.254  0.1505  1.0990 -1.2265
 9637TIP3   OH250401   4.548   4.240  16.092  0.0760 -0.2233 -1.0959
 9637TIP3    H150402   4.593   4.315  16.131  0.3352 -0.7559 -0.3505
 9637TIP3    H250403   4.455   4.260  16.101  0.0962 -0.7305  0.6602
 9638TIP3   OH250404   6.767   1.275   0.066  0.6235  0.1749 -0.2920
 9638TIP3    H150405   6.858   1.271   0.093  0.2682  1.5873  1.2064
 9638TIP3    H250406   6.731   1.352   0.110 -1.6046 -1.0274  0.1492
 9639TIP3   OH250407   5.527   1.663   1.536  0.0303 -0.2037 -0.4997
 9639TIP3    H150408   5.456   1.674   1.599  0.2128  0.4718 -0.4022
 9639TIP3    H250409   5.571   1.748   1.535  0.0895 -0.2378 -1.4631
 9640TIP3   OH250410   4.683   5.887  12.536 -0.0421  0.2441  0.5700
 9640TIP3    H150411   4.705   5.821  12.602 -0.3638 -1.7317 -1.1842
 9640TIP3    H250412   4.748   5.874  12.466 -1.4932  0.2088 -0.8232
 9641TIP3   OH250413   0.794   5.051  14.575  0.2460 -0.1076  0.5891
 9641TIP3    H150414   0.817   4.958  14.570  0.3280 -0.0312 -2.0461
 9641TIP3    H250415   0.828   5.080  14.659  0.3619 -2.4122  1.4168
 9642TIP3   OH250416   0.402   2.308  15.652  0.4416  1.4756  0.0709
 9642TIP3    H150417   0.456   2.386  15.643  0.9196  1.1102 -0.2989
 9642TIP3    H250418   0.343   2.328  15.725  0.5923  2.1561  0.0137
 9643TIP3   OH250419   5.160   5.773   5.001 -0.0936 -0.4333 -0.1974
 9643TIP3    H150420   5.186   5.740   5.087 -1.7007 -1.3014 -0.0040
 9643TIP3    H250421   5.103   5.704   4.965 -3.0186  1.7353 -0.0765
 9644TIP3   OH250422   4.849   6.030  10.869 -0.2505  0.1692 -0.2308
 9644TIP3    H150423   4.843   6.011  10.775  2.1637  0.0139 -0.4018
 9644TIP3    H250424   4.777   6.091  10.885 -0.7476  0.1619 -2.1690
 9645TIP3   OH250425   2.710   5.822   4.545  0.3004  0.0579  0.2311
 9645TIP3    H150426   2.709   5.911   4.510  2.7913 -0.7187 -2.1458
 9645TIP3    H250427   2.677   5.768   4.474 -2.3589 -0.9573  2.0493
 9646TIP3   OH250428   3.800   1.060   3.849 -0.1247 -0.1332  0.4984
 9646TIP3    H150429   3.794   0.989   3.785  0.2768 -0.5115  0.8709
 9646TIP3    H250430   3.721   1.051   3.903 -0.8510  0.6567 -0.4063
 9647TIP3   OH250431   6.283   0.418  16.478  0.0317 -0.2735 -0.4379
 9647TIP3    H150432   6.206   0.445  16.528  0.3806  0.2480 -0.1754
 9647TIP3    H250433   6.346   0.391  16.545  1.3190  2.4857 -0.4024
 9648TIP3   OH250434   1.209   5.965  11.876 -0.9974  0.4735 -0.4915
 9648TIP3    H150435   1.224   5.908  11.951 -1.5589  1.1857  0.1791
 9648TIP3    H250436   1.161   6.040  11.912 -0.2374  1.4008 -1.3362
 9649TIP3   OH250437   4.810   3.774  13.612  0.1133 -0.2589  0.5243
 9649TIP3    H150438   4.810   3.861  13.572 -1.2815 -0.6710 -0.4271
 9649TIP3    H250439   4.718   3.757  13.633  0.1768 -1.9870 -0.4284
 9650TIP3   OH250440   4.997   4.112  15.772  0.1256  0.1132 -0.0889
 9650TIP3    H150441   4.963   4.182  15.716 -0.0550  0.3564  0.3273
 9650TIP3    H250442   4.949   4.034  15.744 -0.0755  0.2652 -0.1698
 9651TIP3   OH250443   2.509   5.492   1.143  0.1399  0.0977  0.6335
 9651TIP3    H150444   2.476   5.487   1.053  0.2922  0.9146  0.5238
 9651TIP3    H250445   2.582   5.430   1.145 -0.5666 -0.7501  0.5103
 9652TIP3   OH250446   4.410   3.689  11.560 -0.0311 -0.5237 -0.0334
 9652TIP3    H150447   4.480   3.750  11.538  0.0253 -0.3022  0.7293
 9652TIP3    H250448   4.337   3.715  11.504 -0.1068  0.4524  0.4871
 9653TIP3   OH250449   4.606   2.923  12.649  0.0875 -0.1768 -0.1344
 9653TIP3    H150450   4.679   2.965  12.695  0.4481  1.5656 -2.1343
 9653TIP3    H250451   4.568   2.993  12.595 -2.1438 -1.4083 -0.2632
 9654TIP3   OH250452   1.274   5.263  14.758  0.0669 -0.5049  0.2363
 9654TIP3    H150453   1.216   5.218  14.819 -1.7082  0.9220 -0.3251
 9654TIP3    H250454   1.258   5.221  14.673  1.9223 -1.9280  0.5235
 9655TIP3   OH250455   6.093   0.033  11.759  0.0222 -0.7562  0.4342
 9655TIP3    H150456   6.029   0.054  11.827 -0.6421 -0.3875 -0.2868
 9655TIP3    H250457   6.055  -0.043  11.715  0.9185 -1.5948  1.0757
 9656TIP3   OH250458   2.365   4.252   2.222 -0.0954  0.5421  0.5064
 9656TIP3    H150459   2.276   4.266   2.255 -0.4938 -1.4822  0.4122
 9656TIP3    H250460   2.354   4.244   2.127 -0.0495 -1.0215  0.6013
 9657TIP3   OH250461   3.219   0.336  13.210  0.9989 -0.3765  0.3974
 9657TIP3    H150462   3.175   0.420  13.226  2.0700  0.2744  0.0182
 9657TIP3    H250463   3.239   0.337  13.116 -0.8712 -2.0193 -0.1168
 9658TIP3   OH250464   0.206   0.360  11.938 -0.3805  0.1990  0.0732
 9658TIP3    H150465   0.260   0.333  11.864 -2.0056 -1.5195 -0.5510
 9658TIP3    H250466   0.133   0.407  11.898  0.7777  2.9586  0.9400
 9659TIP3   OH250467   3.202   1.320   4.835 -0.2409 -0.0221  0.3600
 9659TIP3    H150468   3.218   1.396   4.891 -1.3437  0.5583 -0.0667
 9659TIP3    H250469   3.234   1.347   4.748  0.4977 -0.5195  0.4713
 9660TIP3   OH250470   3.199   0.573   0.708  0.2063 -0.6648  0.1215
 9660TIP3    H150471   3.271   0.614   0.660 -0.4161 -0.0057 -0.2701
 9660TIP3    H250472   3.143   0.536   0.639 -0.5247  0.0050  0.3503
 9661TIP3   OH250473   2.072   5.528   2.815 -0.2588  0.1331 -0.3943
 9661TIP3    H150474   2.057   5.616   2.851 -0.2741  0.0150 -0.1107
 9661TIP3    H250475   2.093   5.474   2.891 -3.5764 -0.8798 -0.0445
 9662TIP3   OH250476   0.771   3.664  16.275 -0.0887 -0.2488 -0.0689
 9662TIP3    H150477   0.777   3.640  16.368 -2.0825  0.6749  0.3574
 9662TIP3    H250478   0.847   3.720  16.260 -1.5641  2.5975  2.0546
 9663TIP3   OH250479   6.594   2.641   1.770 -0.3697 -0.4461  0.8903
 9663TIP3    H150480   6.607   2.547   1.763 -1.4616 -0.5327 -0.3058
 9663TIP3    H250481   6.535   2.663   1.698  2.8914  1.7255 -1.4432
 9664TIP3   OH250482   2.624   6.264  10.927 -0.3489  0.1631  0.4032
 9664TIP3    H150483   2.531   6.258  10.948 -1.0020  2.6525 -1.3838
 9664TIP3    H250484   2.649   6.175  10.902 -2.8606 -0.1156 -1.4159
 9665TIP3   OH250485   1.156   0.061   3.888  0.6527 -0.7419 -0.1988
 9665TIP3    H150486   1.103   0.141   3.889 -1.6034 -2.1373 -0.9909
 9665TIP3    H250487   1.121   0.008   3.959  1.1322 -1.6455 -0.6232
 9666TIP3   OH250488   1.599   0.500   5.364 -0.3415 -0.1564 -0.0238
 9666TIP3    H150489   1.512   0.464   5.376 -0.3410  0.4674  2.2555
 9666TIP3    H250490   1.655   0.424   5.351 -1.1587 -0.5640 -1.4694
 9667TIP3   OH250491   2.795   3.934  12.234  0.4393  0.0928  0.8508
 9667TIP3    H150492   2.703   3.960  12.233  0.8742  1.7512 -1.1504
 9667TIP3    H250493   2.832   3.980  12.310 -0.1454  0.2593  1.0403
 9668TIP3   OH250494   0.004   4.105   4.746  0.5013 -0.3368  0.4111
 9668TIP3    H150495  -0.087   4.134   4.756 -0.5572 -3.1449 -0.0601
 9668TIP3    H250496   0.028   4.071   4.832  0.1643 -1.8876 -0.0754
 9669TIP3   OH250497   5.356   1.221  16.871 -0.2479  0.0217  0.1472
 9669TIP3    H150498   5.290   1.278  16.831 -1.5751 -1.9230 -0.6168
 9669TIP3    H250499   5.383   1.164  16.799  0.6707 -0.6239  0.9930
 9670TIP3   OH250500   1.834   4.135  14.421 -0.1593 -0.0009 -0.4813
 9670TIP3    H150501   1.928   4.117  14.421 -0.1077  0.1309 -2.0538
 9670TIP3    H250502   1.793   4.050  14.408 -0.4454 -0.4966  2.7812
 9671TIP3   OH250503   3.177   5.392   6.457  0.5614 -0.4210  0.4348
 9671TIP3    H150504   3.207   5.455   6.522  0.8442 -0.0972 -0.0044
 9671TIP3    H250505   3.255   5.340   6.437  0.6863  0.0259 -0.2591
 9672TIP3   OH250506   6.742   0.314  16.479  0.2723  0.3873 -0.0831
 9672TIP3    H150507   6.790   0.238  16.447  0.3076  0.3498  0.0615
 9672TIP3    H250508   6.799   0.353  16.545  0.4561  0.8014 -0.4793
 9673TIP3   OH250509   5.790   3.552  13.479  0.1631 -0.3136 -0.2761
 9673TIP3    H150510   5.814   3.525  13.391 -0.2300 -1.4805 -0.0429
 9673TIP3    H250511   5.863   3.524  13.534  0.3569  0.3096 -0.2033
 9674TIP3   OH250512   5.806   4.204  16.756 -0.3000  0.4307 -0.2032
 9674TIP3    H150513   5.743   4.276  16.747 -1.0886  0.0576  1.8331
 9674TIP3    H250514   5.758   4.127  16.727 -0.7487  0.1813  1.1370
 9675TIP3   OH250515   5.514   3.621  10.822  0.2341  0.0825  0.1671
 9675TIP3    H150516   5.586   3.655  10.770 -0.1345  0.6753  0.0420
 9675TIP3    H250517   5.486   3.695  10.876  0.9171 -0.6324  1.5656
 9676TIP3   OH250518   0.622   6.459   4.941 -0.0664  0.6066  0.2186
 9676TIP3    H150519   0.661   6.373   4.922 -0.9034  0.3503 -0.3668
 9676TIP3    H250520   0.639   6.472   5.035  0.0661 -0.1967  0.3142
 9677TIP3   OH250521   1.713   3.499  11.710 -0.0569 -0.1435  0.2112
 9677TIP3    H150522   1.743   3.409  11.722  0.9144  0.1906  0.3433
 9677TIP3    H250523   1.737   3.520  11.619 -2.4075 -0.7940 -0.6337
 9678TIP3   OH250524   2.465   3.574   3.122  0.0095  0.1091  0.0336
 9678TIP3    H150525   2.386   3.553   3.073  0.8486  0.4846 -1.5212
 9678TIP3    H250526   2.497   3.490   3.154 -0.4453 -0.1533 -0.1948
 9679TIP3   OH250527   1.011   5.517   3.674 -0.4789 -0.1295  0.4827
 9679TIP3    H150528   1.033   5.520   3.767  0.4654 -0.9539  0.2987
 9679TIP3    H250529   0.999   5.425   3.654 -1.4490  0.0960 -0.0577
 9680TIP3   OH250530   0.654   2.269   2.288  0.4195  0.6452  0.1722
 9680TIP3    H150531   0.630   2.345   2.342  1.0703  2.3304 -1.7676
 9680TIP3    H250532   0.653   2.303   2.199  0.4019 -1.7700 -0.8062
 9681TIP3   OH250533   0.704   1.859  15.464  0.5727  0.3348  0.3670
 9681TIP3    H150534   0.679   1.805  15.389 -0.9509  1.4272  0.0503
 9681TIP3    H250535   0.643   1.933  15.463  2.3964  1.9428  0.9627
 9682TIP3   OH250536   0.411   0.617  15.511 -0.0143 -0.6523  0.1144
 9682TIP3    H150537   0.430   0.708  15.533 -0.3942 -0.6968  0.6422
 9682TIP3    H250538   0.411   0.572  15.595 -5.7282 -0.0811  0.7891
 9683TIP3   OH250539   4.491   3.002   2.159 -0.2680 -0.7982  0.3462
 9683TIP3    H150540   4.573   2.991   2.207 -0.5461  0.0169  1.0309
 9683TIP3    H250541   4.457   3.087   2.187 -1.1278 -0.9195 -0.2641
 9684TIP3   OH250542   6.305   6.341   3.332  0.0118  0.0775  0.7626
 9684TIP3    H150543   6.373   6.311   3.272  0.5843  0.0910  1.3843
 9684TIP3    H250544   6.233   6.370   3.276 -0.0118 -1.1695  0.1136
 9685TIP3   OH250545   4.200   0.396  16.587  0.5360  0.0148 -0.3751
 9685TIP3    H150546   4.284   0.395  16.634  0.4502 -0.8439 -0.2247
 9685TIP3    H250547   4.154   0.472  16.622  1.2031  0.4268 -0.3741
 9686TIP3   OH250548   5.212   5.489  11.129  0.0852 -0.7336  0.4147
 9686TIP3    H150549   5.157   5.415  11.154 -0.7423 -0.0161  0.7601
 9686TIP3    H250550   5.229   5.475  11.036 -0.0678 -1.3523  0.4734
 9687TIP3   OH250551   5.635   5.568  17.028 -0.4358  0.2595 -0.3488
 9687TIP3    H150552   5.721   5.564  16.986 -0.0228  0.5510  0.4369
 9687TIP3    H250553   5.625   5.483  17.070  0.8571  1.2118  2.1261
 9688TIP3   OH250554   6.125   6.817   2.477  0.1816  0.2235 -0.3023
 9688TIP3    H150555   6.179   6.893   2.457  0.5877  0.0378  0.0701
 9688TIP3    H250556   6.090   6.789   2.392 -2.1558  2.4273 -0.1770
 9689TIP3   OH250557   3.493   1.949  16.043 -0.2817 -0.0741 -0.3581
 9689TIP3    H150558   3.560   1.949  16.111  0.6088 -0.3147 -1.2040
 9689TIP3    H250559   3.441   2.027  16.060  1.0285  0.8490 -0.4440
 9690TIP3   OH250560   4.491   1.589  16.104 -0.0163  0.5714 -0.1059
 9690TIP3    H150561   4.427   1.659  16.117  1.1761  1.8920 -1.0113
 9690TIP3    H250562   4.576   1.633  16.106  0.9405 -1.1688  1.3903
 9691TIP3   OH250563   6.824   6.645   1.391 -0.3487  0.3697 -0.1113
 9691TIP3    H150564   6.732   6.659   1.412 -0.4245  0.8383 -0.7302
 9691TIP3    H250565   6.872   6.679   1.466 -0.6250  1.6447 -0.4870
 9692TIP3   OH250566   2.014   2.324  11.627  0.3265  0.1392 -0.2417
 9692TIP3    H150567   2.107   2.341  11.608 -0.1248  1.0222 -1.8537
 9692TIP3    H250568   1.985   2.268  11.556 -0.0808 -1.2887  0.9990
 9693TIP3   OH250569   3.993   4.456  13.370  0.1100  0.2643 -0.7136
 9693TIP3    H150570   3.906   4.431  13.400  0.0685  0.3583 -0.7561
 9693TIP3    H250571   4.006   4.407  13.289  0.3295 -0.1987 -0.4083
 9694TIP3   OH250572   5.722   4.543  14.526  1.0356 -0.3110  0.2644
 9694TIP3    H150573   5.686   4.456  14.510  1.8058 -0.6730  0.4608
 9694TIP3    H250574   5.787   4.556  14.456  0.5207  0.3449 -0.1042
 9695TIP3   OH250575   0.098   0.044  16.841 -0.5350  0.7237  0.1685
 9695TIP3    H150576   0.003   0.032  16.836 -0.4463  0.4355 -1.6695
 9695TIP3    H250577   0.134  -0.043  16.828  0.0164  0.4260  3.1234
 9696TIP3   OH250578   1.521   1.674  14.549 -0.3938  0.3135 -0.0129
 9696TIP3    H150579   1.596   1.619  14.526 -1.7061 -1.6048  0.0809
 9696TIP3    H250580   1.543   1.710  14.634  0.6811  0.2883 -0.2619
 9697TIP3   OH250581   4.800   0.359  12.362 -0.0402 -0.1695 -0.1940
 9697TIP3    H150582   4.738   0.374  12.434  0.5173  1.2179  0.0349
 9697TIP3    H250583   4.885   0.350  12.405  0.4769  1.8382 -0.7002
 9698TIP3   OH250584   4.389   6.679  12.325 -0.1530  0.8987 -0.4115
 9698TIP3    H150585   4.299   6.706  12.306 -1.6819 -1.6172  2.4377
 9698TIP3    H250586   4.389   6.584  12.317  1.8472  0.6880  1.0612
 9699TIP3   OH250587   3.092   2.776   1.946 -0.9501 -0.0338  0.0020
 9699TIP3    H150588   3.017   2.831   1.968 -2.1191 -0.9539 -1.4444
 9699TIP3    H250589   3.125   2.812   1.864  0.0919  0.2355  0.5222
 9700TIP3   OH250590   3.789   3.867   1.754 -0.3449 -0.4139  0.0250
 9700TIP3    H150591   3.716   3.925   1.736  0.2564  0.3576 -0.0105
 9700TIP3    H250592   3.768   3.785   1.709 -0.2301  0.4845 -1.7488
 9701TIP3   OH250593   5.000   0.144   5.029 -0.6363  0.2757 -0.2525
 9701TIP3    H150594   4.991   0.050   5.040 -1.3582  0.3921  0.2262
 9701TIP3    H250595   5.000   0.179   5.118 -2.4412  0.8871 -0.4424
 9702TIP3   OH250596   3.733   5.227   5.026  0.2775  0.1997  0.0241
 9702TIP3    H150597   3.780   5.309   5.040  0.3768  0.2564 -0.6088
 9702TIP3    H250598   3.732   5.185   5.112  1.3993  0.2453  0.0729
 9703TIP3   OH250599   3.050   3.839  13.036 -1.1408 -0.0077 -0.3210
 9703TIP3    H150600   3.142   3.819  13.052 -0.5430  2.0559 -0.8519
 9703TIP3    H250601   3.025   3.898  13.108 -1.4918  0.8790 -1.1432
 9704TIP3   OH250602   3.188   4.197  14.737  0.2597 -0.5775  0.1795
 9704TIP3    H150603   3.141   4.147  14.670  1.7715 -1.4964 -0.2339
 9704TIP3    H250604   3.184   4.287  14.706 -2.1254 -0.4427  0.7057
 9705TIP3   OH250605   6.855   3.155   3.799 -0.1466  0.1774 -0.3873
 9705TIP3    H150606   6.813   3.230   3.841  1.4503 -0.1290  1.9536
 9705TIP3    H250607   6.932   3.192   3.755  0.2910  0.0378  0.2375
 9706TIP3   OH250608   4.945   3.090   2.906 -0.7126  0.1771  0.1315
 9706TIP3    H150609   5.030   3.080   2.950 -0.4447  0.1167 -0.3907
 9706TIP3    H250610   4.950   3.175   2.863  0.1019 -0.8902 -2.0455
 9707TIP3   OH250611   3.409   2.523   4.100  0.4264  0.2531 -0.5175
 9707TIP3    H150612   3.451   2.591   4.048  1.3502  0.9547  1.0622
 9707TIP3    H250613   3.481   2.465   4.126  0.7388  1.9524  2.9618
 9708TIP3   OH250614   3.955   2.171   4.922  0.6776  0.0143  0.1458
 9708TIP3    H150615   3.992   2.259   4.915  0.0870  0.2312 -0.4013
 9708TIP3    H250616   3.885   2.169   4.856  1.6780 -1.3643 -0.9382
 9709TIP3   OH250617   4.441   2.563  11.827 -0.7528 -0.0890 -0.8867
 9709TIP3    H150618   4.460   2.530  11.915  2.4323  0.2325 -1.3313
 9709TIP3    H250619   4.354   2.600  11.833 -0.8483 -0.5806  1.9845
 9710TIP3   OH250620   1.548   0.352  15.123 -0.4605  1.1638  0.2868
 9710TIP3    H150621   1.637   0.322  15.141 -0.1694  2.1839  0.6228
 9710TIP3    H250622   1.559   0.441  15.090 -1.4085  1.7293  1.4262
 9711TIP3   OH250623   0.606   4.577   1.858 -0.0382  0.1906  0.0012
 9711TIP3    H150624   0.636   4.636   1.789  2.1343  0.4680  1.0789
 9711TIP3    H250625   0.682   4.521   1.875 -1.3405 -1.4892  0.5078
 9712TIP3   OH250626   6.706   6.046  16.397  0.0704  0.0873 -0.1820
 9712TIP3    H150627   6.637   6.110  16.381  0.9497  1.0813 -0.1179
 9712TIP3    H250628   6.786   6.099  16.406  0.9362 -1.0643 -0.8521
 9713TIP3   OH250629   0.017   4.049  11.281  0.1430 -0.4249  0.2179
 9713TIP3    H150630   0.052   4.035  11.193 -1.8223 -1.4974 -0.4712
 9713TIP3    H250631   0.008   3.960  11.317 -1.8087 -0.2237  0.3178
 9714TIP3   OH250632   3.907   4.980  11.839 -0.1358 -0.1064  0.3657
 9714TIP3    H150633   3.850   5.008  11.768  0.3763  0.5249  0.1966
 9714TIP3    H250634   3.994   4.975  11.800  0.0181 -0.5297  0.7541
 9715TIP3   OH250635   5.994   1.969  15.678 -0.2806  0.5228  0.2004
 9715TIP3    H150636   5.908   1.967  15.720 -0.2959  5.0968  0.9307
 9715TIP3    H250637   5.983   2.029  15.604  1.8807 -0.2956 -0.8769
 9716TIP3   OH250638   4.595   5.427   6.838 -0.0519  0.2589  0.4604
 9716TIP3    H150639   4.550   5.353   6.797 -1.5801  1.6235 -0.4524
 9716TIP3    H250640   4.682   5.394   6.858 -0.6873 -1.7746  0.0745
 9717TIP3   OH250641   6.257   2.755  14.132  0.0835  0.0711 -0.1385
 9717TIP3    H150642   6.245   2.684  14.068 -1.1994  1.0421 -1.0363
 9717TIP3    H250643   6.184   2.744  14.193  0.0349  0.4327 -0.1287
 9718TIP3   OH250644   5.747   6.008   4.497 -0.1620 -0.3664  0.2053
 9718TIP3    H150645   5.768   6.063   4.572 -0.1389  1.8864 -1.3583
 9718TIP3    H250646   5.818   6.024   4.435  0.6918 -3.4164  0.2292
 9719TIP3   OH250647   3.374   3.417   5.124 -0.1975 -0.7904  0.4874
 9719TIP3    H150648   3.295   3.446   5.170 -0.8433  0.2188 -1.1869
 9719TIP3    H250649   3.342   3.369   5.048  0.8553 -2.6531  1.1594
 9720TIP3   OH250650   4.107   1.997   0.142 -0.1919  0.2639  0.1987
 9720TIP3    H150651   4.090   2.077   0.191 -3.1646 -0.3615  0.4218
 9720TIP3    H250652   4.058   1.929   0.189  1.8603 -1.6344 -0.2352
 9721TIP3   OH250653   4.164   4.027   2.582 -0.5203  1.2281  0.3582
 9721TIP3    H150654   4.229   4.015   2.652  0.4218 -0.7741 -0.7659
 9721TIP3    H250655   4.084   3.988   2.617  0.1955 -0.6611  0.0682
 9722TIP3   OH250656   5.304   2.202  15.714  0.0416 -0.3160 -0.2188
 9722TIP3    H150657   5.289   2.171  15.624  0.7828  1.3270 -0.9605
 9722TIP3    H250658   5.393   2.237  15.712  0.4354 -1.1113  1.4475
 9723TIP3   OH250659   1.470   0.651   1.623  0.2671  0.0043  0.3050
 9723TIP3    H150660   1.386   0.653   1.578  0.4365 -2.4096 -0.2504
 9723TIP3    H250661   1.535   0.660   1.554  0.5121 -3.0325  0.0295
 9724TIP3   OH250662   1.924   0.082   0.093  0.3448  0.2474 -0.0329
 9724TIP3    H150663   2.019   0.082   0.109  0.1805 -0.3000  1.0380
 9724TIP3    H250664   1.889   0.150   0.151  0.1882  1.2231 -1.2413
 9725TIP3   OH250665   3.634   1.389  11.992 -0.1778 -0.6538 -0.1880
 9725TIP3    H150666   3.602   1.310  12.035 -0.5746 -0.5281 -0.2509
 9725TIP3    H250667   3.577   1.401  11.917 -1.8172  1.1368  1.2436
 9726TIP3   OH250668   0.603   2.141   4.807 -0.0004  0.4182  0.0099
 9726TIP3    H150669   0.547   2.219   4.813  1.3507  1.3491  1.6159
 9726TIP3    H250670   0.573   2.095   4.729 -0.9955  2.4460 -0.8715
 9727TIP3   OH250671   4.746   5.736  10.384 -0.0348  0.1838 -0.4680
 9727TIP3    H150672   4.680   5.760  10.448  0.3323 -0.6039  0.2361
 9727TIP3    H250673   4.829   5.738  10.433  0.1305 -1.4638 -0.6049
 9728TIP3   OH250674   3.629   6.441   4.843 -0.1980 -0.0568  0.2201
 9728TIP3    H150675   3.599   6.380   4.910  0.1732 -0.5716 -0.0676
 9728TIP3    H250676   3.720   6.459   4.866  0.4032 -1.3874 -0.9285
 9729TIP3   OH250677   4.508   1.398  12.914 -0.1972 -0.0022 -0.0411
 9729TIP3    H150678   4.490   1.491  12.921 -1.5211 -0.0917 -1.6339
 9729TIP3    H250679   4.603   1.391  12.913  0.0216  1.6920 -3.3636
 9730TIP3   OH250680   0.796   6.163   2.634 -0.2402 -0.0784 -0.5981
 9730TIP3    H150681   0.737   6.093   2.609 -0.7129  0.1660 -0.1975
 9730TIP3    H250682   0.884   6.130   2.614 -0.4229 -0.9664  0.0028
 9731TIP3   OH250683   6.078   4.531  12.124 -0.4644  0.2925  0.0452
 9731TIP3    H150684   6.005   4.536  12.061  0.3769 -1.4209 -1.1420
 9731TIP3    H250685   6.039   4.558  12.207 -2.4635 -0.5859 -0.5363
 9732TIP3   OH250686   4.369   6.723  14.022  0.0601  0.4339  0.1659
 9732TIP3    H150687   4.448   6.778  14.029  0.5766 -0.4556  2.2188
 9732TIP3    H250688   4.311   6.757  14.090 -0.2418 -0.5639  0.4237
 9733TIP3   OH250689   3.522   6.542  13.860  0.4633 -0.0320 -0.1637
 9733TIP3    H150690   3.513   6.517  13.952  0.7568 -0.4345 -0.2388
 9733TIP3    H250691   3.579   6.474  13.823  2.3634  1.4280 -0.0869
 9734TIP3   OH250692   1.726   3.128  13.201  0.1783  0.3586  0.4513
 9734TIP3    H150693   1.783   3.060  13.163  0.4737  0.5551  0.5415
 9734TIP3    H250694   1.711   3.189  13.129 -1.2302 -0.5203 -0.0379
 9735TIP3   OH250695   5.511   3.317  12.595 -0.1808 -0.4962  0.1418
 9735TIP3    H150696   5.570   3.370  12.542  0.4163 -2.0019 -0.7361
 9735TIP3    H250697   5.450   3.279  12.532 -0.3229 -1.2159  0.7029
 9736TIP3   OH250698   5.178   1.776  12.725 -0.4428  0.0738 -0.5801
 9736TIP3    H150699   5.241   1.848  12.734 -0.4419  0.0859 -0.6862
 9736TIP3    H250700   5.093   1.818  12.724 -0.5716 -0.0635  1.3722
 9737TIP3   OH250701   0.726   0.199  15.582 -0.0890 -0.1893  0.4125
 9737TIP3    H150702   0.758   0.195  15.671  0.8894 -2.5201  0.0131
 9737TIP3    H250703   0.786   0.259  15.537  1.3024 -1.4037  0.6131
 9738TIP3   OH250704   4.215   6.496   5.133  0.2457 -0.3821  0.6042
 9738TIP3    H150705   4.275   6.423   5.119  0.4313 -0.4596  1.7088
 9738TIP3    H250706   4.128   6.456   5.136  0.1811 -0.3387 -0.4415
 9739TIP3   OH250707   0.782   4.005  14.875 -0.1618 -0.0058 -0.3251
 9739TIP3    H150708   0.707   4.044  14.921 -1.3984 -1.1638 -1.2770
 9739TIP3    H250709   0.791   3.918  14.913  1.7443  0.6413  0.8676
 9740TIP3   OH250710   0.573   2.686   3.164  0.7128  0.5766 -0.3246
 9740TIP3    H150711   0.563   2.780   3.150  2.5065  0.4169 -3.4811
 9740TIP3    H250712   0.483   2.652   3.163  0.0950  2.1243 -0.0405
 9741TIP3   OH250713   1.655   3.557   3.493 -0.0967  0.3234 -0.0926
 9741TIP3    H150714   1.671   3.502   3.416 -1.0952 -0.9613  0.5743
 9741TIP3    H250715   1.703   3.514   3.563 -0.5751  0.5032  0.3535
 9742TIP3   OH250716   1.582   3.228  12.555  0.1626 -0.3290  0.1880
 9742TIP3    H150717   1.636   3.158  12.592  1.8773  0.1717 -1.1961
 9742TIP3    H250718   1.601   3.304  12.610  0.7628 -0.1962 -0.1941
 9743TIP3   OH250719   1.626   5.761   3.032 -0.4148 -0.3214 -0.5020
 9743TIP3    H150720   1.676   5.725   2.958 -0.3412  1.5162 -1.4184
 9743TIP3    H250721   1.554   5.809   2.991 -0.8065  0.1194  0.6569
 9744TIP3   OH250722   6.736   1.154  11.662 -0.0249  0.5421 -0.5544
 9744TIP3    H150723   6.805   1.157  11.728  0.6192 -1.0495 -1.1300
 9744TIP3    H250724   6.656   1.137  11.712  0.3539  0.0164 -0.1159
 9745TIP3   OH250725   5.067   5.268  12.963  0.0622  0.3345  0.4878
 9745TIP3    H150726   5.162   5.269  12.956 -0.0370  0.2061 -1.9067
 9745TIP3    H250727   5.037   5.250  12.873 -2.2355  2.2538  0.7649
 9746TIP3   OH250728   0.824   6.552  14.445 -0.3246 -0.2894  0.0731
 9746TIP3    H150729   0.764   6.478  14.456 -0.1599 -0.5233 -0.5666
 9746TIP3    H250730   0.909   6.512  14.428 -0.1769  0.0433  0.0204
 9747TIP3   OH250731   1.067   2.287   3.721 -0.0136 -1.0886 -0.1181
 9747TIP3    H150732   1.092   2.311   3.810  3.0942 -1.7989 -0.7035
 9747TIP3    H250733   1.149   2.285   3.672 -1.5638 -1.0810 -2.9511
 9748TIP3   OH250734   0.329   5.711  14.956 -0.4982 -0.6974  0.2883
 9748TIP3    H150735   0.421   5.734  14.965 -1.3214  2.6083  1.8297
 9748TIP3    H250736   0.283   5.769  15.017 -3.7916 -0.6780 -1.9164
 9749TIP3   OH250737   0.794   4.519  15.532  0.3802  0.1952 -0.4617
 9749TIP3    H150738   0.773   4.443  15.479  0.0708 -1.3053  1.6888
 9749TIP3    H250739   0.875   4.496  15.577 -0.3211  0.6214  1.0944
 9750TIP3   OH250740   5.536   4.640   3.832 -0.2617  0.6761  0.2768
 9750TIP3    H150741   5.494   4.625   3.747 -1.6368 -0.2376  1.0774
 9750TIP3    H250742   5.556   4.734   3.833  1.8681  0.3572 -1.9387
 9751TIP3   OH250743   1.315   2.062   5.600  0.1058 -0.6864 -0.5784
 9751TIP3    H150744   1.388   2.054   5.538  0.7727  1.0547 -0.0798
 9751TIP3    H250745   1.313   2.155   5.622  0.3915 -1.3139  2.5908
 9752TIP3   OH250746   1.038   0.547  10.908 -0.1730  0.6332 -0.3436
 9752TIP3    H150747   0.995   0.471  10.869 -0.3412 -1.1226  2.8757
 9752TIP3    H250748   1.126   0.547  10.870 -0.3548 -0.8345 -0.8381
 9753TIP3   OH250749   2.334   5.677   5.290 -0.6465  0.2368  0.1303
 9753TIP3    H150750   2.287   5.609   5.241 -0.3807 -0.0843  0.3108
 9753TIP3    H250751   2.423   5.675   5.254 -1.2362  2.2244 -1.6231
 9754TIP3   OH250752   3.640   0.489   5.158  0.0000  0.4920  0.4836
 9754TIP3    H150753   3.713   0.432   5.181 -0.4380 -0.1405  0.3067
 9754TIP3    H250754   3.671   0.536   5.080 -0.7868 -1.8079 -1.3332
 9755TIP3   OH250755   6.376   4.355   0.976  0.7266  0.3147  0.1027
 9755TIP3    H150756   6.320   4.381   1.049  0.5848  1.6835 -0.4707
 9755TIP3    H250757   6.346   4.267   0.954 -1.3959  1.0856 -0.3502
 9756TIP3   OH250758   1.928   2.702   1.672 -0.4690  0.2975 -0.4543
 9756TIP3    H150759   1.944   2.765   1.743  2.2564 -0.8969  0.1396
 9756TIP3    H250760   1.956   2.747   1.593 -0.2080  0.4412 -0.2812
 9757TIP3   OH250761   5.135   3.786   1.220 -0.1540 -0.5192  0.0057
 9757TIP3    H150762   5.066   3.843   1.254  0.1366 -0.9602  1.3882
 9757TIP3    H250763   5.188   3.765   1.297  0.3617 -1.7853 -0.6857
 9758TIP3   OH250764   6.592   2.400  11.205 -0.2175  0.0217  0.1245
 9758TIP3    H150765   6.626   2.475  11.157  0.0173 -0.5962 -0.6986
 9758TIP3    H250766   6.664   2.337  11.207 -1.1044 -1.1359 -1.2884
 9759TIP3   OH250767   0.464   5.483   1.587 -0.0126  0.0517  0.0736
 9759TIP3    H150768   0.550   5.496   1.627 -0.5144 -1.4798  1.7741
 9759TIP3    H250769   0.405   5.467   1.661 -1.6422  0.3477 -1.0978
 9760TIP3   OH250770   3.657   0.934  15.591 -0.2121  0.6461 -0.2133
 9760TIP3    H150771   3.627   1.011  15.542  0.5633  1.5284  0.6666
 9760TIP3    H250772   3.664   0.965  15.681  2.1827  0.1704 -0.1964
 9761TIP3   OH250773   4.774   3.638   5.812  0.0322 -0.1295 -0.0756
 9761TIP3    H150774   4.863   3.604   5.815 -0.2611 -0.8891  0.7312
 9761TIP3    H250775   4.730   3.595   5.886 -0.6224  1.3205  0.4211
 9762TIP3   OH250776   1.457   0.409  14.310  0.2513 -0.2510  0.2535
 9762TIP3    H150777   1.551   0.419  14.324  0.3621  1.6719 -1.3390
 9762TIP3    H250778   1.417   0.436  14.392  1.0666 -2.0047  1.2790
 9763TIP3   OH250779   2.417   1.716  16.837  0.3204 -0.5028  0.1256
 9763TIP3    H150780   2.480   1.760  16.894  0.4220 -1.9815  1.2187
 9763TIP3    H250781   2.373   1.653  16.894 -2.3200  0.5739 -0.5466
 9764TIP3   OH250782   6.020   6.559   5.377 -0.1658 -0.3839  0.4983
 9764TIP3    H150783   6.066   6.507   5.311  3.4030 -0.9849  3.1223
 9764TIP3    H250784   6.008   6.645   5.335 -2.4066 -1.9491 -2.4516
 9765TIP3   OH250785   2.068   0.492  14.273 -0.3345 -0.2342  0.0704
 9765TIP3    H150786   2.114   0.409  14.263 -0.6166 -0.3723 -0.1161
 9765TIP3    H250787   2.015   0.499  14.193 -1.1761 -0.4181  0.6066
 9766TIP3   OH250788   2.949   3.544   1.095  0.1407  0.1809 -0.4317
 9766TIP3    H150789   3.038   3.553   1.130 -0.1948  2.8884 -0.0519
 9766TIP3    H250790   2.923   3.455   1.120  2.4556 -0.4433  0.0585
 9767TIP3   OH250791   5.868   4.563  13.220  0.3100  0.3307  0.1949
 9767TIP3    H150792   5.866   4.488  13.279 -2.1839 -1.0415 -1.4140
 9767TIP3    H250793   5.781   4.602  13.228  0.7888  1.6447 -0.6852
 9768TIP3   OH250794   1.257   5.826  12.093  0.0712  0.4357 -0.3709
 9768TIP3    H150795   1.272   5.894  12.159 -0.4368  2.7016 -2.4456
 9768TIP3    H250796   1.180   5.779  12.126 -0.3046  1.6299  0.5638
 9769TIP3   OH250797   4.800   2.118  11.693 -0.6407  0.1988  0.2202
 9769TIP3    H150798   4.833   2.029  11.683  2.2432  1.3700 -2.5600
 9769TIP3    H250799   4.847   2.151  11.770  0.5604  0.1423 -0.4582
 9770TIP3   OH250800   6.151   2.662  11.882 -0.7077 -0.5336 -0.0389
 9770TIP3    H150801   6.185   2.736  11.833  2.0991 -0.4754  1.7738
 9770TIP3    H250802   6.133   2.595  11.816 -1.8315  1.1618 -1.5349
 9771TIP3   OH250803   5.371   4.517   6.024 -0.6433 -0.0475  0.1118
 9771TIP3    H150804   5.384   4.612   6.019  0.8942 -0.0516  2.5104
 9771TIP3    H250805   5.285   4.507   6.065  0.8916  0.5417  3.9199
 9772TIP3   OH250806   0.865   3.369   2.256 -0.2058 -0.7585 -0.3565
 9772TIP3    H150807   0.863   3.318   2.175 -2.1096  0.6855 -1.2838
 9772TIP3    H250808   0.954   3.357   2.289  1.2809  0.0544 -3.6267
 9773TIP3   OH250809   5.358   3.300  15.269 -0.1286  0.5389 -0.2343
 9773TIP3    H150810   5.305   3.373  15.236 -0.4194 -0.2831 -1.6613
 9773TIP3    H250811   5.444   3.338  15.283 -0.3362  1.2216 -0.7247
 9774TIP3   OH250812   3.443   3.187  15.153 -0.1607  0.5787  0.1684
 9774TIP3    H150813   3.374   3.218  15.094  0.3309  0.2695 -0.5910
 9774TIP3    H250814   3.397   3.147  15.226 -0.8050 -0.5301 -0.8085
 9775TIP3   OH250815   4.595   4.246   6.058  0.1282 -0.2558  0.1993
 9775TIP3    H150816   4.545   4.248   5.977 -0.3199 -0.0569  0.4752
 9775TIP3    H250817   4.678   4.207   6.034  0.4265  0.8086 -0.5899
 9776TIP3   OH250818   4.651   3.617   2.743  1.1702  0.4333 -0.0500
 9776TIP3    H150819   4.585   3.686   2.753  0.3095 -0.6412  2.3289
 9776TIP3    H250820   4.671   3.617   2.649 -0.4295  2.4173 -0.4580
 9777TIP3   OH250821   4.574   2.467   0.717  0.0361  0.0208  0.1747
 9777TIP3    H150822   4.575   2.557   0.750 -2.0883  0.4059 -0.6307
 9777TIP3    H250823   4.554   2.476   0.624  0.6358 -1.2639 -0.1007
 9778TIP3   OH250824   1.924   3.125   4.993 -0.2950 -0.2114  0.1572
 9778TIP3    H150825   1.988   3.135   4.923 -1.8935 -0.5660 -1.4223
 9778TIP3    H250826   1.967   3.066   5.056  1.2114  0.1866 -0.4578
 9779TIP3   OH250827   1.602   2.788   1.560  0.0651  0.3731  0.7638
 9779TIP3    H150828   1.554   2.789   1.478 -1.3406 -1.7754  1.4782
 9779TIP3    H250829   1.607   2.880   1.586 -0.3854  0.9874 -1.1744
 9780TIP3   OH250830   2.516   0.212   0.519 -0.0343  0.2032  0.2131
 9780TIP3    H150831   2.477   0.292   0.484 -0.5048  0.1179  0.5368
 9780TIP3    H250832   2.521   0.227   0.614  0.0839 -0.0615  0.2494
 9781TIP3   OH250833   2.508   4.350  11.302 -0.6569  0.0395  0.1299
 9781TIP3    H150834   2.477   4.277  11.356 -1.0485 -0.2530 -0.4784
 9781TIP3    H250835   2.594   4.321  11.270 -0.6036  0.0434  0.2691
 9782TIP3   OH250836   2.049   6.286   3.382  0.4106 -0.5648 -0.0065
 9782TIP3    H150837   2.144   6.276   3.394  0.1599 -2.0778  0.9710
 9782TIP3    H250838   2.018   6.197   3.364 -1.0627 -0.3977  1.4927
 9783TIP3   OH250839   2.820   0.390   5.144 -0.1336  1.0234  0.0553
 9783TIP3    H150840   2.785   0.340   5.218  0.1299 -0.3493 -0.7151
 9783TIP3    H250841   2.851   0.472   5.183 -1.5641  1.0597  1.1869
 9784TIP3   OH250842   0.766   2.677  15.393  0.0387  0.4723 -0.3215
 9784TIP3    H150843   0.782   2.755  15.446  1.3964 -0.0138  0.0053
 9784TIP3    H250844   0.783   2.603  15.451 -0.0274 -0.0671 -0.9706
 9785TIP3   OH250845   1.970   0.528   0.766  0.4083  0.4887  0.3854
 9785TIP3    H150846   1.946   0.477   0.843 -1.8892 -0.6615 -0.9856
 9785TIP3    H250847   1.894   0.583   0.749  1.3815  1.6665 -0.3457
 9786TIP3   OH250848   6.435   1.152  15.472 -0.0405  0.4420  0.2227
 9786TIP3    H150849   6.447   1.157  15.377 -2.5476 -3.0474 -0.5248
 9786TIP3    H250850   6.375   1.223  15.493  3.0011  3.2983 -0.0598
 9787TIP3   OH250851   1.639   6.825  15.884 -0.3606  0.1023  0.7396
 9787TIP3    H150852   1.637   6.920  15.896  1.3785  0.3748 -0.7306
 9787TIP3    H250853   1.730   6.801  15.900  0.4655 -0.5173 -3.6395
 9788TIP3   OH250854   6.443   3.292  15.766 -0.1243 -0.1062  0.1687
 9788TIP3    H150855   6.480   3.282  15.678 -0.8765 -1.3110 -0.0498
 9788TIP3    H250856   6.423   3.202  15.793  0.5161  0.2129  1.7699
 9789TIP3   OH250857   1.544   5.506  16.632  0.4660  0.1794 -0.3563
 9789TIP3    H150858   1.453   5.484  16.649  0.4063  0.6586 -0.0423
 9789TIP3    H250859   1.594   5.457  16.697  0.2765  1.5866  0.9133
 9790TIP3   OH250860   1.465   2.513   2.824 -0.2829 -0.7614 -0.2176
 9790TIP3    H150861   1.422   2.428   2.830  0.2418 -1.0792 -0.8133
 9790TIP3    H250862   1.420   2.558   2.754  0.1325 -0.9684 -0.6229
 9791TIP3   OH250863   2.830   5.513  13.622  0.2923 -0.6764  0.3173
 9791TIP3    H150864   2.873   5.587  13.578 -0.2378 -1.4629 -1.6577
 9791TIP3    H250865   2.889   5.491  13.694  0.6915  1.3432  0.6905
 9792TIP3   OH250866   0.975   3.191   0.700 -0.5981 -0.2940 -0.6000
 9792TIP3    H150867   1.067   3.188   0.676 -0.2237 -1.0551  0.7902
 9792TIP3    H250868   0.929   3.149   0.627  0.1741 -0.1059 -1.1981
 9793TIP3   OH250869   3.134   3.245  15.721 -0.2277  0.1076  0.7143
 9793TIP3    H150870   3.163   3.154  15.715  0.5426  0.3829  0.1776
 9793TIP3    H250871   3.043   3.243  15.691  0.1995 -0.2916 -0.6641
 9794TIP3   OH250872   3.276   1.096   3.875  0.3717  0.1919  0.1706
 9794TIP3    H150873   3.186   1.126   3.865  0.0810 -0.4122  0.8572
 9794TIP3    H250874   3.268   1.010   3.918  1.2892  0.3054  0.5987
 9795TIP3   OH250875   3.464   4.549  14.096 -0.4123 -0.4686 -0.8210
 9795TIP3    H150876   3.400   4.507  14.038 -0.2842 -1.6956 -0.0947
 9795TIP3    H250877   3.465   4.641  14.067 -3.2883 -0.1364 -0.1918
 9796TIP3   OH250878   5.597   1.127  10.983  0.1963 -0.1165  0.4995
 9796TIP3    H150879   5.549   1.052  10.946 -1.1192  1.0632 -0.2530
 9796TIP3    H250880   5.684   1.121  10.944 -0.0350 -0.9889  0.0825
 9797TIP3   OH250881   4.864   4.925   6.169  0.3962  0.0362  0.2253
 9797TIP3    H150882   4.772   4.917   6.194  0.0730  0.5869 -0.7352
 9797TIP3    H250883   4.910   4.944   6.251 -0.6752  2.2274  0.4013
 9798TIP3   OH250884   2.425   2.035   1.682  0.5348 -0.2478  0.7544
 9798TIP3    H150885   2.486   2.067   1.748 -0.7240  0.4949  1.5826
 9798TIP3    H250886   2.374   2.111   1.656 -1.2428 -1.1803  1.3847
 9799TIP3   OH250887   5.419   3.930  13.433 -0.4231  0.6155 -0.0237
 9799TIP3    H150888   5.429   3.859  13.370 -2.0825  0.3440 -0.0343
 9799TIP3    H250889   5.423   3.887  13.518  2.2594  1.0368  0.1633
 9800TIP3   OH250890   1.282   5.521   3.107 -0.4051  0.7717  0.5698
 9800TIP3    H150891   1.306   5.435   3.142  1.0304  0.6489 -0.6303
 9800TIP3    H250892   1.302   5.582   3.178  0.2629  0.2876  0.8131
 9801TIP3   OH250893   6.589   0.164   2.414 -0.4572  0.4631  0.5763
 9801TIP3    H150894   6.603   0.152   2.321 -2.0756  1.3027  0.1879
 9801TIP3    H250895   6.590   0.076   2.451 -1.9079 -0.0755 -0.5887
 9802TIP3   OH250896   3.176   4.176   2.784  0.4426  0.1044 -0.7239
 9802TIP3    H150897   3.260   4.191   2.828  0.1592 -3.9321  1.7054
 9802TIP3    H250898   3.201   4.155   2.694  2.1406 -1.1108 -0.0320
 9803TIP3   OH250899   6.524   2.158  13.775 -0.4032 -0.8768  0.0445
 9803TIP3    H150900   6.447   2.200  13.736  0.8480  1.4293 -0.1059
 9803TIP3    H250901   6.528   2.072  13.733 -2.0427 -0.4754 -1.0368
 9804TIP3   OH250902   6.720   0.793   4.059  0.2872  0.3101 -0.7600
 9804TIP3    H150903   6.792   0.754   4.008  1.7097  1.7661  0.0319
 9804TIP3    H250904   6.667   0.838   3.994  0.0905 -0.7437 -1.3561
 9805TIP3   OH250905   4.307   2.147  12.811 -0.1275 -0.4436 -0.1883
 9805TIP3    H150906   4.308   2.216  12.745  3.9933 -0.6243 -0.5961
 9805TIP3    H250907   4.298   2.194  12.895 -1.9934  0.0755 -0.6319
 9806TIP3   OH250908   4.052   3.312   2.728 -0.0780 -0.6604  1.1519
 9806TIP3    H150909   4.128   3.297   2.784  0.2076  1.4368  1.4057
 9806TIP3    H250910   3.998   3.374   2.777 -0.2467  0.5621 -0.4998
 9807TIP3   OH250911   1.735   3.053  14.039 -0.4535 -0.4129 -0.0922
 9807TIP3    H150912   1.788   2.975  14.030 -0.5858 -0.6585  1.0582
 9807TIP3    H250913   1.797   3.126  14.033 -0.4818 -0.5285 -2.3349
 9808TIP3   OH250914   3.905   6.507   4.933 -0.1039  0.0882 -0.9300
 9808TIP3    H150915   3.987   6.499   4.883  2.4718 -0.1619  2.9253
 9808TIP3    H250916   3.920   6.455   5.012 -2.9425  2.1989  1.1968
 9809TIP3   OH250917   3.329   3.956   4.200 -0.0672  0.0309 -0.1453
 9809TIP3    H150918   3.363   3.875   4.162 -1.1045  0.1543 -1.3903
 9809TIP3    H250919   3.259   3.983   4.141 -0.3363  1.3666  0.7401
 9810TIP3   OH250920   3.559   2.359  11.439  0.4858 -0.1582 -0.0414
 9810TIP3    H150921   3.481   2.303  11.436 -0.1552  0.7561 -0.9950
 9810TIP3    H250922   3.632   2.299  11.422 -0.3041 -0.5084 -2.4952
 9811TIP3   OH250923   0.549   6.789  11.159  0.6551 -0.2281 -0.3026
 9811TIP3    H150924   0.514   6.831  11.081 -0.5197 -0.7652 -0.0777
 9811TIP3    H250925   0.606   6.719  11.125  3.6827  2.2095 -0.7102
 9812TIP3   OH250926   0.311   5.063   0.806 -0.0667 -0.2892  0.5090
 9812TIP3    H150927   0.352   5.130   0.751 -0.4530 -0.4209  0.0493
 9812TIP3    H250928   0.219   5.090   0.811 -0.0354 -0.2850  1.0874
 9813TIP3   OH250929   6.442   2.065  16.318  0.2691  0.1290  0.5802
 9813TIP3    H150930   6.371   2.029  16.265  2.1377 -1.2669 -1.1335
 9813TIP3    H250931   6.413   2.054  16.409 -1.6249 -0.5207 -0.0766
 9814TIP3   OH250932   5.266   5.488   5.909  0.2778 -0.2367  0.0162
 9814TIP3    H150933   5.214   5.567   5.912 -0.6745 -0.8551  0.1781
 9814TIP3    H250934   5.220   5.426   5.965  0.0438 -1.4652 -1.4662
 9815TIP3   OH250935   4.350   3.976  16.729 -0.3647 -0.4279 -0.0617
 9815TIP3    H150936   4.366   4.025  16.810  1.3230 -0.7946 -0.1445
 9815TIP3    H250937   4.437   3.957  16.694 -1.0355 -1.3636 -1.3197
 9816TIP3   OH250938   6.081   4.855  12.119 -0.2330 -0.1824  0.5197
 9816TIP3    H150939   6.076   4.923  12.052 -1.9155 -0.6420  0.1322
 9816TIP3    H250940   6.081   4.773  12.070  0.1856 -0.4920  1.0283
 9817TIP3   OH250941   5.334   1.578  11.941  0.4895  0.5184  0.1114
 9817TIP3    H150942   5.334   1.500  11.997  0.4835  1.4932  1.5147
 9817TIP3    H250943   5.295   1.548  11.859  1.5787 -1.2355  0.1903
 9818TIP3   OH250944   2.521   2.465   1.041  0.3620 -0.1695  0.1833
 9818TIP3    H150945   2.443   2.505   1.080  1.8876  0.4120  2.8426
 9818TIP3    H250946   2.501   2.372   1.039 -0.5189 -0.0030  0.5545
 9819TIP3   OH250947   0.728   4.715   5.056  0.3533  0.2059  0.4235
 9819TIP3    H150948   0.821   4.728   5.071  1.3308  1.8002 -4.8442
 9819TIP3    H250949   0.696   4.801   5.029 -1.4009 -1.1745 -2.4440
 9820TIP3   OH250950   4.605   1.181   1.828  0.1507  0.1830  0.2370
 9820TIP3    H150951   4.556   1.206   1.750  1.1962 -1.4741 -1.0203
 9820TIP3    H250952   4.547   1.120   1.874 -0.0805  0.4182  0.2612
 9821TIP3   OH250953   5.099   4.167   2.894  0.7917 -0.9939  0.5032
 9821TIP3    H150954   5.086   4.078   2.861  1.2024 -1.9471  2.7621
 9821TIP3    H250955   5.039   4.220   2.841  0.1754 -2.6667 -0.5735
 9822TIP3   OH250956   1.597   5.119  16.736  0.2328 -0.1152  0.2398
 9822TIP3    H150957   1.534   5.123  16.664  0.2062 -0.2875  0.2510
 9822TIP3    H250958   1.591   5.204  16.779  0.1323 -0.0700  0.1346
 9823TIP3   OH250959   5.477   0.797   1.148 -0.1977 -0.6931 -0.7988
 9823TIP3    H150960   5.568   0.777   1.169 -0.6145 -0.3224  1.7393
 9823TIP3    H250961   5.428   0.723   1.184 -1.1299  0.8744  1.3380
 9824TIP3   OH250962   0.246   3.389   0.689  0.0682  0.0494  0.1886
 9824TIP3    H150963   0.271   3.461   0.747  0.8006  0.3063 -0.4261
 9824TIP3    H250964   0.151   3.382   0.698  0.2094 -0.2174  1.7481
 9825TIP3   OH250965   3.900   2.716  11.987  0.2986  0.0816 -0.0093
 9825TIP3    H150966   3.869   2.803  11.964  0.2517  0.0056 -0.2449
 9825TIP3    H250967   3.892   2.666  11.905 -0.2483 -0.3065  0.2776
 9826TIP3   OH250968   2.718   5.533   2.395 -0.0602 -0.2463  0.3116
 9826TIP3    H150969   2.676   5.446   2.391 -1.3669  0.3571 -2.9447
 9826TIP3    H250970   2.644   5.594   2.394  0.8330  0.8625 -0.7505
 9827TIP3   OH250971   3.043   3.078   4.343  0.6665 -0.5806  0.0383
 9827TIP3    H150972   3.058   3.034   4.427  1.4969 -2.4481 -1.0216
 9827TIP3    H250973   2.949   3.092   4.340  0.8221  1.9154  2.3468
 9828TIP3   OH250974   0.483   6.690   4.905  0.4135 -0.4603  0.1961
 9828TIP3    H150975   0.542   6.618   4.885 -0.0669 -0.6263 -0.6303
 9828TIP3    H250976   0.414   6.684   4.840  1.1158  1.6164 -0.8322
 9829TIP3   OH250977   4.361   4.322   5.112  0.0414 -0.0704  0.0826
 9829TIP3    H150978   4.283   4.312   5.165 -0.0430  0.3145  0.0338
 9829TIP3    H250979   4.381   4.415   5.116  0.3434 -0.1243 -0.1230
 9830TIP3   OH250980   5.819   3.244   4.377  0.2732 -0.5748 -0.5987
 9830TIP3    H150981   5.837   3.338   4.386  0.6279 -0.7503  0.8241
 9830TIP3    H250982   5.750   3.239   4.311 -0.5810  0.8014  0.1286
 9831TIP3   OH250983   6.281   1.008   3.418  0.6471  0.2982  0.1692
 9831TIP3    H150984   6.198   0.996   3.464 -0.1990 -0.6395 -1.4957
 9831TIP3    H250985   6.310   0.919   3.397  2.4482  0.5735  1.3106
 9832TIP3   OH250986   0.883   6.820   0.159 -0.1777  0.2357  0.4568
 9832TIP3    H150987   0.938   6.847   0.232  0.8407  0.6055 -0.4192
 9832TIP3    H250988   0.945   6.798   0.089 -1.0916 -1.1252  0.0308
 9833TIP3   OH250989   2.970   5.475   2.274 -0.4514 -0.0238 -0.3170
 9833TIP3    H150990   2.885   5.510   2.299 -0.9036 -1.9709  1.0901
 9833TIP3    H250991   2.950   5.400   2.218  0.2537 -1.3080  1.0872
 9834TIP3   OH250992   3.031   2.318  14.670  0.1926  0.0009  0.7898
 9834TIP3    H150993   3.049   2.307  14.577  0.3147 -0.0328  0.8170
 9834TIP3    H250994   3.109   2.283  14.714  1.1561  2.0591  0.8579
 9835TIP3   OH250995   5.639   5.603  15.658 -0.0821 -0.0671  0.5002
 9835TIP3    H150996   5.593   5.643  15.731 -0.4110 -0.3458  0.4486
 9835TIP3    H250997   5.680   5.676  15.612  1.0057  0.0195  1.5612
 9836TIP3   OH250998   5.421   2.272   3.027  0.4530  0.4537  0.2196
 9836TIP3    H150999   5.452   2.356   3.060  2.3526  0.8832 -2.3353
 9836TIP3    H251000   5.347   2.294   2.971 -1.9265 -0.1417  2.9095
 9837TIP3   OH251001   0.613   0.595  17.120 -0.7559  0.1760 -0.4260
 9837TIP3    H151002   0.662   0.663  17.166 -0.5198  1.2460 -2.1488
 9837TIP3    H251003   0.638   0.513  17.162 -0.9978  1.1242  1.6706
 9838TIP3   OH251004   2.635   0.457  13.748  0.1073  0.5751  0.3758
 9838TIP3    H151005   2.644   0.505  13.666 -1.3174 -0.5284 -0.4843
 9838TIP3    H251006   2.550   0.413  13.740  0.5334 -0.5998  1.8952
 9839TIP3   OH251007   0.369   6.496  10.730 -0.0511  0.3506 -0.0222
 9839TIP3    H151008   0.446   6.506  10.675  0.7920 -1.6535  0.7097
 9839TIP3    H251009   0.355   6.402  10.735 -0.9646  0.5402  2.0082
 9840TIP3   OH251010   2.181   5.123  16.554 -0.3623 -0.8554 -0.3204
 9840TIP3    H151011   2.154   5.114  16.646  0.1049  0.2516 -0.0538
 9840TIP3    H251012   2.276   5.137  16.559 -0.3542 -0.6762 -0.9583
 9841TIP3   OH251013   1.814   4.941  11.423 -0.0198  0.2423 -0.2606
 9841TIP3    H151014   1.893   4.915  11.470 -1.7902  0.2802  2.9999
 9841TIP3    H251015   1.783   4.860  11.382 -0.2881 -0.6951  1.6732
 9842TIP3   OH251016   3.850   0.414  16.563  0.0726 -0.4364 -0.2981
 9842TIP3    H151017   3.780   0.422  16.627 -0.2936  0.2071 -0.7702
 9842TIP3    H251018   3.885   0.326  16.577 -0.5808 -0.6288  0.1880
 9843TIP3   OH251019   3.564   4.732   2.890 -0.4106 -0.2684  0.6647
 9843TIP3    H151020   3.640   4.773   2.931 -0.1481 -0.8856  0.8072
 9843TIP3    H251021   3.548   4.784   2.812  1.3055 -1.2163 -0.3876
 9844TIP3   OH251022   0.818   0.033  17.003  0.1020  1.0157 -0.1936
 9844TIP3    H151023   0.891   0.045  17.065  0.2154  3.4961 -0.7205
 9844TIP3    H251024   0.852  -0.030  16.939 -0.1607 -1.9886  2.3497
 9845TIP3   OH251025   5.097   4.149  16.037 -0.1260 -0.0597 -0.5742
 9845TIP3    H151026   5.117   4.109  15.953  0.7381  0.5362 -0.6535
 9845TIP3    H251027   5.013   4.193  16.024  0.2220  0.4098 -1.2505
 9846TIP3   OH251028   4.382   0.364   1.436  0.1472  0.0377 -0.3727
 9846TIP3    H151029   4.461   0.324   1.472  1.2406  1.2234 -1.3399
 9846TIP3    H251030   4.368   0.442   1.488  2.7064  2.6914 -3.2622
 9847TIP3   OH251031   5.628   3.750  13.187 -0.6662 -0.3470  0.9995
 9847TIP3    H151032   5.674   3.805  13.124 -0.5044  0.1655  1.5586
 9847TIP3    H251033   5.577   3.689  13.133  1.4874 -1.6526  0.3379
 9848TIP3   OH251034   6.198   0.956  16.262 -0.2294 -0.0659  0.0435
 9848TIP3    H151035   6.216   1.047  16.289 -1.9578  0.3103  0.0298
 9848TIP3    H251036   6.265   0.937  16.196 -0.7970  1.7730 -1.1310
 9849TIP3   OH251037   0.586   2.991  11.851  0.6563 -0.1011 -0.1845
 9849TIP3    H151038   0.495   3.008  11.873  1.0179 -1.0079  2.2939
 9849TIP3    H251039   0.636   3.032  11.922  2.1507 -0.1578 -1.1611
 9850TIP3   OH251040   2.199   6.806   2.065 -0.1073  0.6211  0.1792
 9850TIP3    H151041   2.186   6.732   2.125  0.1980  2.3288  2.4731
 9850TIP3    H251042   2.110   6.831   2.038 -0.3694  0.8346  1.2175
 9851TIP3   OH251043   2.504   0.555  11.956 -0.4461  0.6422  0.0285
 9851TIP3    H151044   2.595   0.553  11.987 -0.5486 -0.5706  0.2898
 9851TIP3    H251045   2.458   0.608  12.021  0.3119  2.4510 -0.8385
 9852TIP3   OH251046   0.746   6.260   1.850  0.0173  0.2546  0.2570
 9852TIP3    H151047   0.800   6.320   1.902  2.2185 -1.0056 -0.4571
 9852TIP3    H251048   0.788   6.258   1.764 -2.0267  0.2786 -0.8078
 9853TIP3   OH251049   5.144   0.586  11.488 -0.2303 -0.3380 -0.1475
 9853TIP3    H151050   5.189   0.558  11.567 -0.9356 -1.2765 -0.0598
 9853TIP3    H251051   5.123   0.504  11.442  0.6625  0.1916 -1.5986
 9854TIP3   OH251052   2.428   5.041  16.850 -0.7498 -0.1963 -0.6924
 9854TIP3    H151053   2.405   5.109  16.914  2.3684 -0.8572  1.3513
 9854TIP3    H251054   2.433   5.088  16.767 -1.7092  1.4194  0.1054
 9855TIP3   OH251055   0.287   5.623   4.631  0.5561 -0.4898  0.1627
 9855TIP3    H151056   0.257   5.537   4.601  0.3098 -0.5948  0.6979
 9855TIP3    H251057   0.229   5.645   4.704  1.3602 -0.3944  0.7879
 9856TIP3   OH251058   2.222   3.943  15.391  0.2247 -0.0426 -0.0513
 9856TIP3    H151059   2.272   3.862  15.377  1.9318  1.0548 -0.5882
 9856TIP3    H251060   2.135   3.924  15.354  0.3617 -1.8352  0.4357
 9857TIP3   OH251061   5.551   1.353   4.591 -0.9045  0.3015  0.4027
 9857TIP3    H151062   5.499   1.273   4.592  2.4713 -2.1218  1.2445
 9857TIP3    H251063   5.547   1.385   4.682  0.1968 -0.7496  0.8465
 9858TIP3   OH251064   4.331   4.878  16.473  0.2683 -0.3865  0.2462
 9858TIP3    H151065   4.268   4.892  16.543  0.5838  0.0993  0.4392
 9858TIP3    H251066   4.340   4.964  16.431  2.3131  0.0845  1.5173
 9859TIP3   OH251067   2.519   0.000  16.147 -0.8216 -0.0916 -0.0781
 9859TIP3    H151068   2.451  -0.018  16.083  0.1435 -1.2871 -0.8066
 9859TIP3    H251069   2.601  -0.004  16.098 -0.1884  1.3537  0.7648
 9860TIP3   OH251070   1.155   3.603   4.051 -0.2031 -0.0378  0.2301
 9860TIP3    H151071   1.174   3.695   4.034  1.5641 -0.2859  0.7038
 9860TIP3    H251072   1.176   3.591   4.144 -1.0320 -0.7852  0.3354
 9861TIP3   OH251073   4.530   6.335  12.873  0.0274  0.1473  0.7056
 9861TIP3    H151074   4.456   6.363  12.925  1.3095  1.5573  1.8601
 9861TIP3    H251075   4.582   6.414  12.860  0.5461 -0.4685 -1.4426
 9862TIP3   OH251076   1.586   3.012   6.046  0.2566 -0.8385  0.0403
 9862TIP3    H151077   1.564   3.034   6.136 -0.9176  0.5397 -0.5399
 9862TIP3    H251078   1.506   3.031   5.997  1.4456  0.2837 -1.5592
 9863TIP3   OH251079   1.153   0.518   0.774 -0.2217 -1.0771 -0.1182
 9863TIP3    H151080   1.117   0.461   0.842  0.5345 -1.0935  0.2805
 9863TIP3    H251081   1.192   0.459   0.710 -1.2806 -1.0751 -0.7738
 9864TIP3   OH251082   3.375   6.629   1.813 -0.3263  0.2087  0.2216
 9864TIP3    H151083   3.367   6.577   1.734  0.3319  1.1500 -0.4882
 9864TIP3    H251084   3.358   6.568   1.884  0.3226 -0.9374 -0.5898
 9865TIP3   OH251085   3.517   4.054   4.896 -0.8056 -0.1775  0.1698
 9865TIP3    H151086   3.536   4.111   4.822  0.7618  0.7247  1.2069
 9865TIP3    H251087   3.564   3.973   4.877 -0.2188  0.1350  0.2602
 9866TIP3   OH251088   2.905   4.025   0.133  0.0605 -0.2450 -0.0224
 9866TIP3    H151089   2.813   4.014   0.107 -0.7312  0.5862  2.1730
 9866TIP3    H251090   2.938   4.094   0.076 -1.2793  0.8168  0.4208
 9867TIP3   OH251091   0.381   2.088   3.627 -0.3318  0.1675  0.4198
 9867TIP3    H151092   0.372   2.112   3.534  0.7148 -1.6702 -0.2034
 9867TIP3    H251093   0.308   2.132   3.670  0.1658  2.5170 -0.9529
 9868TIP3   OH251094   4.336   1.372  15.696  0.0996  0.0229 -0.3227
 9868TIP3    H151095   4.299   1.325  15.771 -0.2685 -0.7120 -0.9471
 9868TIP3    H251096   4.299   1.328  15.619  0.4113  0.8078 -0.9416
 9869TIP3   OH251097   2.063   1.732   3.766  0.3896  0.4487  0.4289
 9869TIP3    H151098   2.078   1.731   3.672 -1.4649  1.1915  0.0809
 9869TIP3    H251099   1.995   1.799   3.779  1.4902  1.2772  2.4400
 9870TIP3   OH251100   5.227   3.164   0.738 -0.8470 -0.6158  0.4501
 9870TIP3    H151101   5.271   3.248   0.728 -1.8319 -0.2425 -0.9484
 9870TIP3    H251102   5.287   3.100   0.699  0.0114 -0.6394  1.7313
 9871TIP3   OH251103   5.867   0.065  14.131  0.2932  0.5234  0.4721
 9871TIP3    H151104   5.784   0.111  14.118  0.8102  1.1701 -0.6689
 9871TIP3    H251105   5.869   0.045  14.224 -2.1875 -1.5219  0.1921
 9872TIP3   OH251106   2.756   5.543  12.832 -0.0346 -0.3163  0.0860
 9872TIP3    H151107   2.807   5.531  12.752 -1.0454  1.3571 -0.8782
 9872TIP3    H251108   2.803   5.612  12.880 -0.8380  0.5817 -0.3728
 9873TIP3   OH251109   5.829   0.055   5.199 -0.0652  0.7906  0.1036
 9873TIP3    H151110   5.797   0.141   5.172  0.2592  1.1142  0.7249
 9873TIP3    H251111   5.751   0.011   5.234 -0.6386  0.1042 -1.9228
 9874TIP3   OH251112   6.681   2.146  15.132  0.0514 -0.2177 -0.2792
 9874TIP3    H151113   6.682   2.056  15.164  2.5784 -0.3173 -0.4584
 9874TIP3    H251114   6.758   2.153  15.075 -1.8902  1.1481 -2.9988
 9875TIP3   OH251115   5.133   6.374   0.180 -0.3652  0.6233  0.3418
 9875TIP3    H151116   5.177   6.339   0.258  0.3615  1.0935  0.1507
 9875TIP3    H251117   5.196   6.359   0.109 -1.1086  0.0055 -0.2018
 9876TIP3   OH251118   1.430   2.645  14.979  0.0417  0.0143  0.9117
 9876TIP3    H151119   1.430   2.713  15.046  0.8404  0.5944  0.3508
 9876TIP3    H251120   1.505   2.667  14.923 -0.6962 -0.3529 -0.2614
 9877TIP3   OH251121   0.252   3.158   0.531  0.8583  0.9262 -0.0325
 9877TIP3    H151122   0.282   3.208   0.607  0.0082  0.5295  0.5784
 9877TIP3    H251123   0.161   3.184   0.520 -0.4882 -2.3314  1.9529
 9878TIP3   OH251124   0.553   1.966   1.503 -0.0874 -0.2501 -0.2120
 9878TIP3    H151125   0.478   2.002   1.549  0.7997 -1.7048  2.6063
 9878TIP3    H251126   0.612   2.041   1.492  0.1744 -0.0358  2.2068
 9879TIP3   OH251127   5.686   5.136   5.863  0.3215 -0.1160 -0.5562
 9879TIP3    H151128   5.724   5.163   5.780 -1.3133 -0.8424 -1.5867
 9879TIP3    H251129   5.680   5.217   5.915  0.5520  0.4928 -1.4630
 9880TIP3   OH251130   3.853   4.750   2.427 -0.2288  0.1644  0.1354
 9880TIP3    H151131   3.937   4.715   2.397 -0.0036 -2.3151  3.1777
 9880TIP3    H251132   3.787   4.691   2.389 -0.5733  1.3349 -1.1835
 9881TIP3   OH251133   4.287   0.762   4.450  0.4451  0.1324  0.1238
 9881TIP3    H151134   4.327   0.676   4.462  1.3982  0.5451 -0.0706
 9881TIP3    H251135   4.193   0.743   4.439  0.6803 -0.8966 -0.1761
 9882TIP3   OH251136   4.804   0.785   3.952  0.0966  0.6076  0.5015
 9882TIP3    H151137   4.739   0.855   3.944 -0.9950 -0.4859 -0.5242
 9882TIP3    H251138   4.862   0.815   4.021 -1.4769  1.6426  1.4394
 9883TIP3   OH251139   4.892   6.448   1.342 -0.5307 -0.4129 -0.1105
 9883TIP3    H151140   4.954   6.467   1.272 -1.2788  0.4681 -0.5591
 9883TIP3    H251141   4.934   6.483   1.421 -0.8456  1.0349 -0.5589
 9884TIP3   OH251142   1.371   5.678  15.003  0.1450  0.1697 -0.3282
 9884TIP3    H151143   1.441   5.710  14.945 -0.2912  1.2853 -0.2643
 9884TIP3    H251144   1.313   5.629  14.945  0.4967  0.0097 -0.5503
 9885TIP3   OH251145   2.086   3.454   5.327  0.3150 -0.9354  0.2753
 9885TIP3    H151146   1.993   3.472   5.317  0.9276  1.5994 -2.0731
 9885TIP3    H251147   2.102   3.377   5.272 -0.0960 -0.1798 -0.9218
 9886TIP3   OH251148   6.351   1.246   4.998 -0.9823 -0.2149  0.2861
 9886TIP3    H151149   6.439   1.223   5.026 -0.7244 -0.8720 -0.9528
 9886TIP3    H251150   6.302   1.163   5.002 -1.9105  0.3827  2.1635
 9887TIP3   OH251151   1.830   0.581   2.352 -0.5223 -0.1678 -0.0293
 9887TIP3    H151152   1.913   0.627   2.336  0.1279 -0.1230  2.8209
 9887TIP3    H251153   1.818   0.524   2.277  2.9163 -1.2829  0.1212
 9888TIP3   OH251154   6.655   6.521   3.280 -0.7790 -0.3769  0.4162
 9888TIP3    H151155   6.708   6.478   3.347  0.3546  1.1552  0.5460
 9888TIP3    H251156   6.713   6.587   3.242 -1.5472 -0.8880 -1.7695
 9889TIP3   OH251157   1.984   3.583   4.888 -0.2341 -0.2386  0.1439
 9889TIP3    H151158   2.045   3.657   4.888 -1.2566  0.6798  2.0244
 9889TIP3    H251159   1.911   3.612   4.832  0.4876 -0.8911 -1.1895
 9890TIP3   OH251160   6.205   4.575   4.177  0.0269  0.2026 -0.4736
 9890TIP3    H151161   6.288   4.609   4.144  1.0840  0.0208  1.8043
 9890TIP3    H251162   6.222   4.555   4.269 -2.5041 -0.0181  0.0263
 9891TIP3   OH251163   3.065   4.467  10.423  0.3051 -0.1571 -0.0138
 9891TIP3    H151164   3.021   4.537  10.375 -1.4375 -0.0540  1.6080
 9891TIP3    H251165   3.043   4.387  10.375  2.2016  0.3200 -1.8060
 9892TIP3   OH251166   1.126   0.324   0.968  0.3490 -0.4861 -0.1256
 9892TIP3    H151167   1.032   0.338   0.977  0.0856 -2.1590  0.1765
 9892TIP3    H251168   1.139   0.234   0.999  2.0962 -0.1680  0.1381
 9893TIP3   OH251169   5.288   4.475   4.862 -0.3085  0.3071  0.0682
 9893TIP3    H151170   5.336   4.397   4.834 -2.3963 -1.0296  0.0237
 9893TIP3    H251171   5.290   4.533   4.785 -0.0514 -0.3693 -0.4443
 9894TIP3   OH251172   3.306   2.145   1.055 -0.3693 -0.3205 -0.0952
 9894TIP3    H151173   3.215   2.175   1.064 -1.0110 -1.6866 -1.4909
 9894TIP3    H251174   3.358   2.225   1.056 -1.6338  0.5291  0.2723
 9895TIP3   OH251175   1.656   2.238   4.219  0.4948  0.1056 -0.0006
 9895TIP3    H151176   1.652   2.285   4.303  0.5479 -1.8980  1.1876
 9895TIP3    H251177   1.750   2.224   4.205  0.4210 -0.8456  0.3874
 9896TIP3   OH251178   5.667   2.425   0.189 -0.1104 -0.0282  0.0713
 9896TIP3    H151179   5.754   2.442   0.224 -0.1862 -1.3482  0.9571
 9896TIP3    H251180   5.607   2.467   0.252 -0.1424  2.6984 -1.5882
 9897TIP3   OH251181   6.589   5.203   1.227 -0.1643 -0.3726 -0.5031
 9897TIP3    H151182   6.518   5.257   1.261 -0.8636 -2.1431  1.0141
 9897TIP3    H251183   6.548   5.147   1.162 -0.4226 -1.9713  0.9572
 9898TIP3   OH251184   0.806   0.681   4.860 -0.4064  0.4367  0.6430
 9898TIP3    H151185   0.777   0.762   4.902 -2.6234 -1.1863  2.5044
 9898TIP3    H251186   0.740   0.664   4.793 -0.4898 -0.2602  0.8888
 9899TIP3   OH251187   5.354   3.527  11.465 -0.3307 -0.0963 -0.3034
 9899TIP3    H151188   5.295   3.600  11.479 -0.1187  0.3459 -1.6108
 9899TIP3    H251189   5.438   3.567  11.441 -0.2860 -0.7453 -1.3193
 9900TIP3   OH251190   2.931   2.964  12.066 -0.0661  0.6937 -0.7051
 9900TIP3    H151191   2.948   3.055  12.091  2.0197 -0.0185  0.6371
 9900TIP3    H251192   3.016   2.930  12.039 -0.8073 -0.8976 -1.1431
 9901TIP3   OH251193   2.026   4.535   4.178  0.4367 -0.0768  0.3462
 9901TIP3    H151194   2.081   4.457   4.175  0.8397  0.1830  0.7906
 9901TIP3    H251195   2.018   4.556   4.271  3.1572  2.3273  0.1774
 9902TIP3   OH251196   0.205   6.016  14.331 -0.1533  0.2706 -0.1824
 9902TIP3    H151197   0.166   6.075  14.396 -1.5001  0.2624 -0.9727
 9902TIP3    H251198   0.280   6.065  14.297 -0.5326  1.0222  0.0467
 9903TIP3   OH251199   4.869   0.354   0.110 -0.0391  1.5778 -0.0468
 9903TIP3    H151200   4.944   0.355   0.050  0.7078  1.6952  0.8554
 9903TIP3    H251201   4.797   0.392   0.060  0.0364 -0.0873 -1.5091
 9904TIP3   OH251202   0.552   5.776   3.329  0.3757 -0.3100 -0.1174
 9904TIP3    H151203   0.586   5.718   3.261 -0.0134 -1.0686  0.3289
 9904TIP3    H251204   0.460   5.790   3.304  1.0160  1.9782 -1.4931
 9905TIP3   OH251205   1.238   4.935  11.236  0.2836 -0.1617 -0.1292
 9905TIP3    H151206   1.221   4.952  11.143  0.1373 -0.2819 -0.1268
 9905TIP3    H251207   1.202   5.011  11.281 -1.0334 -0.7949 -0.0629
 9906TIP3   OH251208   3.461   2.919  13.985 -0.1937  0.5923  0.4707
 9906TIP3    H151209   3.536   2.963  14.027  0.2713 -0.5002  0.8053
 9906TIP3    H251210   3.494   2.834  13.958 -0.8126  0.8240 -1.1197
 9907TIP3   OH251211   4.380   5.166   5.590  0.3710 -0.3170  0.3417
 9907TIP3    H151212   4.456   5.181   5.533  0.7556 -0.8962  0.6904
 9907TIP3    H251213   4.313   5.224   5.556  1.4324  1.3306  0.9264
 9908TIP3   OH251214   4.504   0.465   2.578  0.7631  0.6230 -0.4234
 9908TIP3    H151215   4.436   0.493   2.639  1.3654  1.2089  0.0054
 9908TIP3    H251216   4.464   0.396   2.526  0.1456  0.3022  0.4602
 9909TIP3   OH251217   3.494   1.978   1.243 -0.3306 -0.3139 -0.1578
 9909TIP3    H151218   3.526   2.063   1.213  0.6415 -0.2914  0.8886
 9909TIP3    H251219   3.528   1.916   1.179 -2.7397  0.2047 -2.1360
 9910TIP3   OH251220   4.907   5.403   3.379  0.1960  0.2046 -0.3069
 9910TIP3    H151221   4.899   5.441   3.467 -0.5212  0.2322 -0.3745
 9910TIP3    H251222   4.944   5.316   3.394  2.4631  1.1264 -0.2017
 9911TIP3   OH251223   3.276   4.368   3.740 -0.4244  0.2252  0.4308
 9911TIP3    H151224   3.353   4.367   3.683 -1.6076  1.2943 -1.2921
 9911TIP3    H251225   3.211   4.316   3.692 -1.3740  0.9419  0.9064
 9912TIP3   OH251226   4.578   1.225   3.478 -0.2253 -0.1932  0.3899
 9912TIP3    H151227   4.584   1.269   3.393 -0.5163  0.2578  0.5950
 9912TIP3    H251228   4.484   1.209   3.490 -0.1681 -0.4124  0.5421
 9913TIP3   OH251229   3.466   6.615  16.261  0.3588  0.0460 -0.0927
 9913TIP3    H151230   3.456   6.710  16.268 -0.0250  0.0591 -0.8305
 9913TIP3    H251231   3.511   6.591  16.342  0.2512  0.8250  0.2112
 9914TIP3   OH251232   4.174   6.405  14.481 -0.4460 -0.6321 -0.0501
 9914TIP3    H151233   4.107   6.473  14.475 -0.1369 -0.1570  1.3064
 9914TIP3    H251234   4.130   6.325  14.456 -1.3040 -0.1970  0.0481
 9915TIP3   OH251235   4.585   1.896  16.556 -0.0447  1.1885 -0.5494
 9915TIP3    H151236   4.652   1.923  16.619  0.1140  3.2472 -1.4972
 9915TIP3    H251237   4.635   1.862  16.482 -0.2007 -0.2931 -0.0088
 9916TIP3   OH251238   0.077   4.434   0.893 -0.5939  0.4441 -0.1188
 9916TIP3    H151239   0.013   4.363   0.887  0.4863 -0.4730 -2.7099
 9916TIP3    H251240   0.139   4.406   0.961 -2.4503  1.0144  1.9064
 9917TIP3   OH251241   1.909   4.484   1.220 -0.1380 -0.0724  0.0866
 9917TIP3    H151242   1.959   4.411   1.184 -0.9963 -0.4018 -0.4842
 9917TIP3    H251243   1.826   4.445   1.247 -0.5231  0.6524 -0.0183
 9918TIP3   OH251244   0.851   0.060  14.266  0.0964 -0.2779 -0.3314
 9918TIP3    H151245   0.941   0.038  14.243  0.0301  0.3738 -1.2687
 9918TIP3    H251246   0.815   0.101  14.187 -0.5965  0.7235  0.4722
 9919TIP3   OH251247   0.899   6.503  11.930 -0.5013  0.2004 -0.4410
 9919TIP3    H151248   0.820   6.503  11.876 -1.9833  1.7653  1.5397
 9919TIP3    H251249   0.880   6.441  12.000  0.6223 -0.4209 -0.6592
 9920TIP3   OH251250   4.025   0.552  14.250  0.4981  0.0606 -0.1286
 9920TIP3    H151251   3.979   0.468  14.250 -0.4183  0.5516 -0.3428
 9920TIP3    H251252   3.959   0.616  14.274  1.0478  0.7976 -0.5197
 9921TIP3   OH251253   1.990   1.996   0.510  0.4202 -0.6097  0.2321
 9921TIP3    H151254   1.952   1.917   0.471  0.8962 -1.0728  0.6752
 9921TIP3    H251255   2.056   1.962   0.571  0.3262  0.1268  0.7469
 9922TIP3   OH251256   3.081   4.028   2.257 -0.0660  0.6221 -0.6942
 9922TIP3    H151257   3.054   3.997   2.171 -1.4286  1.0003 -0.4350
 9922TIP3    H251258   3.010   4.087   2.284  1.2929  2.0919 -0.1738
 9923TIP3   OH251259   6.229   5.664  14.222 -0.3544  0.3211 -0.2822
 9923TIP3    H151260   6.312   5.617  14.235  0.9821  2.9073  1.3106
 9923TIP3    H251261   6.187   5.660  14.308 -0.1465  2.0231 -0.0646
 9924TIP3   OH251262   0.684   0.532   3.592  0.3270 -0.5718  0.0589
 9924TIP3    H151263   0.661   0.566   3.505  0.8143 -1.0132 -0.2498
 9924TIP3    H251264   0.667   0.606   3.651  0.8100  0.0267 -0.5230
 9925TIP3   OH251265   4.243   5.096  17.057  0.9570 -0.6632 -0.3591
 9925TIP3    H151266   4.318   5.137  17.101  1.5208 -0.5635 -1.3942
 9925TIP3    H251267   4.218   5.158  16.988 -0.3137 -0.5305  0.1788
 9926TIP3   OH251268   3.653   6.062  13.819  0.0070 -0.4716 -0.3307
 9926TIP3    H151269   3.595   6.001  13.865 -0.9166  1.2078  0.8428
 9926TIP3    H251270   3.717   6.005  13.776 -0.0526 -2.2427  1.7003
 9927TIP3   OH251271   1.776   4.133  12.659  0.0203 -0.3074  0.0302
 9927TIP3    H151272   1.692   4.116  12.618 -0.5538  1.7090  0.2628
 9927TIP3    H251273   1.802   4.219  12.627  1.3899 -0.3429  0.9356
 9928TIP3   OH251274   0.873   3.386  16.014 -0.0278 -0.1758  0.1568
 9928TIP3    H151275   0.876   3.362  15.922  1.0022 -2.7897  0.7720
 9928TIP3    H251276   0.964   3.378  16.044 -0.5392 -0.7327  1.6591
 9929TIP3   OH251277   4.216   2.404   2.001 -0.5057  0.2785 -0.1269
 9929TIP3    H151278   4.190   2.456   1.925 -1.2280  0.9809  0.5855
 9929TIP3    H251279   4.231   2.469   2.070  0.5437 -0.3203  0.2318
 9930TIP3   OH251280   0.540   6.255  15.739 -0.1871 -0.2070  0.1145
 9930TIP3    H151281   0.454   6.298  15.745  0.1892  0.3700  2.5109
 9930TIP3    H251282   0.532   6.179  15.797  0.9983  0.0406  0.6242
 9931TIP3   OH251283   3.317   5.437   5.673  0.1568 -0.2184 -0.5573
 9931TIP3    H151284   3.359   5.384   5.741 -0.7619  0.0122  0.1908
 9931TIP3    H251285   3.247   5.484   5.717 -1.3179 -1.0574 -1.8954
 9932TIP3   OH251286   5.921   5.758  12.042  0.2043 -0.3988 -0.5917
 9932TIP3    H151287   5.928   5.809  11.962 -0.5438 -1.0845 -1.1096
 9932TIP3    H251288   5.908   5.823  12.111  1.6076  0.2396 -0.9125
 9933TIP3   OH251289   3.011   6.011   5.032  0.4401  0.2473  0.3667
 9933TIP3    H151290   3.003   5.954   4.955 -0.3731  1.5037 -0.5088
 9933TIP3    H251291   2.924   6.048   5.044  0.9538  1.3325  0.9028
 9934TIP3   OH251292   1.945   1.578   1.350 -0.2093 -0.0812 -0.2411
 9934TIP3    H151293   1.926   1.632   1.274 -0.0925 -1.2791 -1.1607
 9934TIP3    H251294   2.034   1.602   1.375 -0.1981  0.2298 -0.5716
 9935TIP3   OH251295   3.750   4.280  15.267  0.4047 -0.0101  0.0295
 9935TIP3    H151296   3.782   4.317  15.349 -0.6200 -0.5009  0.6702
 9935TIP3    H251297   3.659   4.254  15.286  1.0623 -2.9472 -0.3349
 9936TIP3   OH251298   1.576   0.025   2.749  0.1646 -0.2041  0.5607
 9936TIP3    H151299   1.507  -0.025   2.706 -0.0496 -1.9507  2.7785
 9936TIP3    H251300   1.552   0.116   2.734 -1.7363 -0.7660 -0.1060
 9937TIP3   OH251301   1.583   3.676   5.879 -0.2770  0.3713 -0.4747
 9937TIP3    H151302   1.629   3.737   5.937  0.4175 -0.4515 -0.1398
 9937TIP3    H251303   1.492   3.680   5.908  0.0331  0.0947  0.5844
 9938TIP3   OH251304   5.600   1.456  12.156 -0.1632 -0.0172  0.2082
 9938TIP3    H151305   5.664   1.475  12.088  0.9918 -0.0771  1.2431
 9938TIP3    H251306   5.521   1.429  12.108  0.1886  1.1946 -1.1149
 9939TIP3   OH251307   5.510   4.550   1.118 -0.2904  0.8007 -0.0047
 9939TIP3    H151308   5.463   4.628   1.086 -0.0895  0.7231 -0.5033
 9939TIP3    H251309   5.554   4.579   1.197  0.4020  1.4154 -0.5935
 9940TIP3   OH251310   4.537   2.785  12.233  0.1519  0.4821  0.0526
 9940TIP3    H151311   4.547   2.792  12.328 -0.0249  0.3024  0.0870
 9940TIP3    H251312   4.593   2.712  12.208 -1.4517 -0.9184  0.3293
 9941TIP3   OH251313   2.129   6.379  11.589  0.2010  0.1137  0.1315
 9941TIP3    H151314   2.129   6.298  11.537  1.5085 -0.3541  0.8105
 9941TIP3    H251315   2.037   6.407  11.590  0.0549 -0.1487 -1.9472
 9942TIP3   OH251316   1.484   1.369   0.314  0.7833  0.2791 -0.1243
 9942TIP3    H151317   1.559   1.311   0.325  0.5682  0.0713  0.2943
 9942TIP3    H251318   1.445   1.343   0.231  1.4380  0.6993 -0.5705
 9943TIP3   OH251319   4.690   1.993   4.598  0.0535 -0.1279 -0.2169
 9943TIP3    H151320   4.669   1.914   4.647  3.9579 -0.9194  0.4939
 9943TIP3    H251321   4.754   2.039   4.653  1.1703  1.2837 -2.5442
 9944TIP3   OH251322   3.952   5.506  12.223  0.7697 -0.1690 -0.1763
 9944TIP3    H151323   4.033   5.459  12.246  0.7625  0.4738  1.3026
 9944TIP3    H251324   3.982   5.585  12.178  1.0515  0.4719  1.0823
 9945TIP3   OH251325   5.412   0.728  12.998 -0.1466 -0.0060 -0.0668
 9945TIP3    H151326   5.344   0.692  13.056 -0.0262  0.9533  0.7029
 9945TIP3    H251327   5.368   0.738  12.914 -0.8536  0.2304  0.3174
 9946TIP3   OH251328   1.436   5.443  12.898  0.2447 -0.1045 -0.6214
 9946TIP3    H151329   1.433   5.468  12.990  0.0480 -1.6754 -0.1755
 9946TIP3    H251330   1.354   5.477  12.861 -0.6971 -1.3175  0.2967
 9947TIP3   OH251331   2.835   1.957  14.628  0.0487 -0.1471  0.2236
 9947TIP3    H151332   2.842   1.867  14.659  1.2318  0.2577  1.1892
 9947TIP3    H251333   2.828   1.949  14.533 -0.8912 -1.2874  0.3671
 9948TIP3   OH251334   3.566   0.891   3.894 -0.7550 -0.4006  0.3237
 9948TIP3    H151335   3.569   0.844   3.977 -0.5536 -0.8037  0.0883
 9948TIP3    H251336   3.485   0.942   3.898  0.3206  1.3055  1.6995
 9949TIP3   OH251337   0.179   6.292  14.979 -0.0970  0.2549  0.4147
 9949TIP3    H151338   0.121   6.341  14.920  0.2090 -0.5260 -0.5825
 9949TIP3    H251339   0.184   6.345  15.058 -0.9191  1.1055 -0.0791
 9950TIP3   OH251340   4.381   1.981   1.369 -0.0010 -0.4268  0.3043
 9950TIP3    H151341   4.340   1.939   1.444 -0.4367  1.4498  1.1660
 9950TIP3    H251342   4.457   1.926   1.350 -0.0101 -1.0831  1.9799
 9951TIP3   OH251343   3.436   6.040   2.002  0.1296  0.3085  0.2980
 9951TIP3    H151344   3.449   5.963   1.947  0.3863 -0.4805  1.4116
 9951TIP3    H251345   3.359   6.018   2.055  0.6221  0.5077  1.1218
 9952TIP3   OH251346   4.879   0.977  14.649 -0.3218 -0.6516  0.3202
 9952TIP3    H151347   4.848   0.905  14.595 -0.9453 -0.3145  0.2214
 9952TIP3    H251348   4.848   1.056  14.605  0.4940 -0.3081  0.3382
 9953TIP3   OH251349   5.640   1.676   2.657  0.0662 -0.3186  0.0115
 9953TIP3    H151350   5.551   1.697   2.630  0.1378 -2.5902 -2.4262
 9953TIP3    H251351   5.646   1.706   2.748 -3.4587 -0.8812  0.5644
 9954TIP3   OH251352   5.951   2.197   0.563  0.5252  0.4441  0.2707
 9954TIP3    H151353   5.954   2.124   0.626  0.8251  1.4208  1.4238
 9954TIP3    H251354   6.025   2.253   0.588  1.2365  0.3880 -1.5694
 9955TIP3   OH251355   3.665   4.277   3.509  0.4282  0.1465  0.3108
 9955TIP3    H151356   3.683   4.371   3.520 -1.4470  0.7396 -1.0204
 9955TIP3    H251357   3.578   4.266   3.549 -1.1721 -0.0933 -2.9006
 9956TIP3   OH251358   2.582   5.555   6.167 -0.0237 -0.3942 -0.0207
 9956TIP3    H151359   2.644   5.613   6.123  0.5198 -0.5976  0.4581
 9956TIP3    H251360   2.636   5.504   6.227 -0.4351 -1.6420 -0.6751
 9957TIP3   OH251361   5.213   6.158  16.616  0.0684 -0.1212 -0.3849
 9957TIP3    H151362   5.270   6.224  16.655  0.8095 -1.8818  1.7212
 9957TIP3    H251363   5.160   6.126  16.689  0.0278 -2.1500 -1.2451
 9958TIP3   OH251364   5.010   6.271   4.044  0.3353  0.5516 -1.1989
 9958TIP3    H151365   5.101   6.294   4.065  0.2061  1.4333 -1.5321
 9958TIP3    H251366   4.960   6.300   4.120  0.2663  0.5939 -1.2608
 9959TIP3   OH251367   1.353   0.454   1.278  0.1384  0.8754 -0.5464
 9959TIP3    H151368   1.433   0.437   1.227 -1.5577 -0.7824 -2.8788
 9959TIP3    H251369   1.369   0.411   1.362  0.9700 -1.3516 -1.7428
 9960TIP3   OH251370   5.336   6.780   4.645 -0.3079  0.2941 -0.8758
 9960TIP3    H151371   5.395   6.729   4.588  0.4682  1.1660 -0.8838
 9960TIP3    H251372   5.331   6.730   4.726  1.5867  0.8498 -0.3500
 9961TIP3   OH251373   4.553   4.739   0.628  0.4775 -0.0442  0.4629
 9961TIP3    H151374   4.623   4.718   0.689  1.4576 -0.7148 -0.8549
 9961TIP3    H251375   4.474   4.741   0.682  0.7430 -3.9747  1.3068
 9962TIP3   OH251376   0.892   3.615   4.841  0.1961  0.5111  0.9457
 9962TIP3    H151377   0.924   3.589   4.755  2.0848  0.9739  1.4714
 9962TIP3    H251378   0.968   3.653   4.885 -0.8692  0.8286  2.6125
 9963TIP3   OH251379   3.185   2.132  15.112 -0.0373 -0.3699  0.3728
 9963TIP3    H151380   3.112   2.171  15.160  0.0862 -0.1199  0.3627
 9963TIP3    H251381   3.219   2.204  15.058 -0.3981 -0.7461 -0.3561
 9964TIP3   OH251382   3.786   5.673   1.136  0.1462  0.1840  0.2549
 9964TIP3    H151383   3.732   5.717   1.070  2.4103  2.3716 -0.2738
 9964TIP3    H251384   3.745   5.697   1.219 -1.2205 -0.4607 -0.1910
 9965TIP3   OH251385   3.446   5.967   0.990 -0.7709  0.4868 -0.4484
 9965TIP3    H151386   3.484   6.053   0.977  0.8881  0.0201  0.9780
 9965TIP3    H251387   3.428   5.962   1.084 -2.3703 -0.1363 -0.7560
 9966TIP3   OH251388   6.137   1.875  14.746 -0.5944  0.1728  0.2136
 9966TIP3    H151389   6.174   1.877  14.834  0.0424 -0.5062 -0.0358
 9966TIP3    H251390   6.091   1.959  14.738  0.4818  0.8329  0.7029
 9967TIP3   OH251391   5.033   4.214   1.408 -0.3492 -0.1920 -0.1440
 9967TIP3    H151392   5.068   4.297   1.375 -0.6700 -0.2900 -0.7566
 9967TIP3    H251393   4.967   4.240   1.473 -1.3146  0.0789 -1.2049
 9968TIP3   OH251394   5.406   4.111  14.239 -0.2808  0.0602 -0.0970
 9968TIP3    H151395   5.343   4.052  14.281  0.6811  0.9689  2.8494
 9968TIP3    H251396   5.371   4.199  14.254  0.3015  0.4468 -0.9066
 9969TIP3   OH251397   5.592   6.327   0.434 -0.0010  0.0855  0.2375
 9969TIP3    H151398   5.509   6.318   0.480 -1.3920  1.0370 -1.9399
 9969TIP3    H251399   5.613   6.239   0.404 -1.5551  0.1753 -1.2781
 9970TIP3   OH251400   3.209   2.928  11.291  0.0604 -1.4288 -0.3276
 9970TIP3    H151401   3.281   2.876  11.255 -1.3086 -0.5550 -5.0187
 9970TIP3    H251402   3.130   2.877  11.274 -0.8542 -0.1611 -0.0867
 9971TIP3   OH251403   6.553   4.909   0.208  0.3714 -0.1580  0.4126
 9971TIP3    H151404   6.626   4.890   0.267  1.6779 -1.5000 -1.4897
 9971TIP3    H251405   6.590   4.900   0.120 -2.4515 -2.8770 -0.7235
 9972TIP3   OH251406   4.534   0.420   4.396  0.1281  0.1925  0.1742
 9972TIP3    H151407   4.483   0.471   4.459 -1.8520  1.4439 -2.2528
 9972TIP3    H251408   4.622   0.416   4.434 -0.7137  1.7263  2.5145
 9973TIP3   OH251409   0.963   4.778   2.162  0.6316 -0.7009  0.0436
 9973TIP3    H151410   0.887   4.764   2.218  0.0337  0.4182 -0.4493
 9973TIP3    H251411   0.975   4.694   2.116  0.6332 -1.3608  1.2218
 9974TIP3   OH251412   4.148   6.546   2.137  0.6484 -0.2076 -0.4405
 9974TIP3    H151413   4.124   6.620   2.081 -1.7948 -0.3493  0.2737
 9974TIP3    H251414   4.222   6.577   2.189  0.1698  1.4846 -0.7053
 9975TIP3   OH251415   3.272   1.229  11.528  0.1290  0.2816 -0.4413
 9975TIP3    H151416   3.223   1.311  11.520 -0.5162 -0.2770 -3.2076
 9975TIP3    H251417   3.236   1.187  11.606 -1.4192  1.4115 -0.4936
 9976TIP3   OH251418   5.280   2.935  14.681  0.6029 -0.6367 -0.2283
 9976TIP3    H151419   5.263   3.022  14.718  1.5758 -0.6326  0.2353
 9976TIP3    H251420   5.202   2.884  14.704 -1.3138  0.7975 -2.9060
 9977TIP3   OH251421   5.021   1.811  16.645 -0.3779 -0.0937 -0.4553
 9977TIP3    H151422   5.052   1.889  16.599  0.1143 -0.1381 -0.1940
 9977TIP3    H251423   5.097   1.753  16.648  0.3680  0.8638  2.5789
 9978TIP3   OH251424   6.132   1.647   0.248 -0.3295  0.2805  0.2288
 9978TIP3    H151425   6.122   1.701   0.326  0.2966 -1.1527  1.3516
 9978TIP3    H251426   6.057   1.587   0.251  0.8152 -1.1805  0.9417
 9979TIP3   OH251427   4.961   0.194   2.051  0.0319  0.1642  0.2837
 9979TIP3    H151428   4.930   0.105   2.065 -2.7788  1.1540  0.9258
 9979TIP3    H251429   5.008   0.217   2.131  0.4794 -0.5935  0.2463
 9980TIP3   OH251430   0.995   5.521  13.510  0.7259  0.5384  0.7264
 9980TIP3    H151431   1.007   5.606  13.552  1.0088  1.5658 -1.3018
 9980TIP3    H251432   1.072   5.471  13.536  2.1931  2.0266 -0.4924
 9981TIP3   OH251433   0.946   1.072   3.770  0.4086 -0.7057 -0.1817
 9981TIP3    H151434   1.021   1.101   3.824 -0.9024  0.3326  1.1766
 9981TIP3    H251435   0.946   1.133   3.696 -1.1341  1.6843  1.6402
 9982TIP3   OH251436   1.414   0.128  12.144  0.2302 -0.6774  0.1751
 9982TIP3    H151437   1.417   0.092  12.055 -0.6738 -1.4779  0.4575
 9982TIP3    H251438   1.331   0.098  12.180 -0.1465  0.9431  0.7583
 9983TIP3   OH251439   5.738   5.184  11.874 -0.0746  0.2309  0.1148
 9983TIP3    H151440   5.649   5.148  11.872  0.2152 -0.7709  2.3443
 9983TIP3    H251441   5.790   5.123  11.823 -0.4560  0.1403 -0.1717
 9984TIP3   OH251442   6.673   3.132  11.957  0.2458 -0.7524 -0.4762
 9984TIP3    H151443   6.621   3.210  11.977  1.0926  0.2186 -1.8562
 9984TIP3    H251444   6.745   3.135  12.020 -1.0294 -1.8456  1.1295
 9985TIP3   OH251445   3.328   4.229   6.013 -0.1430 -0.3464 -0.1419
 9985TIP3    H151446   3.398   4.249   5.952 -0.8224 -0.4541 -0.9640
 9985TIP3    H251447   3.368   4.238   6.100  0.8515 -0.3086 -0.6009
 9986TIP3   OH251448   2.145   3.154  11.380  0.3322 -0.8464  0.1498
 9986TIP3    H151449   2.221   3.156  11.321  0.2844 -1.6407  0.0504
 9986TIP3    H251450   2.070   3.138  11.323  0.0113  0.3722  0.1930
 9987TIP3   OH251451   2.084   1.994   4.148  0.0622  0.5153 -1.0569
 9987TIP3    H151452   2.171   1.958   4.133 -0.1929 -0.2282 -0.7783
 9987TIP3    H251453   2.090   2.084   4.116  0.8103  0.3459 -1.4184
 9988TIP3   OH251454   6.095   5.843  11.600  0.3888  0.1969 -0.3824
 9988TIP3    H151455   6.018   5.786  11.598  0.3085  0.3036 -0.3524
 9988TIP3    H251456   6.091   5.890  11.516 -0.1036  0.8921  0.0148
 9989TIP3   OH251457   3.461   3.321  13.138 -0.7615 -0.6008  0.4737
 9989TIP3    H151458   3.519   3.245  13.143  1.3575  1.0063  2.1299
 9989TIP3    H251459   3.502   3.386  13.195 -3.8197  0.9427  1.1213
 9990TIP3   OH251460   2.534   2.166   5.722  0.1180 -0.3538  0.2785
 9990TIP3    H151461   2.511   2.161   5.815 -0.5147 -1.5643  0.0769
 9990TIP3    H251462   2.515   2.079   5.688 -1.8996  0.6706 -1.5006
 9991TIP3   OH251463   3.184   1.559   5.067 -0.3016  0.9017  0.3540
 9991TIP3    H151464   3.268   1.565   5.021 -1.1075 -1.0446 -1.5105
 9991TIP3    H251465   3.146   1.646   5.058  1.1403  1.5925  0.5337
 9992TIP3   OH251466   2.225   3.648   3.997 -0.4795  0.2961 -0.2210
 9992TIP3    H151467   2.261   3.723   3.949  1.2471 -0.9841 -1.0402
 9992TIP3    H251468   2.250   3.663   4.088  2.4611 -0.5754 -0.7533
 9993TIP3   OH251469   2.586   3.136  13.623  0.4287  0.1448 -0.3365
 9993TIP3    H151470   2.654   3.160  13.686  0.5360 -0.4616 -0.2169
 9993TIP3    H251471   2.584   3.209  13.561  2.4143 -0.5935 -1.3535
 9994TIP3   OH251472   2.602   2.682  14.443 -0.1245  0.5558 -0.8224
 9994TIP3    H151473   2.560   2.737  14.377 -1.0403  0.3879 -0.4040
 9994TIP3    H251474   2.685   2.724  14.461 -0.0169  0.7884 -1.8363
 9995TIP3   OH251475   4.877   5.485   0.771 -0.5736 -0.0901 -0.5159
 9995TIP3    H151476   4.789   5.454   0.791 -0.1291 -0.1219  1.6370
 9995TIP3    H251477   4.880   5.573   0.807  1.0033 -0.9965  1.7993
 9996TIP3   OH251478   4.538   3.062   3.416 -0.1367 -0.4110  0.5670
 9996TIP3    H151479   4.586   2.983   3.442  0.3272 -0.1354  0.5484
 9996TIP3    H251480   4.451   3.050   3.453 -0.6511 -1.7898 -0.9451
 9997TIP3   OH251481   3.315   1.113  11.839 -0.0123 -0.0442 -0.2740
 9997TIP3    H151482   3.296   1.083  11.928  0.5384 -0.5114 -0.3068
 9997TIP3    H251483   3.276   1.046  11.783  1.8272 -1.1486 -0.3417
 9998TIP3   OH251484   6.052   6.234  10.662 -0.3714 -0.0412 -0.1703
 9998TIP3    H151485   6.003   6.253  10.743 -0.4512 -0.3098 -0.1535
 9998TIP3    H251486   6.136   6.200  10.693 -0.4431 -0.2483 -0.1965
 9999TIP3   OH251487   3.398   0.404   4.809 -0.0779  0.2242 -0.3484
 9999TIP3    H151488   3.492   0.418   4.800 -0.3888  1.6627 -2.0450
 9999TIP3    H251489   3.374   0.352   4.732 -0.3561 -2.3054  1.3328
10000TIP3   OH251490   2.523   2.718   4.560  0.5620  0.1851  0.5050
10000TIP3    H151491   2.515   2.687   4.470  0.4788 -1.7054  1.1235
10000TIP3    H251492   2.589   2.787   4.556 -0.4959  1.1742 -1.2207
10001TIP3   OH251493   5.088   1.228  16.287  0.0541 -0.0645  0.0758
10001TIP3    H151494   5.153   1.298  16.276  0.1247  0.0026  0.8639
10001TIP3    H251495   5.112   1.163  16.221  1.6464 -0.5731  1.0976
10002TIP3   OH251496   1.056   3.317  15.033  0.2422  0.4191 -0.5961
10002TIP3    H151497   0.985   3.275  14.986  0.3493  0.0532 -0.4322
10002TIP3    H251498   1.033   3.410  15.034  0.0589  0.3791 -1.0465
10003TIP3   OH251499   2.932   1.582  14.074  0.4303 -0.6394 -0.4556
10003TIP3    H151500   2.961   1.492  14.089  0.3557 -0.4573  0.9472
10003TIP3    H251501   2.837   1.578  14.075  0.4222 -0.5117  0.0004
10004TIP3   OH251502   5.944   2.788  12.596  0.3334 -0.5546  0.7351
10004TIP3    H151503   5.940   2.852  12.667 -0.0830  1.6468 -1.1647
10004TIP3    H251504   6.036   2.761  12.593  0.9690  1.4959  0.3587
10005TIP3   OH251505   1.323   6.629  11.264 -0.1137  0.0212  0.3555
10005TIP3    H151506   1.344   6.627  11.171 -0.5281  0.1073  0.2564
10005TIP3    H251507   1.231   6.656  11.267  0.1470  0.8850  0.8311
10006TIP3   OH251508   6.003   0.492   1.649  1.1695  0.0373 -0.4182
10006TIP3    H151509   6.004   0.454   1.737 -0.3600 -1.2590 -0.9037
10006TIP3    H251510   6.093   0.487   1.619  1.1261 -3.2991 -0.4240
10007TIP3   OH251511   5.336   5.863  15.557  0.1441 -0.9618  0.0431
10007TIP3    H151512   5.423   5.871  15.518 -0.5651 -3.1037 -2.2342
10007TIP3    H251513   5.279   5.915  15.500 -0.2491 -0.2176  1.0686
10008TIP3   OH251514   6.417   6.602   4.829  0.2318 -0.5231  0.5417
10008TIP3    H151515   6.474   6.679   4.835  0.5002 -0.7359  0.7653
10008TIP3    H251516   6.431   6.568   4.741 -1.6715  1.0457 -0.4238
10009TIP3   OH251517   1.842   3.240  12.962  0.2500  0.1297  0.7109
10009TIP3    H151518   1.810   3.192  12.886  1.1386  0.9328 -0.2000
10009TIP3    H251519   1.824   3.332  12.942  1.0379  0.4056  1.2034
10010TIP3   OH251520   1.451   0.985   2.581 -0.1461 -0.4285 -0.7793
10010TIP3    H151521   1.423   1.041   2.509  1.0489  0.1656 -0.8172
10010TIP3    H251522   1.507   0.919   2.540  0.2231 -0.3195 -0.4594
10011TIP3   OH251523   2.820   5.912   4.776  0.7654  0.2959 -0.1593
10011TIP3    H151524   2.795   6.004   4.771 -0.2995  0.0129 -0.3199
10011TIP3    H251525   2.777   5.872   4.700  2.6954 -0.0097 -1.1432
10012TIP3   OH251526   6.039   2.624   5.499  0.4678  0.0008 -0.0562
10012TIP3    H151527   6.096   2.621   5.576  1.7023 -0.7002 -0.9558
10012TIP3    H251528   6.007   2.535   5.489 -1.4124  0.5234  0.8366
10013TIP3   OH251529   5.207   1.375  15.669  0.0173  0.0705 -0.2843
10013TIP3    H151530   5.232   1.468  15.664  0.0258  0.0578 -0.5030
10013TIP3    H251531   5.200   1.348  15.578 -1.6394  0.2910 -0.2432
10014TIP3   OH251532   6.735   4.388  12.933 -0.3116  0.0375 -0.5805
10014TIP3    H151533   6.763   4.403  13.024  0.4657  1.5899 -1.0549
10014TIP3    H251534   6.744   4.293  12.921 -2.5043 -0.5490  1.6172
10015TIP3   OH251535   2.497   5.521  14.172  0.0816  0.2750 -0.1280
10015TIP3    H151536   2.593   5.521  14.162  0.1503 -0.3162  0.4394
10015TIP3    H251537   2.478   5.602  14.217  0.1207  1.2650 -1.8063
10016TIP3   OH251538   4.697   5.365   0.495  0.7245 -0.4045 -0.6800
10016TIP3    H151539   4.672   5.290   0.441 -0.0648 -0.4238 -0.3028
10016TIP3    H251540   4.791   5.357   0.505  0.6508 -1.3607 -0.6401
10017TIP3   OH251541   0.662   1.063  13.005 -0.0256  0.0004 -1.0123
10017TIP3    H151542   0.738   1.032  12.956  2.9736  1.9285  1.9051
10017TIP3    H251543   0.664   1.158  12.994 -1.7631  0.1304 -0.4866
10018TIP3   OH251544   5.982   1.181  14.295  0.5449  0.1963  0.3918
10018TIP3    H151545   5.952   1.151  14.209  1.0973  1.8072 -0.4258
10018TIP3    H251546   5.903   1.191  14.346 -0.1032  1.6669 -0.8078
10019TIP3   OH251547   5.630   1.354  15.193  0.5525 -0.0432 -0.0125
10019TIP3    H151548   5.688   1.278  15.180  2.5397  1.2717  0.6392
10019TIP3    H251549   5.609   1.383  15.104  0.8742 -0.5757 -0.2689
10020TIP3   OH251550   4.762   4.108  11.335 -0.2278  0.0581 -0.0768
10020TIP3    H151551   4.779   4.091  11.243  1.4544 -0.8769  0.3668
10020TIP3    H251552   4.693   4.175  11.335 -0.3350 -0.0031 -1.9851
10021TIP3   OH251553   3.657   0.703  13.789  0.0323 -0.1206 -0.1643
10021TIP3    H151554   3.606   0.782  13.809 -4.9769 -2.1563 -2.9598
10021TIP3    H251555   3.656   0.652  13.870 -1.6036  0.4005  0.1871
10022TIP3   OH251556   6.381   3.639   1.084 -0.4907 -0.3783 -0.1136
10022TIP3    H151557   6.323   3.569   1.055  0.1379 -0.3823 -1.3982
10022TIP3    H251558   6.404   3.615   1.174  0.5192 -2.3864 -0.8467
10023TIP3   OH251559   3.579   4.478  15.607  0.4701 -0.1597  0.0985
10023TIP3    H151560   3.486   4.479  15.628 -0.6183 -2.9164 -3.5967
10023TIP3    H251561   3.620   4.433  15.681 -1.3924 -0.5185  0.9689
10024TIP3   OH251562   5.178   6.020  15.857  0.0132 -0.6355 -0.1680
10024TIP3    H151563   5.158   6.110  15.881 -0.0594 -0.7864  0.3596
10024TIP3    H251564   5.123   6.002  15.781  0.5968  0.0072 -0.7493
10025TIP3   OH251565   2.219   2.434   3.039  0.3423  0.0895 -0.3936
10025TIP3    H151566   2.129   2.403   3.036  1.3278 -3.2032 -0.0468
10025TIP3    H251567   2.232   2.480   2.956 -1.3577 -0.1835 -0.8327
10026TIP3   OH251568   1.025   5.856   2.809 -0.5238  0.3110  0.8537
10026TIP3    H151569   1.054   5.792   2.744  4.1358  1.6836  1.2568
10026TIP3    H251570   0.930   5.858   2.800 -0.5364 -3.4380 -2.1230
10027TIP3   OH251571   3.636   3.707   5.472  0.1798 -0.6095 -0.4084
10027TIP3    H151572   3.576   3.745   5.407  0.5111  0.0262 -0.3530
10027TIP3    H251573   3.591   3.629   5.504  0.2727 -1.2622 -1.8248
10028TIP3   OH251574   1.547   1.960  13.485  0.1335  0.3568  0.3678
10028TIP3    H151575   1.627   1.968  13.433  0.2805  0.7624  0.6469
10028TIP3    H251576   1.551   1.872  13.522  0.7714  0.5918  0.8862
10029TIP3   OH251577   6.232   6.441  12.795 -0.5345 -0.0540 -0.4763
10029TIP3    H151578   6.174   6.372  12.829  0.7589  0.0683  2.2688
10029TIP3    H251579   6.181   6.521  12.802 -0.5740 -0.1493  0.5684
10030TIP3   OH251580   3.118   4.229  12.157 -0.2630  0.4342 -0.4939
10030TIP3    H151581   3.091   4.163  12.093  0.1910 -1.3953  1.0985
10030TIP3    H251582   3.039   4.243  12.210 -0.1910  0.7261 -0.4647
10031TIP3   OH251583   2.893   4.453   3.392 -0.4909  0.4242  0.1099
10031TIP3    H151584   2.812   4.502   3.408 -1.6239 -1.4015  0.3299
10031TIP3    H251585   2.863   4.365   3.370  1.4146  0.0902 -1.4049
10032TIP3   OH251586   4.530   5.931  16.563  0.2190 -0.9149  0.0222
10032TIP3    H151587   4.559   5.902  16.477  0.7398 -3.1452  0.8877
10032TIP3    H251588   4.487   6.015  16.547  1.6263 -0.5576 -2.1694
10033TIP3   OH251589   2.978   6.499   4.399  0.3805  0.0249  0.2121
10033TIP3    H151590   3.040   6.433   4.430  0.0654 -0.4953 -0.2488
10033TIP3    H251591   3.004   6.579   4.445  0.0934 -0.6577  1.6308
10034TIP3   OH251592   3.115   2.236   1.645 -0.3351 -0.1688  0.3807
10034TIP3    H151593   3.069   2.176   1.586  0.2292  0.5672 -0.8386
10034TIP3    H251594   3.129   2.315   1.593 -1.0065  1.0303  1.9295
10035TIP3   OH251595   3.817   0.271  12.611 -0.6266  0.7893 -0.2278
10035TIP3    H151596   3.839   0.301  12.699  1.6093  0.9267 -0.7900
10035TIP3    H251597   3.801   0.178  12.621  1.0184  0.5146  0.1416
10036TIP3   OH251598   0.492   6.829   1.348 -0.1711  0.3821 -0.0658
10036TIP3    H151599   0.573   6.835   1.397 -0.7533  1.2387  0.8118
10036TIP3    H251600   0.436   6.772   1.400 -0.9159  1.5708  0.4625
10037TIP3   OH251601   3.397   5.277  15.134  0.4849 -0.4437  0.3593
10037TIP3    H151602   3.410   5.253  15.226 -3.7814 -1.4095  0.9152
10037TIP3    H251603   3.422   5.198  15.085 -0.4887 -1.1867  1.0234
10038TIP3   OH251604   5.432   4.267   4.716  0.4606  0.1903 -0.1001
10038TIP3    H151605   5.520   4.267   4.681  0.7313  0.9185  0.5528
10038TIP3    H251606   5.376   4.289   4.642  0.9260  0.7633 -0.2856
10039TIP3   OH251607   5.815   4.580   0.822  0.4719 -0.0193  0.0595
10039TIP3    H151608   5.877   4.643   0.859  1.3126 -0.3318 -0.7531
10039TIP3    H251609   5.870   4.505   0.796  0.1270  0.5419 -2.6188
10040TIP3   OH251610   1.154   5.670   5.827  0.3289  0.3100  0.1910
10040TIP3    H151611   1.175   5.760   5.852 -1.5352  0.3563  1.7753
10040TIP3    H251612   1.076   5.679   5.772  0.2995 -0.3202  0.1294
10041TIP3   OH251613   0.294   3.871  15.385 -0.1239 -0.3125  0.2615
10041TIP3    H151614   0.217   3.908  15.429 -1.6274 -2.3804 -0.4749
10041TIP3    H251615   0.258   3.821  15.312  1.9849 -0.9540 -0.4070
10042TIP3   OH251616   6.272   0.712   0.054 -0.1918  0.3952 -0.1376
10042TIP3    H151617   6.248   0.629   0.014  1.3301 -0.3599  0.4339
10042TIP3    H251618   6.368   0.713   0.054 -0.1054  0.8602  2.3674
10043TIP3   OH251619   2.234   6.192   4.765  0.4797  0.4257  0.0682
10043TIP3    H151620   2.228   6.273   4.714  0.4275 -0.2720 -1.0795
10043TIP3    H251621   2.259   6.220   4.853 -0.8027  1.7968  0.0377
10044TIP3   OH251622   0.990   1.303  13.385 -0.3680  0.8365 -0.0130
10044TIP3    H151623   0.981   1.230  13.446 -0.3396  2.0907  1.5908
10044TIP3    H251624   1.072   1.287  13.339  0.0861  0.2942  0.9531
10045TIP3   OH251625   4.936   3.970   1.295  0.2070  0.5230 -0.0957
10045TIP3    H151626   4.848   3.972   1.258 -0.8387 -0.8315  2.0715
10045TIP3    H251627   4.952   4.059   1.326  0.0745  1.0369 -1.4359
10046TIP3   OH251628   2.103   1.966   4.892 -0.4107  0.1123  0.4383
10046TIP3    H151629   2.038   1.926   4.949  0.7548 -1.8832  0.4948
10046TIP3    H251630   2.128   1.895   4.832  2.0682  0.6260  0.7645
10047TIP3   OH251631   6.084   1.685  12.964  0.0010  0.3607  0.2756
10047TIP3    H151632   6.139   1.618  12.924  1.6867  0.9286  1.5133
10047TIP3    H251633   6.001   1.681  12.916  0.0467 -2.5429  0.2554
10048TIP3   OH251634   3.577   0.728  12.572  0.3537 -0.5709 -0.2320
10048TIP3    H151635   3.491   0.748  12.609  0.6901 -1.4540  1.0846
10048TIP3    H251636   3.579   0.775  12.489 -1.7302 -1.1802 -0.6823
10049TIP3   OH251637   5.989   1.604   4.276 -0.3140 -0.1657  0.5383
10049TIP3    H151638   6.047   1.571   4.208  0.3482 -0.3647  1.1937
10049TIP3    H251639   5.982   1.698   4.259  0.9280  0.0245  0.9731
10050TIP3   OH251640   2.777   1.931  14.356 -0.6195  0.1991 -0.4934
10050TIP3    H151641   2.747   1.845  14.325 -1.5471  0.6226 -0.8022
10050TIP3    H251642   2.783   1.985  14.277  0.6186  0.2460 -0.3910
10051TIP3   OH251643   0.797   5.045  16.804  0.2052  0.0701  0.0659
10051TIP3    H151644   0.810   5.030  16.710  0.1378 -1.5956  0.2830
10051TIP3    H251645   0.726   5.109  16.809 -0.8705 -0.9842 -1.0326
10052TIP3   OH251646   1.975   3.467  11.082 -0.2420  0.2767 -0.0981
10052TIP3    H151647   1.895   3.418  11.065  0.5647 -0.8066 -0.8949
10052TIP3    H251648   2.005   3.494  10.996 -0.3950  1.7585  0.2922
10053TIP3   OH251649   5.017   3.585   5.032 -0.4516  0.4031  0.1111
10053TIP3    H151650   5.054   3.665   5.069  0.6575 -0.6226  1.3037
10053TIP3    H251651   4.969   3.615   4.955  1.2991  2.0419 -0.4304
10054TIP3   OH251652   1.289   3.973  13.871  0.2236  0.1733  0.1184
10054TIP3    H151653   1.232   4.037  13.914  0.9165  0.7371  0.2215
10054TIP3    H251654   1.276   3.892  13.920  0.1536  0.5209  0.6835
10055TIP3   OH251655   4.454   4.877  16.861  0.4804 -0.4346  0.6019
10055TIP3    H151656   4.435   4.884  16.955 -0.1176  0.5795  0.4206
10055TIP3    H251657   4.367   4.875  16.820  0.7287  0.8893 -0.0336
10056TIP3   OH251658   4.931   1.710  13.417  0.0084  0.1245  0.4403
10056TIP3    H151659   4.974   1.687  13.499  3.9254  1.4020 -1.0219
10056TIP3    H251660   4.961   1.643  13.355  0.7986  1.6520 -0.8841
10057TIP3   OH251661   1.329   3.127  14.319 -0.0485 -0.2257 -0.6809
10057TIP3    H151662   1.389   3.182  14.269 -0.9530  0.5130 -0.9940
10057TIP3    H251663   1.365   3.039  14.313  0.3653  0.0150 -1.8396
10058TIP3   OH251664   2.829   3.086   1.460 -0.1862  0.5655 -0.9723
10058TIP3    H151665   2.787   3.056   1.541  0.6735  0.9460 -0.3691
10058TIP3    H251666   2.757   3.117   1.406 -0.7457  0.6913 -0.1775
10059TIP3   OH251667   1.197   3.476  14.200 -0.1041  0.6474 -0.2218
10059TIP3    H151668   1.287   3.492  14.230 -0.2201  1.3312 -0.2208
10059TIP3    H251669   1.203   3.474  14.104 -0.0170  0.2668 -0.2063
10060TIP3   OH251670   6.468   6.252  16.731 -0.3211 -0.1156 -0.2703
10060TIP3    H151671   6.456   6.234  16.824 -3.0950  0.8849 -0.3515
10060TIP3    H251672   6.432   6.175  16.687  0.1255 -0.1778 -0.5330
10061TIP3   OH251673   2.502   4.075  15.102  0.1477  0.1641  0.2112
10061TIP3    H151674   2.566   4.103  15.168  0.9055  1.5964 -1.0354
10061TIP3    H251675   2.420   4.114  15.130  0.4562  0.7385  0.3449
10062TIP3   OH251676   4.749   2.329  13.606 -0.0507  0.7026 -0.3968
10062TIP3    H151677   4.687   2.402  13.604 -0.3781  0.4148 -0.7522
10062TIP3    H251678   4.734   2.282  13.524 -0.3115 -0.1657  0.1403
10063TIP3   OH251679   4.681   4.369  12.244 -0.0212  0.1830  0.2063
10063TIP3    H151680   4.612   4.428  12.276 -0.8649 -1.0503  0.7726
10063TIP3    H251681   4.744   4.365  12.315 -0.6719 -0.6535  0.7636
10064TIP3   OH251682   6.240   0.171   0.676  0.6566 -0.2305 -0.0253
10064TIP3    H151683   6.300   0.098   0.663 -0.7233 -1.4386  0.0510
10064TIP3    H251684   6.210   0.161   0.767  2.1503  1.8078  0.7651
10065TIP3   OH251685   0.869   3.289  15.752 -0.0255 -0.6474 -0.5527
10065TIP3    H151686   0.804   3.324  15.691  0.5859 -1.0444 -1.4654
10065TIP3    H251687   0.937   3.252  15.695  0.8775 -0.4633  0.3775
10066TIP3   OH251688   2.865   6.742   3.488 -0.1476  0.8463  0.1302
10066TIP3    H151689   2.782   6.698   3.472  0.5107 -0.2558 -0.3838
10066TIP3    H251690   2.880   6.734   3.582  0.9682 -1.9733 -0.2057
10067TIP3   OH251691   2.168   0.305  15.406  0.7083  0.1525 -0.4625
10067TIP3    H151692   2.237   0.318  15.341  1.3670 -1.0565 -0.0399
10067TIP3    H251693   2.161   0.390  15.450  0.9616  0.6844 -1.4186
10068TIP3   OH251694   3.589   5.652  13.106  0.1078  0.2305 -0.8030
10068TIP3    H151695   3.678   5.685  13.110 -0.1735  1.0653 -1.1524
10068TIP3    H251696   3.553   5.690  13.026 -1.3503  1.9653  0.6047
10069TIP3   OH251697   6.440   3.672  13.639 -0.9432  0.2275  0.5433
10069TIP3    H151698   6.410   3.614  13.709 -1.7845 -0.1739 -0.1328
10069TIP3    H251699   6.407   3.631  13.559  0.2704  0.5130 -0.1188
10070TIP3   OH251700   5.166   4.632  11.188  0.3181 -0.1672 -0.4056
10070TIP3    H151701   5.128   4.564  11.244  2.3547 -0.0542  1.2350
10070TIP3    H251702   5.163   4.595  11.100 -1.4366 -1.0609 -0.0193
10071TIP3   OH251703   4.310   4.157  14.901  0.7034 -0.4008  0.3240
10071TIP3    H151704   4.243   4.110  14.851  1.1559  0.7941 -1.5286
10071TIP3    H251705   4.261   4.205  14.968 -0.3107  0.3294 -0.8996
10072TIP3   OH251706   5.854   6.625  12.594  0.5106  0.1919  0.0355
10072TIP3    H151707   5.784   6.613  12.529  0.3145 -0.0289  0.2823
10072TIP3    H251708   5.932   6.644  12.542  0.5256 -0.7519 -0.3090
10073TIP3   OH251709   3.677   6.850   1.561 -0.3202  0.2699  0.4121
10073TIP3    H151710   3.726   6.929   1.540  0.8583 -0.4093  0.5115
10073TIP3    H251711   3.625   6.874   1.638  1.7520  0.3261  1.8875
10074TIP3   OH251712   0.670   5.310  14.491 -0.0842  0.1288 -0.4468
10074TIP3    H151713   0.745   5.253  14.509  0.2679  0.2606 -1.4157
10074TIP3    H251714   0.651   5.352  14.575  0.4774 -0.4313 -0.0268
10075TIP3   OH251715   0.867   3.287  12.961  0.1495 -0.3623  0.1374
10075TIP3    H151716   0.906   3.213  13.008 -1.9912 -2.9606 -1.8749
10075TIP3    H251717   0.782   3.300  13.003  0.4393  0.9351  0.3715
10076TIP3   OH251718   0.343   4.931   2.298  0.5056 -0.1485  0.1210
10076TIP3    H151719   0.436   4.954   2.294  0.1315  1.4935  0.3352
10076TIP3    H251720   0.297   5.014   2.289 -0.9111 -0.6804  1.8270
10077TIP3   OH251721   6.260   3.303  14.208  0.2054  0.4069 -0.4512
10077TIP3    H151722   6.179   3.354  14.204  0.2849  0.6524  0.6116
10077TIP3    H251723   6.252   3.240  14.136 -1.2842 -0.0641  0.0655
10078TIP3   OH251724   6.616   0.114   2.143  0.0041 -0.3830 -0.2226
10078TIP3    H151725   6.538   0.069   2.111 -0.0643 -0.5125  0.1205
10078TIP3    H251726   6.688   0.076   2.094  0.2114 -2.3425  1.4608
10079TIP3   OH251727   4.805   1.290  11.732  0.4857 -0.1267 -0.4038
10079TIP3    H151728   4.764   1.348  11.669 -0.2991 -0.2795 -0.0417
10079TIP3    H251729   4.808   1.341  11.814  0.6655 -0.2542 -0.3292
10080TIP3   OH251730   0.188   3.044  16.618 -0.2187  0.3474 -0.3534
10080TIP3    H151731   0.153   2.955  16.625 -0.1434  0.4035  1.2938
10080TIP3    H251732   0.110   3.098  16.603 -0.5089  0.1733  0.4473
10081TIP3   OH251733   0.483   2.467   0.987  0.2909 -0.7075  0.3290
10081TIP3    H151734   0.492   2.516   0.905 -0.7386 -0.2710  0.4607
10081TIP3    H251735   0.400   2.497   1.024 -0.2413 -2.3675  0.5560
10082TIP3   OH251736   5.473   0.141   3.421 -0.0735 -0.7955  0.3368
10082TIP3    H151737   5.462   0.226   3.462 -0.3973 -1.8098  2.4659
10082TIP3    H251738   5.404   0.137   3.355 -0.5565  0.2577  0.7533
10083TIP3   OH251739   3.233   0.351  15.370 -0.1005 -0.0021 -0.3438
10083TIP3    H151740   3.265   0.411  15.437  1.0450  0.4547 -1.2590
10083TIP3    H251741   3.142   0.335  15.394 -0.7415  2.8003 -0.5439
10084TIP3   OH251742   5.609   4.511  15.599  0.1142 -0.4312  0.1446
10084TIP3    H151743   5.604   4.474  15.687 -1.2199 -0.6345  0.0018
10084TIP3    H251744   5.609   4.436  15.541 -2.5355 -0.2896 -0.1429
10085TIP3   OH251745   2.143   6.422  16.377  0.4049  0.4443 -0.2205
10085TIP3    H151746   2.217   6.479  16.399  1.4195 -0.4742 -1.1567
10085TIP3    H251747   2.179   6.334  16.380 -1.0960 -0.1658  0.9718
10086TIP3   OH251748   5.919   3.381  15.704  0.5193 -0.0725 -0.1069
10086TIP3    H151749   5.894   3.457  15.651  0.1140 -1.1442 -1.5173
10086TIP3    H251750   5.991   3.340  15.655  0.7520 -0.5789  0.6407
10087TIP3   OH251751   2.627   3.690  12.031 -0.0240 -0.0664  0.1118
10087TIP3    H151752   2.602   3.779  12.006  1.0484  0.4198  0.6887
10087TIP3    H251753   2.680   3.658  11.958  1.7435  0.7518  0.9685
10088TIP3   OH251754   4.436   1.362   5.473 -0.3459  0.7656 -0.7648
10088TIP3    H151755   4.355   1.381   5.426  0.5407  2.4851 -1.6842
10088TIP3    H251756   4.498   1.338   5.405  0.5138  1.6611 -0.3181
10089TIP3   OH251757   1.060   1.087  11.527 -0.6928 -0.2346  0.1758
10089TIP3    H151758   1.024   1.034  11.597  1.7726 -0.3312  1.4501
10089TIP3    H251759   1.064   1.028  11.451  1.7499 -1.9181  1.4885
10090TIP3   OH251760   0.917   6.181   3.098 -0.0215  0.2758  0.0108
10090TIP3    H151761   0.961   6.124   3.160 -1.5682  1.2110  2.0878
10090TIP3    H251762   0.872   6.122   3.038  0.9445 -0.6418  0.1728
10091TIP3   OH251763   3.411   6.630  10.112 -0.3266  0.1612  0.6111
10091TIP3    H151764   3.462   6.558  10.074  0.7815  0.5994  1.2172
10091TIP3    H251765   3.400   6.692  10.040 -0.3824 -0.1340  0.3624
10092TIP3   OH251766   2.389   5.730  15.449  0.3875  0.0655  0.1136
10092TIP3    H151767   2.416   5.692  15.533  1.2524  0.8476  0.2121
10092TIP3    H251768   2.431   5.816  15.447  0.8340 -0.1511 -1.3611
10093TIP3   OH251769   2.860   6.418  13.451  0.0807 -0.1242  0.1031
10093TIP3    H151770   2.838   6.331  13.419  0.4483 -0.8742  1.7823
10093TIP3    H251771   2.817   6.478  13.390 -0.5160 -1.4681 -0.8436
10094TIP3   OH251772   2.545   2.836  12.731 -0.7928 -0.2433 -0.0536
10094TIP3    H151773   2.591   2.848  12.814 -1.7699  1.1950  0.3262
10094TIP3    H251774   2.465   2.887  12.741 -1.5746 -1.1456 -1.3956
10095TIP3   OH251775   5.231   0.195   3.274  0.4737  0.4363  0.0327
10095TIP3    H151776   5.156   0.143   3.304  0.9706 -0.2931  0.0118
10095TIP3    H251777   5.192   0.278   3.246 -0.3867 -0.0988 -0.3932
10096TIP3   OH251778   6.541   3.116  14.032 -0.6277  0.3784  0.6592
10096TIP3    H151779   6.602   3.053  13.994  0.4003  1.3456  0.6504
10096TIP3    H251780   6.515   3.077  14.115  2.2839  1.1835  2.0862
10097TIP3   OH251781   2.663   2.290  15.294  0.7525 -0.1892  0.0196
10097TIP3    H151782   2.618   2.208  15.312 -1.3201  0.4903 -1.7149
10097TIP3    H251783   2.721   2.270  15.220  0.5325 -0.1750 -0.1564
10098TIP3   OH251784   5.201   1.424  14.453 -0.0493 -0.0398 -0.3771
10098TIP3    H151785   5.136   1.483  14.490 -0.0735  0.3027 -0.9513
10098TIP3    H251786   5.155   1.377  14.383  0.1055 -0.3820 -0.2544
10099TIP3   OH251787   0.370   3.049   1.770  0.1864 -0.4231  0.6190
10099TIP3    H151788   0.436   2.996   1.725 -0.1202 -0.3826  0.1059
10099TIP3    H251789   0.409   3.070   1.855  0.4537 -1.1781  0.6890
10100TIP3   OH251790   6.229   2.274   0.653  0.2668  0.2739  0.1975
10100TIP3    H151791   6.276   2.352   0.682  1.0714 -0.1978  0.1830
10100TIP3    H251792   6.266   2.255   0.566 -1.9160  1.5188 -1.0954
10101TIP3   OH251793   0.129   6.126  16.364  0.0619 -0.1180 -0.7564
10101TIP3    H151794   0.220   6.127  16.336  0.3926 -0.7000  0.2589
10101TIP3    H251795   0.113   6.036  16.392 -0.5767  0.1784 -0.1423
10102TIP3   OH251796   5.200   1.384  16.686  0.2838  0.1956 -0.1694
10102TIP3    H151797   5.140   1.320  16.649  0.4297 -0.5889  0.9093
10102TIP3    H251798   5.271   1.390  16.622 -0.7968  0.9645 -1.3431
10103TIP3   OH251799   4.962   4.523  15.532  0.3394 -0.3631  0.0421
10103TIP3    H151800   4.921   4.486  15.454 -0.8869 -1.8874  1.3243
10103TIP3    H251801   5.029   4.582  15.499 -0.7309 -0.2833 -2.1474
10104TIP3   OH251802   2.406   1.001  13.659  0.5749 -0.0969  0.0192
10104TIP3    H151803   2.351   0.931  13.695  0.6011  1.0212  2.4331
10104TIP3    H251804   2.424   1.058  13.734  0.8135  2.3408 -1.7681
10105TIP3   OH251805   2.712   3.981  14.195  0.4177 -0.0544 -0.0099
10105TIP3    H151806   2.716   3.892  14.231  2.0404 -0.0790 -0.1845
10105TIP3    H251807   2.690   3.968  14.103 -1.3303 -0.1324  0.3891
10106TIP3   OH251808   2.954   2.194   0.639 -0.3393 -0.1906 -0.0260
10106TIP3    H151809   2.915   2.202   0.552  1.6173  0.4677 -0.9092
10106TIP3    H251810   3.004   2.112   0.636 -0.7975 -0.5195  0.7440
10107TIP3   OH251811   1.534   0.699  16.015 -0.0771  0.3634 -0.4775
10107TIP3    H151812   1.521   0.760  16.088 -2.8278  1.7032 -1.9488
10107TIP3    H251813   1.470   0.629  16.031  0.1141  0.0614 -1.0093
10108TIP3   OH251814   3.278   6.220   1.056  0.5468 -0.2254 -0.1888
10108TIP3    H151815   3.291   6.185   0.968 -0.2379 -1.3593  0.1195
10108TIP3    H251816   3.325   6.304   1.056  3.0249 -1.5197 -0.7789
10109TIP3   OH251817   4.487   2.458   3.649 -0.1154 -0.1430 -0.3006
10109TIP3    H151818   4.572   2.417   3.661 -0.1322 -0.4015 -0.9894
10109TIP3    H251819   4.493   2.502   3.564 -0.5405  0.1554 -0.1800
10110TIP3   OH251820   0.093   1.859  17.143 -0.7489  0.0930  0.1641
10110TIP3    H151821   0.172   1.913  17.136 -0.8059  0.5650  2.4812
10110TIP3    H251822   0.125   1.770  17.129  0.2046  0.2937  0.9191
10111TIP3   OH251823   0.939   4.691   1.563  0.2275  0.1547 -0.0525
10111TIP3    H151824   0.977   4.776   1.541 -0.8232  0.6478 -0.0469
10111TIP3    H251825   1.000   4.652   1.625  0.8050  0.8315 -0.1891
10112TIP3   OH251826   4.312   2.932  12.506 -0.4331  0.0658  0.2429
10112TIP3    H151827   4.286   3.006  12.452 -0.4221  0.7088  1.1022
10112TIP3    H251828   4.262   2.858  12.472 -0.6574  0.5295 -0.4390
10113TIP3   OH251829   2.731   0.927   3.335  0.0860 -0.3706 -0.2781
10113TIP3    H151830   2.672   0.888   3.271 -0.1872 -0.3544 -0.0389
10113TIP3    H251831   2.696   1.015   3.349 -1.7380 -1.3643  2.1953
10114TIP3   OH251832   4.255   1.793  13.200 -0.4108 -0.0023 -0.0454
10114TIP3    H151833   4.242   1.823  13.110 -1.9235  0.5470  0.3188
10114TIP3    H251834   4.179   1.737  13.217 -0.7797  0.8633  1.2686
10115TIP3   OH251835   3.151   3.062   4.579 -0.0181  0.1432  0.4410
10115TIP3    H151836   3.180   3.153   4.576 -1.3135  0.6417  1.8514
10115TIP3    H251837   3.221   3.017   4.626  1.5536 -0.0359 -1.8977
10116TIP3   OH251838   1.849   1.676  12.217  0.0020  0.1641 -0.2281
10116TIP3    H151839   1.792   1.669  12.141 -0.6645 -0.2531  0.2903
10116TIP3    H251840   1.936   1.692  12.181 -0.3903  0.5247 -1.0484
10117TIP3   OH251841   3.124   1.013   3.272 -0.2865 -0.1812 -0.2112
10117TIP3    H151842   3.090   1.033   3.185 -1.7499  1.0963  0.6122
10117TIP3    H251843   3.052   0.967   3.315 -1.0551  2.4768  1.5380
10118TIP3   OH251844   3.022   6.450   5.044 -0.3535 -0.0926 -0.8130
10118TIP3    H151845   3.111   6.444   5.010  0.6235  1.6095  1.2066
10118TIP3    H251846   3.016   6.381   5.109 -0.6980 -0.5233 -1.2953
10119TIP3   OH251847   4.790   6.380   0.580 -0.0282 -0.4857  0.1666
10119TIP3    H151848   4.743   6.319   0.523  1.2770 -0.2640 -1.2237
10119TIP3    H251849   4.845   6.323   0.635 -0.5098 -0.6492  0.4882
10120TIP3   OH251850   1.153   5.299  16.902 -0.1377  0.2203  0.1470
10120TIP3    H151851   1.133   5.215  16.942 -1.4806  1.2213  1.7178
10120TIP3    H251852   1.068   5.337  16.880  0.4282  1.1878 -0.4720
10121TIP3   OH251853   2.086   3.979   5.898 -0.2980  0.7138 -0.1417
10121TIP3    H151854   2.163   3.985   5.843  0.7989 -1.6376  0.9633
10121TIP3    H251855   2.104   4.037   5.972  1.3386 -1.1125  1.0054
10122TIP3   OH251856   3.990   3.934   1.933 -0.0350  0.2141  0.0437
10122TIP3    H151857   4.066   3.893   1.973  0.5858  2.3351  1.1542
10122TIP3    H251858   3.996   4.026   1.957 -2.0901  0.7478 -1.2060
10123TIP3   OH251859   0.918   0.941  13.483  0.2343 -0.1640  0.4025
10123TIP3    H151860   0.885   0.908  13.567  0.6897  0.4109  0.8165
10123TIP3    H251861   0.997   0.991  13.506  0.1890  0.2659 -0.3354
10124TIP3   OH251862   0.006   5.309  14.068  0.1643  0.2228  0.3055
10124TIP3    H151863   0.033   5.351  14.149  0.2247 -0.6390  0.7497
10124TIP3    H251864   0.008   5.215  14.088  0.7806 -0.0361 -0.8718
10125TIP3   OH251865   6.156   2.012  12.638  0.3571  0.3771  0.1318
10125TIP3    H151866   6.094   1.954  12.682  0.8154 -0.0780  0.1800
10125TIP3    H251867   6.212   1.954  12.587 -0.1541  0.8813 -1.0703
10126TIP3   OH251868   5.217   6.575  17.022  0.0656 -0.1519  0.1215
10126TIP3    H151869   5.281   6.527  17.075  0.2766 -0.2537 -0.2222
10126TIP3    H251870   5.270   6.624  16.959 -0.1712  0.1808  0.1804
10127TIP3   OH251871   6.103   3.145   4.825  0.2135  0.7468  0.5085
10127TIP3    H151872   6.050   3.191   4.760  1.0305  0.8230 -0.1192
10127TIP3    H251873   6.191   3.180   4.814  0.0017  2.4408  3.2277
10128TIP3   OH251874   4.806   5.916   6.038  0.1358 -0.1128 -0.3294
10128TIP3    H151875   4.749   5.846   6.071 -0.3812  0.7040  0.5621
10128TIP3    H251876   4.854   5.947   6.115  0.3109  0.5587 -0.6979
10129TIP3   OH251877   0.631   3.909  16.042 -0.0557  0.2011 -0.2820
10129TIP3    H151878   0.549   3.933  16.084  0.1839  0.2794  0.1511
10129TIP3    H251879   0.633   3.961  15.962  0.8972  2.4839  1.1044
10130TIP3   OH251880   2.716   1.031  15.074 -0.3428  0.7179  0.0774
10130TIP3    H151881   2.626   1.019  15.106  0.0200  0.3752  1.0203
10130TIP3    H251882   2.753   1.098  15.132 -0.4302  1.9622 -1.2470
10131TIP3   OH251883   5.950   6.110  15.270  0.2214  0.3123 -0.3673
10131TIP3    H151884   5.978   6.021  15.289  0.7103  0.6456  0.5565
10131TIP3    H251885   6.018   6.146  15.214  0.0338  0.1128 -0.7231
10132TIP3   OH251886   6.172   3.154   2.224 -0.1935  0.1995  0.3688
10132TIP3    H151887   6.231   3.151   2.148 -0.3746 -1.4872  0.2662
10132TIP3    H251888   6.200   3.081   2.278  0.2441  1.6526  2.2165
10133TIP3   OH251889   3.463   5.811  15.101 -0.3604 -0.2780  0.0966
10133TIP3    H151890   3.450   5.806  15.196  1.1396 -2.8380  0.2628
10133TIP3    H251891   3.555   5.837  15.090 -0.3992 -0.4137 -0.6332
10134TIP3   OH251892   0.398   1.236  12.832 -0.5478  0.0327 -0.3644
10134TIP3    H151893   0.357   1.180  12.899  0.1627  0.3319  0.3285
10134TIP3    H251894   0.426   1.174  12.764  0.1120 -0.4551  0.3336
10135TIP3   OH251895   6.629   3.603  14.595  0.3185  0.8351  0.1625
10135TIP3    H151896   6.590   3.518  14.611 -0.6777  1.0909 -0.7549
10135TIP3    H251897   6.588   3.661  14.659 -0.2458  0.9380 -0.2758
10136TIP3   OH251898   3.777   2.992   0.096 -0.3241  0.5409  0.6837
10136TIP3    H151899   3.840   3.064   0.095 -1.0639  1.2841  2.9183
10136TIP3    H251900   3.829   2.915   0.074  0.6074  1.6188 -1.1332
10137TIP3   OH251901   3.524   3.329   4.836  0.2307  0.5823 -0.8278
10137TIP3    H151902   3.519   3.316   4.742 -0.6412 -0.5581 -0.6527
10137TIP3    H251903   3.609   3.294   4.861  0.3393  0.6076 -1.1596
10138TIP3   OH251904   5.978   1.527   1.482 -0.0250  0.0758 -0.7350
10138TIP3    H151905   6.036   1.452   1.470  0.1031 -0.1705  1.1385
10138TIP3    H251906   5.944   1.518   1.571 -0.7434  1.7385 -0.7890
10139TIP3   OH251907   2.937   5.776   4.175 -0.1059  0.6155 -0.1383
10139TIP3    H151908   2.971   5.735   4.255 -2.4383  0.9185  1.0871
10139TIP3    H251909   2.935   5.869   4.196 -0.7268  0.6994 -0.5644
10140TIP3   OH251910   2.024   5.031  13.742  0.2719 -0.1437  0.2577
10140TIP3    H151911   2.088   5.071  13.684 -1.5591  1.6121 -0.7055
10140TIP3    H251912   2.049   4.939  13.746  1.6150  0.0634 -1.7251
10141TIP3   OH251913   5.225   2.493   6.473  0.2421 -0.1784 -0.6889
10141TIP3    H151914   5.245   2.400   6.489 -0.8864 -0.3856 -0.3950
10141TIP3    H251915   5.146   2.510   6.524 -0.4116  0.5562 -1.8809
10142TIP3   OH251916   5.312   1.718   5.722 -0.0950  0.2871 -0.1186
10142TIP3    H151917   5.299   1.708   5.816 -0.7908 -0.2307 -0.2647
10142TIP3    H251918   5.405   1.739   5.713  0.1656 -0.4977  0.6237
10143TIP3   OH251919   5.077   4.511   5.404 -0.3209  0.2846  0.2802
10143TIP3    H151920   5.049   4.419   5.396  0.8743  0.0813 -2.8192
10143TIP3    H251921   5.145   4.509   5.471  1.1427 -1.5426 -1.1451
10144TIP3   OH251922   2.451   1.339  15.416 -0.1203 -0.1592  0.5302
10144TIP3    H151923   2.487   1.256  15.385 -0.2161  0.6251 -1.8457
10144TIP3    H251924   2.359   1.319  15.435 -0.8856 -0.1103 -2.5912
10145TIP3   OH251925   6.769   0.981  14.969  0.5153 -0.5320 -0.3761
10145TIP3    H151926   6.757   0.906  14.910  0.5119 -1.1693  0.4267
10145TIP3    H251927   6.800   0.943  15.051  0.4762  0.3432  0.0547
10146TIP3   OH251928   2.714   1.476  14.216 -0.1346  0.1357 -0.1610
10146TIP3    H151929   2.686   1.387  14.192  1.1401 -0.5970  0.9665
10146TIP3    H251930   2.772   1.464  14.291  0.2526  1.9145 -0.1303
10147TIP3   OH251931   6.188   0.915   6.052  0.3997  1.1029  0.3207
10147TIP3    H151932   6.108   0.869   6.028  0.1038  2.3235 -1.1935
10147TIP3    H251933   6.183   0.926   6.147 -1.0050  0.7664  0.2932
10148TIP3   OH251934   0.784   5.517   3.307 -0.7746 -0.4549 -0.4329
10148TIP3    H151935   0.745   5.525   3.219 -0.8901  0.9382 -0.2821
10148TIP3    H251936   0.878   5.522   3.292 -0.8250  1.7177 -0.3626
10149TIP3   OH251937   2.473   3.276  16.594 -0.1862  0.0921  0.4668
10149TIP3    H151938   2.414   3.345  16.563 -0.9111 -0.2545  1.0418
10149TIP3    H251939   2.561   3.312  16.581 -0.5597  1.4658  1.5142
10150TIP3   OH251940   6.307   0.399   3.784 -0.1224 -0.2887 -0.0442
10150TIP3    H151941   6.270   0.311   3.782  0.7601 -0.6698 -0.6162
10150TIP3    H251942   6.243   0.454   3.738 -0.2497 -0.8216 -0.5222
10151TIP3   OH251943   5.164   1.274   3.573  0.0395 -0.2542  0.3375
10151TIP3    H151944   5.173   1.340   3.642 -0.3491 -0.8545  0.9833
10151TIP3    H251945   5.098   1.311   3.514 -0.6062 -0.3080  1.0074
10152TIP3   OH251946   4.306   0.547  14.657 -0.3976 -0.3897 -0.7000
10152TIP3    H151947   4.329   0.455  14.669 -0.9889 -0.5905 -1.0919
10152TIP3    H251948   4.220   0.546  14.615  0.1378  0.3327 -1.8756
10153TIP3   OH251949   4.537   4.370  14.410  0.4625 -0.3230 -0.1318
10153TIP3    H151950   4.596   4.445  14.412  0.5527 -0.4081  1.0519
10153TIP3    H251951   4.546   4.330  14.496 -1.0283 -0.5654 -0.0574
10154TIP3   OH251952   2.128   5.559  14.618  0.0176 -0.0558 -0.1026
10154TIP3    H151953   2.203   5.616  14.602 -0.2554  0.9848  1.9396
10154TIP3    H251954   2.139   5.532  14.710  0.0279 -3.1933 -0.9170
10155TIP3   OH251955   0.205   1.112  12.997  0.3553  0.6510  0.3203
10155TIP3    H151956   0.114   1.138  13.011 -0.1494 -0.8775  0.0424
10155TIP3    H251957   0.217   1.036  13.053  2.0012  1.8214  1.6585
10156TIP3   OH251958   5.403   6.482   3.593  0.6039 -0.0094 -0.5489
10156TIP3    H151959   5.310   6.481   3.572  0.0457 -1.0183  1.6936
10156TIP3    H251960   5.421   6.574   3.616  0.3568  0.3185 -1.5847
10157TIP3   OH251961   2.646   4.768  11.304  0.4374 -0.6810  0.3642
10157TIP3    H151962   2.647   4.808  11.391 -1.0983  0.5792 -0.1513
10157TIP3    H251963   2.571   4.709  11.307  1.2213 -1.7183  0.3083
10158TIP3   OH251964   4.536   0.226   2.836 -0.1447  0.4187 -0.1865
10158TIP3    H151965   4.527   0.178   2.754  0.9816  1.1572 -0.7773
10158TIP3    H251966   4.490   0.173   2.900  0.5615 -1.1432 -0.9207
10159TIP3   OH251967   4.016   3.539  15.153 -0.2179 -0.6369  0.2026
10159TIP3    H151968   4.052   3.570  15.070 -1.1849  1.8753  0.6558
10159TIP3    H251969   3.975   3.616  15.192 -1.3756 -2.1688  2.1847
10160TIP3   OH251970   5.230   1.739  15.316 -0.3578 -0.4371  0.1358
10160TIP3    H151971   5.201   1.649  15.308  1.4779 -1.1282  0.6825
10160TIP3    H251972   5.200   1.767  15.402 -0.6756 -0.6189  0.0861
10161TIP3   OH251973   1.618   6.130  12.711  0.4305 -0.4743  0.8604
10161TIP3    H151974   1.563   6.089  12.644 -0.2070 -0.3095  1.2789
10161TIP3    H251975   1.570   6.120  12.792  2.1507 -2.5355  1.7074
10162TIP3   OH251976   1.586   6.724   0.655  0.1516 -0.2205  0.3240
10162TIP3    H151977   1.621   6.659   0.716  2.5221  0.1953 -0.4857
10162TIP3    H251978   1.605   6.687   0.568  0.1860  0.8697 -0.1460
10163TIP3   OH251979   3.976   5.862  16.515  0.0427 -0.0333 -0.1232
10163TIP3    H151980   4.069   5.878  16.504 -0.2568  2.0925  0.1590
10163TIP3    H251981   3.939   5.871  16.428 -0.0519  0.2252 -0.0562
10164TIP3   OH251982   5.326   0.863  11.671 -0.1316 -0.1571 -0.4015
10164TIP3    H151983   5.243   0.841  11.714 -0.7301  1.3441 -0.7026
10164TIP3    H251984   5.380   0.785  11.682 -1.2701 -0.8588  0.5700
10165TIP3   OH251985   1.238   4.659  14.119  0.1964  0.2745 -0.2136
10165TIP3    H151986   1.150   4.677  14.151 -0.0275  0.4268 -0.9032
10165TIP3    H251987   1.247   4.564  14.128 -0.4696  0.1030 -1.1904
10166TIP3   OH251988   3.751   4.019   3.706 -0.3011  0.7267 -0.3245
10166TIP3    H151989   3.778   3.949   3.765  1.3792  0.8928 -0.8415
10166TIP3    H251990   3.812   4.012   3.632 -1.9001  0.9600 -1.7298
10167TIP3   OH251991   2.669   6.701  10.563  0.0787  1.0061  0.6179
10167TIP3    H151992   2.719   6.659  10.492 -1.3858  1.5564 -0.8112
10167TIP3    H251993   2.627   6.776  10.521 -1.7368  0.6950  1.7881
10168TIP3   OH251994   3.360   0.461   3.134  0.8842  0.2054  0.2416
10168TIP3    H151995   3.398   0.539   3.094 -0.0491  0.5642  0.0251
10168TIP3    H251996   3.294   0.432   3.071  0.4275 -0.0884  0.8491
10169TIP3   OH251997   5.240   4.010  10.487 -0.1126  0.4529  0.2115
10169TIP3    H151998   5.256   4.097  10.451  0.0488  1.0927  1.7596
10169TIP3    H251999   5.298   3.953  10.438  1.1664  1.5160  0.4300
10170TIP3   OH252000   2.520   5.862  13.061 -0.0893 -0.0715 -0.0313
10170TIP3    H152001   2.592   5.884  13.001 -0.7369 -0.6033 -1.0120
10170TIP3    H252002   2.506   5.768  13.048 -0.7568 -0.0317  0.3846
10171TIP3   OH252003   2.852   4.835  13.486 -0.1234 -0.0688 -0.0933
10171TIP3    H152004   2.785   4.818  13.419 -0.3341  1.2926 -0.2537
10171TIP3    H252005   2.920   4.884  13.441  0.7427 -0.9568  0.2109
10172TIP3   OH252006   2.094   2.336  14.813 -0.2138  0.3253 -0.0306
10172TIP3    H152007   2.189   2.339  14.807 -0.2322  1.3654 -0.0303
10172TIP3    H252008   2.068   2.427  14.827 -1.1592 -0.0463  0.7705
10173TIP3   OH252009   2.361   1.599  14.252 -0.6156 -0.4909  0.2225
10173TIP3    H152010   2.413   1.522  14.228  0.1932  0.3458 -0.7834
10173TIP3    H252011   2.347   1.645  14.169 -1.4149  0.2504  0.7548
10174TIP3   OH252012   1.043   3.471   5.183 -0.0543  0.3895 -0.3388
10174TIP3    H152013   0.995   3.460   5.265 -2.1626  1.1071 -1.4164
10174TIP3    H252014   0.996   3.417   5.120  2.8805 -2.0212 -0.6986
10175TIP3   OH252015   5.371   2.741  16.954 -0.2308 -0.6045  0.0021
10175TIP3    H152016   5.417   2.671  16.908  0.4032  0.2790 -0.7603
10175TIP3    H252017   5.433   2.814  16.953 -0.4585 -0.3547  1.7147
10176TIP3   OH252018   6.632   3.173  10.853 -0.8076  0.0222  0.3048
10176TIP3    H152019   6.540   3.149  10.849 -1.5635  2.6263 -0.3828
10176TIP3    H252020   6.669   3.144  10.770 -2.3592  3.3490 -1.7526
10177TIP3   OH252021   1.511   1.078   1.044 -1.1485  0.4661 -0.2032
10177TIP3    H152022   1.417   1.092   1.040 -1.4224 -1.0265  0.2120
10177TIP3    H252023   1.528   1.054   1.135 -0.3765  0.6948 -0.2825
10178TIP3   OH252024   6.453   2.700   0.205 -0.1007 -0.2438 -0.2720
10178TIP3    H152025   6.454   2.715   0.110 -2.4669  0.3276 -0.2533
10178TIP3    H252026   6.442   2.605   0.213 -0.6178 -0.2146 -0.5872
10179TIP3   OH252027   6.450   0.402   5.159  0.5170 -0.4720 -0.7079
10179TIP3    H152028   6.397   0.448   5.224  1.3813  1.2920 -1.2002
10179TIP3    H252029   6.400   0.323   5.139 -0.1123 -0.7315  1.5634
10180TIP3   OH252030   5.222   5.485   0.959 -0.7100  0.5459 -0.3745
10180TIP3    H152031   5.222   5.403   0.910  1.8682 -1.4815  2.6414
10180TIP3    H252032   5.145   5.479   1.015 -0.0336 -0.2821  0.4830
10181TIP3   OH252033   6.046   5.107   5.763 -0.3259 -0.2475 -0.2420
10181TIP3    H152034   6.074   5.194   5.734 -1.6332 -0.3099 -1.8141
10181TIP3    H252035   6.084   5.098   5.851 -0.6912  2.1516  0.2265
10182TIP3   OH252036   5.799   0.508   4.137 -0.0798 -0.5527  0.3732
10182TIP3    H152037   5.866   0.451   4.099  0.0752 -0.1833  0.0914
10182TIP3    H252038   5.718   0.458   4.129  0.1099 -0.8831  0.4575
10183TIP3   OH252039   5.663   5.091   0.481 -0.1733  0.1021 -0.0572
10183TIP3    H152040   5.576   5.081   0.519 -0.6340  1.1953 -0.7933
10183TIP3    H252041   5.723   5.074   0.554 -1.0283  2.4842  1.3075
10184TIP3   OH252042   2.217   4.214   4.597 -0.0612  0.2005 -0.1234
10184TIP3    H152043   2.241   4.158   4.670 -1.2327  0.3845  0.4167
10184TIP3    H252044   2.122   4.208   4.592 -0.0354  0.4600 -1.4231
10185TIP3   OH252045   6.619   3.467  16.515 -0.2521 -0.1188 -0.4684
10185TIP3    H152046   6.558   3.411  16.564  1.6573 -1.6093  0.3500
10185TIP3    H252047   6.648   3.413  16.442 -0.7814  1.0115 -1.5488
10186TIP3   OH252048   5.295   3.009   2.040 -0.1407 -0.2128 -0.0928
10186TIP3    H152049   5.294   3.018   1.945 -0.2159  2.8208  0.1136
10186TIP3    H252050   5.227   3.068   2.071 -1.1686 -2.2383  1.8542
10187TIP3   OH252051   0.024   3.592  14.658  0.0852  0.4590  0.3458
10187TIP3    H152052  -0.065   3.620  14.637 -0.8986 -1.8827  1.0072
10187TIP3    H252053   0.052   3.541  14.583  0.0319 -0.5192  0.9689
10188TIP3   OH252054   5.324   1.656  10.565  0.0084 -0.4499 -0.1008
10188TIP3    H152055   5.391   1.626  10.503 -1.0418 -0.2547 -1.3717
10188TIP3    H252056   5.293   1.739  10.528 -0.4505 -0.1866  0.8492
10189TIP3   OH252057   4.493   4.619   2.520  0.0059  0.3907 -0.0544
10189TIP3    H152058   4.462   4.563   2.449  2.6617 -1.6619  0.2531
10189TIP3    H252059   4.427   4.609   2.589 -1.6771  0.9968 -1.5041
10190TIP3   OH252060   6.746   3.556  15.320  0.9174  0.5260 -0.3714
10190TIP3    H152061   6.755   3.481  15.261  0.6731 -0.5756  0.9434
10190TIP3    H252062   6.685   3.614  15.276  2.1456  0.6115 -2.0458
10191TIP3   OH252063   2.712   4.365   1.478  0.2295 -0.0469  0.1149
10191TIP3    H152064   2.646   4.394   1.416  0.2860 -0.8057 -0.3150
10191TIP3    H252065   2.774   4.438   1.484  0.6791 -0.2653 -1.3758
10192TIP3   OH252066   5.723   4.139   4.802 -0.2512 -0.3070 -0.0940
10192TIP3    H152067   5.639   4.099   4.824 -0.8701  1.3862  0.8211
10192TIP3    H252068   5.726   4.138   4.707 -1.0017 -0.9817 -0.1191
10193TIP3   OH252069   4.539   2.888  16.529  0.3407  0.5637  0.2908
10193TIP3    H152070   4.449   2.919  16.523  0.7578  1.6770 -0.5559
10193TIP3    H252071   4.572   2.928  16.610  0.0959  0.1798  0.5863
10194TIP3   OH252072   2.823   2.594  10.718  0.8894  0.1444  0.0670
10194TIP3    H152073   2.791   2.609  10.807  0.8408  0.0796  0.0601
10194TIP3    H252074   2.792   2.671  10.669  3.6297  1.8522  0.8009
10195TIP3   OH252075   0.040   3.788   4.256  0.4162 -0.4511 -0.5815
10195TIP3    H152076   0.135   3.799   4.258  0.5094 -1.2645 -0.2512
10195TIP3    H252077   0.018   3.754   4.343 -0.1049 -0.8643 -0.8716
10196TIP3   OH252078   0.977   6.773   3.366  0.3701  0.2528  0.3819
10196TIP3    H152079   0.951   6.783   3.274  0.3506 -1.2959  0.1833
10196TIP3    H252080   0.905   6.811   3.416  0.7095  1.7620 -0.2356
10197TIP3   OH252081   0.441   0.941  13.122 -0.0141 -0.2014 -0.3702
10197TIP3    H152082   0.514   0.983  13.075  0.9530 -0.8807  0.4895
10197TIP3    H252083   0.391   1.014  13.159 -0.1890  0.3007 -1.5437
10198TIP3   OH252084   6.460   5.736   4.237  0.2869  0.4325 -0.2129
10198TIP3    H152085   6.482   5.669   4.172 -1.0760 -1.6304  1.3072
10198TIP3    H252086   6.540   5.787   4.248  1.5385 -1.2556 -1.0826
10199TIP3   OH252087   4.589   6.104   3.986  0.7759 -0.0424  0.3337
10199TIP3    H152088   4.613   6.123   4.077  1.7480 -1.9232  0.5238
10199TIP3    H252089   4.639   6.026   3.964 -1.7300 -1.4330 -0.8369
10200TIP3   OH252090   4.520   0.383  16.399 -0.5920 -0.3182 -0.2439
10200TIP3    H152091   4.518   0.479  16.399  0.4595 -0.2936 -0.3277
10200TIP3    H252092   4.541   0.359  16.309  0.4931 -0.5875  0.0704
10201TIP3   OH252093   5.888   4.396  12.705 -0.2045  0.0553  0.1722
10201TIP3    H152094   5.896   4.491  12.697 -1.5411  0.2658  1.1435
10201TIP3    H252095   5.978   4.364  12.695  0.3170  1.4490  0.2032
10202TIP3   OH252096   1.742   1.789  12.437  0.4101 -0.4326  0.1840
10202TIP3    H152097   1.779   1.723  12.378 -2.0017 -1.6622 -0.0348
10202TIP3    H252098   1.723   1.863  12.380 -1.5387 -1.4711 -0.6092
10203TIP3   OH252099   2.032   1.006   2.764 -0.1600 -0.1881  0.4253
10203TIP3    H152100   2.058   1.027   2.674 -0.4703 -2.0299 -0.1348
10203TIP3    H252101   1.953   0.953   2.754 -0.9140  0.5850  1.8662
10204TIP3   OH252102   2.360   3.146   0.482  0.2462 -0.1211  0.7730
10204TIP3    H152103   2.284   3.158   0.540 -0.9329 -0.3824 -0.6659
10204TIP3    H252104   2.423   3.211   0.513 -0.5692  0.1503  1.9699
10205TIP3   OH252105   2.083   6.526  11.165 -0.2654  0.8006  0.0735
10205TIP3    H152106   2.175   6.553  11.171 -0.1838  0.3066  1.4532
10205TIP3    H252107   2.078   6.448  11.220 -1.5477  0.9267  0.1596
10206TIP3   OH252108   0.107   6.163   0.438 -0.2310 -0.3971  0.6266
10206TIP3    H152109   0.087   6.256   0.449 -0.9638 -0.3777 -0.6859
10206TIP3    H252110   0.165   6.142   0.511  1.7150  1.6190 -0.2384
10207TIP3   OH252111   0.503   4.942  11.530 -0.0068  0.1589 -0.2284
10207TIP3    H152112   0.480   5.029  11.497 -3.7416 -0.0580  1.2933
10207TIP3    H252113   0.514   4.955  11.625 -0.5366 -0.9843  0.0001
10208TIP3   OH252114   3.385   0.916  16.344  0.4661  0.5390  0.2050
10208TIP3    H152115   3.432   0.984  16.297  0.4276  0.0722 -0.5241
10208TIP3    H252116   3.352   0.959  16.423  0.9984  1.1911  0.0741
10209TIP3   OH252117   4.771   0.311  15.934  0.8560 -0.1172  0.2182
10209TIP3    H152118   4.856   0.270  15.949  1.2746  1.0647  1.2525
10209TIP3    H252119   4.713   0.239  15.910  1.5495 -1.3386  1.9886
10210TIP3   OH252120   2.403   0.629  16.206  0.6844  0.5791  0.1092
10210TIP3    H152121   2.317   0.624  16.247  0.3310  1.1989 -0.5429
10210TIP3    H252122   2.385   0.635  16.112  1.4452  0.4779 -0.0478
10211TIP3   OH252123   4.522   2.208  11.121 -0.5045  0.3609 -0.1733
10211TIP3    H152124   4.477   2.203  11.036  1.6876 -0.7948 -1.3729
10211TIP3    H252125   4.612   2.233  11.098  0.4996 -1.3213  1.6322
10212TIP3   OH252126   3.034   1.794   2.479 -0.0703 -0.7856 -0.1760
10212TIP3    H152127   3.122   1.767   2.456  0.1604 -2.1116  1.9867
10212TIP3    H252128   3.047   1.870   2.536 -0.2766 -1.3654  0.6530
10213TIP3   OH252129   0.159   4.279  10.792 -0.2715  0.0630  0.0357
10213TIP3    H152130   0.254   4.289  10.799 -0.3622  0.0215  1.9395
10213TIP3    H252131   0.145   4.186  10.777  0.0238  0.3697 -2.6002
10214TIP3   OH252132   2.676   3.447  14.925  0.4853 -0.2408  0.1506
10214TIP3    H152133   2.638   3.485  14.846  0.5804 -1.1023 -0.3268
10214TIP3    H252134   2.644   3.502  14.996 -0.6693 -0.2105 -0.3579
10215TIP3   OH252135   1.056   6.317   3.630  0.0882  0.3922  0.4535
10215TIP3    H152136   1.003   6.237   3.632  0.7411 -0.0356  0.8696
10215TIP3    H252137   1.028   6.362   3.550  0.3377 -0.6712 -0.2435
10216TIP3   OH252138   4.929   6.857   4.659  0.1495 -0.6369  0.1441
10216TIP3    H152139   4.970   6.939   4.633 -2.4272  1.5468  2.3520
10216TIP3    H252140   4.861   6.842   4.592 -0.3761 -0.1168  0.5554
10217TIP3   OH252141   5.741   3.322  16.674 -0.2224 -0.1358 -0.0353
10217TIP3    H152142   5.720   3.335  16.766 -0.5012 -1.4053  0.0963
10217TIP3    H252143   5.679   3.379  16.627 -0.7853 -0.2744  0.5317
10218TIP3   OH252144   4.414   4.041   5.698 -0.0730 -0.3845  0.1265
10218TIP3    H152145   4.459   3.959   5.679  1.5242 -0.0757  2.3077
10218TIP3    H252146   4.346   4.046   5.630  0.8896 -2.6108 -1.1312
10219TIP3   OH252147   1.708   0.496  14.314 -0.1378 -0.3730  0.0500
10219TIP3    H152148   1.783   0.450  14.353  3.0640  2.5739 -2.0361
10219TIP3    H252149   1.682   0.560  14.380  0.3289 -0.2981  0.1678
10220TIP3   OH252150   3.347   5.632   0.877 -0.2654  0.2679  0.2986
10220TIP3    H152151   3.259   5.666   0.856 -1.3423 -1.8803  1.0628
10220TIP3    H252152   3.378   5.595   0.794 -0.2379  0.7099  0.1107
10221TIP3   OH252153   4.260   6.164  10.756  0.5375 -0.1502 -0.2413
10221TIP3    H152154   4.192   6.104  10.788  0.2258  0.7881  0.9296
10221TIP3    H252155   4.257   6.155  10.661 -1.7598  0.4140 -0.2740
10222TIP3   OH252156   6.277   5.845   5.238  0.2396  0.3364  0.0256
10222TIP3    H152157   6.190   5.839   5.278  0.1470  0.9673 -0.0671
10222TIP3    H252158   6.338   5.847   5.312  0.0018  2.7828  0.2415
10223TIP3   OH252159   0.726   6.525  11.257  0.6018  0.6216 -0.4817
10223TIP3    H152160   0.782   6.450  11.240  0.6944  0.6885 -0.4754
10223TIP3    H252161   0.785   6.592  11.292  0.4127  0.4781  0.1267
10224TIP3   OH252162   1.062   1.425   4.813  0.0714  0.0742  0.0325
10224TIP3    H152163   1.113   1.483   4.869  0.5699 -0.3503  0.0192
10224TIP3    H252164   1.066   1.340   4.855  2.1812 -0.7632 -1.6506
10225TIP3   OH252165   2.642   2.311   5.184  1.2143 -0.1222 -0.4450
10225TIP3    H152166   2.625   2.308   5.278 -0.9386 -0.5510 -0.7924
10225TIP3    H252167   2.674   2.400   5.168  0.6131  0.2807  0.5514
10226TIP3   OH252168   6.684   6.611  14.485  0.2363 -0.7652 -0.1919
10226TIP3    H152169   6.733   6.558  14.547 -1.6202 -0.6024  1.5091
10226TIP3    H252170   6.613   6.554  14.456 -1.1716  0.3867  0.8574
10227TIP3   OH252171   6.614   6.687   0.869  0.1681  0.4807  0.2029
10227TIP3    H152172   6.609   6.665   0.776 -3.4347  0.8523  0.1782
10227TIP3    H252173   6.662   6.770   0.872 -1.2844  1.4508 -1.5685
10228TIP3   OH252174   0.059   2.869   1.226 -0.1114 -0.0586 -0.5413
10228TIP3    H152175   0.129   2.872   1.293  0.3661  0.2396 -1.0474
10228TIP3    H252176  -0.001   2.803   1.259 -0.3092  0.6548  0.6003
10229TIP3   OH252177   1.048   2.979   4.770  0.5872  0.0753 -0.4573
10229TIP3    H152178   1.076   2.975   4.861  2.0496 -0.2580 -0.9023
10229TIP3    H252179   1.022   2.890   4.749 -1.3307  0.4620  0.0781
10230TIP3   OH252180   3.917   6.109   0.299 -0.5753  0.3512 -0.0057
10230TIP3    H152181   4.003   6.082   0.330 -0.5234  0.2060 -0.2683
10230TIP3    H252182   3.855   6.057   0.350 -0.5073  0.4754  0.2021
10231TIP3   OH252183   2.209   0.679  13.739 -0.2568  0.0946 -0.1905
10231TIP3    H152184   2.204   0.653  13.647 -0.1614  0.4196 -0.2869
10231TIP3    H252185   2.129   0.644  13.778 -0.0098 -0.5744 -0.2619
10232TIP3   OH252186   0.266   4.647  15.020 -0.2617  0.0764  0.3670
10232TIP3    H152187   0.277   4.741  15.006  1.1094  0.3094  2.5199
10232TIP3    H252188   0.274   4.635  15.115  1.4977 -2.4170  0.0283
10233TIP3   OH252189   4.483   4.657   4.400  0.7611 -0.7040  0.2131
10233TIP3    H152190   4.389   4.641   4.407  0.2172  1.2346 -1.6493
10233TIP3    H252191   4.503   4.712   4.476  0.5970 -1.8504  1.1060
10234TIP3   OH252192   0.740   4.964  15.002  0.2500  0.3149 -1.1269
10234TIP3    H152193   0.712   4.971  15.093 -0.1752 -2.4181 -0.9740
10234TIP3    H252194   0.662   4.934  14.955  0.7469  0.6909 -2.2237
10235TIP3   OH252195   4.927   3.406  11.041 -0.4038  0.0022 -0.3122
10235TIP3    H152196   4.897   3.474  10.981 -1.8808  0.3556  0.7463
10235TIP3    H252197   4.853   3.393  11.101  1.4090  0.5948  2.2310
10236TIP3   OH252198   2.882   0.682  10.857  0.0526  0.2370  0.6811
10236TIP3    H152199   2.918   0.613  10.911  1.2034  0.8373  0.7199
10236TIP3    H252200   2.850   0.747  10.919 -0.2393  0.1281  0.6446
10237TIP3   OH252201   2.028   4.225   1.154  0.0154 -0.2210  0.0768
10237TIP3    H152202   2.004   4.224   1.061 -0.2725 -1.3690  0.1482
10237TIP3    H252203   2.100   4.163   1.160  2.1028  2.0676  0.1306
10238TIP3   OH252204   4.616   3.581   2.452  0.3666 -0.1818  0.9250
10238TIP3    H152205   4.650   3.531   2.378 -0.0794 -1.7798  1.7573
10238TIP3    H252206   4.640   3.672   2.432  1.1567 -0.6921 -0.6604
10239TIP3   OH252207   2.939   1.771  10.564  0.5657 -0.8188  0.1322
10239TIP3    H152208   2.962   1.719  10.487 -0.0156 -0.5473 -0.2277
10239TIP3    H252209   2.902   1.852  10.529  0.2857 -0.6988  0.6916
10240TIP3   OH252210   4.745   2.334   2.323 -0.3061 -0.3633  0.0117
10240TIP3    H152211   4.676   2.365   2.264 -1.2681 -1.6293  0.4196
10240TIP3    H252212   4.757   2.405   2.385 -0.5577  0.2622 -0.6457
10241TIP3   OH252213   4.810   0.410   1.369 -0.3054 -0.0391 -0.2064
10241TIP3    H152214   4.777   0.372   1.451 -1.3143 -2.6113 -1.7090
10241TIP3    H252215   4.876   0.348   1.338  0.1552  0.9597 -1.3112
10242TIP3   OH252216   4.408   3.671   3.438 -0.0019  0.1481  0.3404
10242TIP3    H152217   4.458   3.670   3.519 -1.3688 -0.8643  1.1998
10242TIP3    H252218   4.326   3.627   3.459 -0.6105  0.3375 -1.4537
10243TIP3   OH252219   1.196   5.029   4.685 -0.1188  0.1841  0.4370
10243TIP3    H152220   1.213   5.041   4.592  1.1292 -0.4446  0.5567
10243TIP3    H252221   1.280   5.001   4.721 -0.7559 -0.2755  1.6259
10244TIP3   OH252222   6.665   2.733  16.529  0.4096 -0.8199 -0.2696
10244TIP3    H152223   6.656   2.662  16.465 -0.4552 -0.1346 -0.9381
10244TIP3    H252224   6.607   2.708  16.601  0.4462 -1.0076 -0.3042
10245TIP3   OH252225   3.026   5.492  15.093  0.1902 -1.2352  0.6284
10245TIP3    H152226   2.978   5.536  15.023 -0.6440 -0.1216  1.8468
10245TIP3    H252227   3.118   5.516  15.078  0.0172 -0.9821 -0.0530
10246TIP3   OH252228   1.626   5.303  14.630  0.5414 -0.7284 -0.8121
10246TIP3    H152229   1.663   5.288  14.717 -0.9577 -0.6214 -0.1241
10246TIP3    H252230   1.673   5.380  14.597 -1.0051  1.2708  1.2631
10247TIP3   OH252231   4.161   4.461  13.870 -0.3606  0.0684  0.1017
10247TIP3    H152232   4.081   4.416  13.844  0.1942 -0.8132 -0.1097
10247TIP3    H252233   4.197   4.496  13.789 -0.3659  0.1980  0.1548
10248TIP3   OH252234   3.814   6.778  10.332 -0.6546  0.1741 -0.2630
10248TIP3    H152235   3.830   6.691  10.293  0.0585 -1.5622  3.4974
10248TIP3    H252236   3.897   6.824  10.323 -0.6816  0.0487 -1.2615
10249TIP3   OH252237   5.645   5.613  13.770  0.1260  0.0373  0.0659
10249TIP3    H152238   5.740   5.608  13.758  0.2312  0.9998  0.3380
10249TIP3    H252239   5.615   5.666  13.696 -0.4428 -1.6691 -0.9711
10250TIP3   OH252240   0.138   2.768  11.404 -0.0701 -0.8548  0.2536
10250TIP3    H152241   0.094   2.852  11.418  2.2668  0.2779  1.2166
10250TIP3    H252242   0.125   2.750  11.311 -1.4492  0.0341  0.2406
10251TIP3   OH252243   1.080   5.889  16.360 -0.2946 -0.5451 -0.4352
10251TIP3    H152244   1.150   5.825  16.371 -0.8618 -1.5860 -2.4452
10251TIP3    H252245   1.116   5.952  16.297  0.7369  1.9491  2.4230
10252TIP3   OH252246   4.392   2.495   1.175  0.1016 -0.5704  0.5204
10252TIP3    H152247   4.342   2.427   1.219 -1.9027 -0.1317 -0.9093
10252TIP3    H252248   4.453   2.447   1.118 -0.7712 -1.1849  0.0801
10253TIP3   OH252249   0.820   3.334   2.544  0.5565  0.8515 -0.3725
10253TIP3    H152250   0.892   3.299   2.492  0.3390  0.6146 -0.5163
10253TIP3    H252251   0.754   3.359   2.480  0.8533  1.8855 -0.3038
10254TIP3   OH252252   3.416   1.849   4.788 -0.2114 -0.0998 -0.5183
10254TIP3    H152253   3.459   1.907   4.851  1.3305 -2.2489  0.5573
10254TIP3    H252254   3.440   1.884   4.703 -0.8153  1.8177  0.0395
10255TIP3   OH252255   3.414   5.957  13.506 -0.1565  0.2228 -0.2394
10255TIP3    H152256   3.504   5.930  13.524 -0.1613  0.6486  0.4637
10255TIP3    H252257   3.422   6.044  13.467 -0.2706  0.4099  0.1442
10256TIP3   OH252258   6.572   5.416  13.077  0.3889 -0.0508  0.0603
10256TIP3    H152259   6.659   5.389  13.105  1.3605  1.9192 -0.8649
10256TIP3    H252260   6.521   5.420  13.157  1.2128 -0.9721  0.6530
10257TIP3   OH252261   0.140   2.533  11.102 -0.3355  0.1763 -0.0468
10257TIP3    H152262   0.138   2.503  11.193  1.4392  0.1136  0.0172
10257TIP3    H252263   0.049   2.550  11.080 -0.9756 -1.3201  1.2460
10258TIP3   OH252264   1.931   3.707   4.007 -0.0267 -0.2586 -0.1608
10258TIP3    H152265   1.903   3.686   4.096  0.8013 -1.8802 -0.2563
10258TIP3    H252266   2.018   3.668   3.999  0.2484  0.5638 -1.4262
10259TIP3   OH252267   4.349   3.638  15.649 -0.1019 -0.1804 -0.1893
10259TIP3    H152268   4.333   3.568  15.586  0.7580 -0.7489  0.2072
10259TIP3    H252269   4.400   3.703  15.600  0.9185 -0.8065  0.0132
10260TIP3   OH252270   6.058   1.307  11.243  0.5649 -0.2025 -0.0895
10260TIP3    H152271   6.047   1.386  11.191  1.8139 -1.2339 -2.0509
10260TIP3    H252272   6.090   1.338  11.328  1.1563  1.3981 -0.8509
10261TIP3   OH252273   5.537   3.508   2.816  0.3139 -0.0301 -0.0954
10261TIP3    H152274   5.474   3.436   2.812  1.1826 -0.8517  0.5190
10261TIP3    H252275   5.566   3.509   2.907  1.9535 -0.3516 -0.5861
10262TIP3   OH252276   1.291   0.884   2.791 -0.0370  0.2551  0.2083
10262TIP3    H152277   1.352   0.902   2.720 -0.0792 -0.8366 -0.1176
10262TIP3    H252278   1.280   0.789   2.790 -1.1148  0.3584  0.7796
10263TIP3   OH252279   0.134   2.057  15.416 -0.3166  0.0699  0.4825
10263TIP3    H152280   0.137   1.961  15.408 -0.7340 -0.0575  1.6590
10263TIP3    H252281   0.113   2.088  15.328  1.7124 -0.7987 -0.3882
10264TIP3   OH252282   6.801   6.108   0.179 -0.3680 -0.1162  0.5850
10264TIP3    H152283   6.784   6.025   0.136  1.3939 -1.1651  1.7612
10264TIP3    H252284   6.784   6.091   0.272 -2.6866  1.6673  0.5837
10265TIP3   OH252285   0.441   0.149  14.481  0.2099  0.0311 -0.0879
10265TIP3    H152286   0.501   0.083  14.515 -0.7635  0.1066  1.9648
10265TIP3    H252287   0.394   0.105  14.410  0.9924 -0.7936 -0.1165
10266TIP3   OH252288   4.578   2.728   2.287  0.4624 -0.2229  0.8147
10266TIP3    H152289   4.556   2.794   2.353 -1.3591  1.6200 -1.4455
10266TIP3    H252290   4.655   2.764   2.243  0.6890 -0.6395  0.8681
10267TIP3   OH252291   4.591   6.611   4.018 -0.3927 -0.3043  0.1868
10267TIP3    H152292   4.514   6.642   4.066 -1.2399  0.1134 -1.3928
10267TIP3    H252293   4.661   6.671   4.043 -0.9964  0.3363  0.3628
10268TIP3   OH252294   5.090   4.621  16.197  0.0170  0.1815 -0.6227
10268TIP3    H152295   5.051   4.597  16.113 -0.2581 -0.3626 -0.3466
10268TIP3    H252296   5.083   4.542  16.250 -2.2383  1.2567  0.8201
10269TIP3   OH252297   1.805   3.764  13.937  0.3346 -0.4776 -0.2922
10269TIP3    H152298   1.878   3.816  13.902  0.3781 -0.1905  0.2056
10269TIP3    H252299   1.743   3.758  13.865  0.6035 -0.2506 -0.5470
10270TIP3   OH252300   0.856   4.415  12.182 -0.9138  0.3579  0.0308
10270TIP3    H152301   0.794   4.344  12.165  1.7315 -2.9943  2.7153
10270TIP3    H252302   0.940   4.381  12.153  0.3280  2.9862  0.2592
10271TIP3   OH252303   4.966   5.649   2.549 -0.0351 -0.0742 -0.1168
10271TIP3    H152304   4.983   5.677   2.639 -0.2368  0.7148 -0.3165
10271TIP3    H252305   4.886   5.598   2.555  0.1119 -0.2713  0.1947
10272TIP3   OH252306   0.698   5.802  13.818 -0.6244  0.5008 -0.1516
10272TIP3    H152307   0.747   5.852  13.752 -0.4243  0.8054  0.2228
10272TIP3    H252308   0.761   5.786  13.888 -0.4986 -0.8441 -0.5355
10273TIP3   OH252309   1.127   2.467   4.667 -0.0267  0.1039  0.2848
10273TIP3    H152310   1.057   2.528   4.642 -1.2080 -1.0706  0.6437
10273TIP3    H252311   1.202   2.493   4.612 -0.4484  1.9485  0.5240
10274TIP3   OH252312   1.352   6.755  10.479 -0.4552  0.0484  0.0188
10274TIP3    H152313   1.329   6.846  10.497 -0.2581 -0.1005  1.1557
10274TIP3    H252314   1.446   6.757  10.459 -0.7255  0.2477 -1.2561
10275TIP3   OH252315   5.948   0.602   0.816  0.5406  0.3954  0.0063
10275TIP3    H152316   5.876   0.564   0.865  0.5854  0.7388  0.3441
10275TIP3    H252317   6.002   0.527   0.790  0.2707  0.1739  0.0844
10276TIP3   OH252318   2.978   1.668  10.254 -0.0887  0.2227  0.2313
10276TIP3    H152319   3.049   1.658  10.190  0.6789  1.0473  0.9266
10276TIP3    H252320   2.999   1.606  10.323 -0.4083  0.0023  0.1338
10277TIP3   OH252321   1.097   5.150  14.983 -0.5248  0.1751  0.2439
10277TIP3    H152322   1.068   5.061  14.961  2.2309 -0.8139  0.2965
10277TIP3    H252323   1.142   5.141  15.066  1.5222  1.2217 -0.6838
10278TIP3   OH252324   3.652   3.390  11.257 -0.5484 -0.0671 -0.3922
10278TIP3    H152325   3.685   3.467  11.210  1.1619 -1.0480 -0.8822
10278TIP3    H252326   3.557   3.405  11.263 -0.2737  2.0809 -0.4234
10279TIP3   OH252327   5.125   4.077  12.019  0.0725 -0.3909 -0.0057
10279TIP3    H152328   5.069   4.028  11.958 -0.0856  0.3582 -0.4746
10279TIP3    H252329   5.142   4.160  11.974 -0.9687  0.6591  1.4538
10280TIP3   OH252330   5.000   1.251   2.550  0.4143 -0.3327 -0.1667
10280TIP3    H152331   5.060   1.325   2.561 -0.3791  0.2169  0.5444
10280TIP3    H252332   5.012   1.198   2.629  1.1105 -1.0889 -0.7497
10281TIP3   OH252333   2.086   1.086   3.677 -0.3241 -0.4037  0.6257
10281TIP3    H152334   2.074   1.136   3.758 -0.2196  1.2989 -0.3609
10281TIP3    H252335   2.179   1.095   3.656 -0.6129  0.3486 -0.3981
10282TIP3   OH252336   6.397   4.540  14.458  0.4353 -0.2467  0.0210
10282TIP3    H152337   6.350   4.603  14.405 -1.1609 -0.5500  1.0105
10282TIP3    H252338   6.333   4.471  14.477  1.8386 -1.7043 -0.2253
10283TIP3   OH252339   4.132   3.275  14.611 -0.4256 -0.4160 -0.0441
10283TIP3    H152340   4.113   3.181  14.610 -0.1634 -0.4937  0.9938
10283TIP3    H252341   4.166   3.292  14.699  1.3576  0.3053 -0.8200
10284TIP3   OH252342   4.508   6.018   4.808 -0.1526 -0.3798 -0.3833
10284TIP3    H152343   4.417   6.042   4.792  0.4714  1.8585 -1.0610
10284TIP3    H252344   4.509   5.982   4.896 -1.9754 -2.3877 -1.1042
10285TIP3   OH252345   3.258   0.449   1.669 -0.5527  0.0609 -0.5051
10285TIP3    H152346   3.204   0.392   1.722 -0.2182 -0.9931 -1.2562
10285TIP3    H252347   3.345   0.445   1.709 -0.2597 -0.8655 -1.1835
10286TIP3   OH252348   3.099   0.144  12.814  0.5019 -0.8008 -0.3344
10286TIP3    H152349   3.103   0.081  12.885 -1.6380 -2.2041 -1.3866
10286TIP3    H252350   3.113   0.093  12.735 -0.3744  0.1879 -1.1590
10287TIP3   OH252351   0.922   6.042  15.936  0.5305  0.0506 -0.2647
10287TIP3    H152352   0.952   6.016  15.849  0.6298 -1.4711  0.1896
10287TIP3    H252353   0.912   5.959  15.984  0.3570  0.8401  1.1323
10288TIP3   OH252354   4.422   4.326  14.687  0.2695 -0.5949  0.3127
10288TIP3    H152355   4.351   4.362  14.634  2.5451  1.3217 -1.6417
10288TIP3    H252356   4.377   4.274  14.754 -2.9096 -0.1583 -1.2678
10289TIP3   OH252357   5.636   1.529  11.256 -0.4619  0.2646 -0.1634
10289TIP3    H152358   5.631   1.433  11.251 -3.3348  0.2917  0.5452
10289TIP3    H252359   5.705   1.545  11.320 -1.2899 -1.4327  1.2613
10290TIP3   OH252360   3.826   5.234  13.124 -0.0790 -0.5628 -0.8916
10290TIP3    H152361   3.862   5.302  13.068 -1.6067 -0.0990 -1.3523
10290TIP3    H252362   3.886   5.230  13.199  0.2125  1.0573 -1.0144
10291TIP3   OH252363   3.083   3.182   5.013 -0.1329  0.0583 -0.2367
10291TIP3    H152364   3.140   3.115   5.051  0.7301  1.2315  0.6268
10291TIP3    H252365   3.139   3.229   4.950 -0.4249  0.5892 -0.1125
10292TIP3   OH252366   3.626   3.669   3.538 -0.0507  0.2695  0.6189
10292TIP3    H152367   3.642   3.654   3.631  1.2776 -1.0514  0.2129
10292TIP3    H252368   3.579   3.591   3.508  1.4037 -0.3157 -0.2316
10293TIP3   OH252369   4.157   0.003  14.164  0.2755  0.3930 -0.0850
10293TIP3    H152370   4.167   0.014  14.259  1.9296  1.8533 -0.3888
10293TIP3    H252371   4.065  -0.022  14.153  0.4544 -1.5322  2.0229
10294TIP3   OH252372   4.516   5.594  15.585  0.2415  0.1934  0.3722
10294TIP3    H152373   4.523   5.586  15.680  0.3003  0.3038  0.3770
10294TIP3    H252374   4.443   5.655  15.571 -0.7586 -0.9912  0.3213
10295TIP3   OH252375   5.296   1.593   3.694 -0.3288  0.1868 -0.0910
10295TIP3    H152376   5.357   1.664   3.674 -0.4132 -0.0834 -1.3599
10295TIP3    H252377   5.260   1.567   3.610 -0.6876 -1.0274  0.4118
10296TIP3   OH252378   0.787   4.939   2.758 -0.7951  0.2093  0.4986
10296TIP3    H152379   0.872   4.984   2.752  0.1100 -1.3395  1.0577
10296TIP3    H252380   0.786   4.879   2.684 -0.3057 -1.4829  1.7908
10297TIP3   OH252381   4.896   5.502  11.647 -0.0195 -0.6621 -0.2361
10297TIP3    H152382   4.907   5.407  11.650 -2.9463 -1.0954 -0.0008
10297TIP3    H252383   4.802   5.515  11.662  0.0525  2.2068 -1.6895
10298TIP3   OH252384   6.749   2.947  14.574 -0.1381 -0.1790  0.2109
10298TIP3    H152385   6.759   3.015  14.507 -0.0999  0.0771  0.4777
10298TIP3    H252386   6.827   2.954  14.627 -1.8985  2.3180  2.7545
10299TIP3   OH252387   0.376   6.127  15.241 -0.2612 -0.6876  0.0857
10299TIP3    H152388   0.463   6.117  15.280 -0.4875  1.8131  1.4125
10299TIP3    H252389   0.320   6.155  15.313 -1.1123  2.2782 -1.5593
10300TIP3   OH252390   2.696   0.480   0.126  0.7543 -0.2736 -0.3347
10300TIP3    H152391   2.677   0.532   0.048  2.9355 -1.0095 -1.4450
10300TIP3    H252392   2.717   0.544   0.193 -1.1428  0.3728 -0.2810
10301TIP3   OH252393   3.242   0.113   4.559  0.4009 -0.0803  0.1317
10301TIP3    H152394   3.256   0.027   4.520  0.4058 -0.0231  0.0095
10301TIP3    H252395   3.212   0.093   4.648 -2.5222 -0.2979 -0.7758
10302TIP3   OH252396   4.573   6.783  15.448  0.5855  0.0570 -0.0859
10302TIP3    H152397   4.500   6.774  15.510 -0.7675  0.3034 -1.5894
10302TIP3    H252398   4.611   6.869  15.468 -2.9541  2.5323 -2.6441
10303TIP3   OH252399   6.471   0.288  14.331 -0.0415 -0.5201  0.3826
10303TIP3    H152400   6.481   0.310  14.239 -1.8080 -0.2358  0.2276
10303TIP3    H252401   6.525   0.351  14.377 -0.5306  0.4857 -0.3820
10304TIP3   OH252402   1.762   6.623  13.633  0.2068 -0.0905  0.4536
10304TIP3    H152403   1.672   6.602  13.610  0.6630  0.7105 -2.4353
10304TIP3    H252404   1.806   6.538  13.639 -0.3623 -0.4178  0.0717
10305TIP3   OH252405   5.453   0.110   1.988  0.0846  0.6118 -0.8184
10305TIP3    H152406   5.497   0.167   2.050  1.8123 -0.8702 -0.6171
10305TIP3    H252407   5.399   0.051   2.042 -0.7667  1.2460 -0.9519
10306TIP3   OH252408   2.408   1.705   3.422 -0.1008  0.4138  0.5745
10306TIP3    H152409   2.488   1.737   3.380 -0.0313  0.2054  0.5430
10306TIP3    H252410   2.390   1.767   3.492 -1.0346  1.6122 -0.6730
10307TIP3   OH252411   5.308   4.855  16.394 -0.6312 -0.4372  0.5037
10307TIP3    H152412   5.342   4.781  16.444  0.3095 -1.4874 -1.5618
10307TIP3    H252413   5.293   4.820  16.306 -0.8149  1.6525 -0.3561
10308TIP3   OH252414   0.725   4.124   0.915 -0.6345  0.2415  0.2108
10308TIP3    H152415   0.782   4.184   0.867 -0.8965 -0.8386 -1.5225
10308TIP3    H252416   0.756   4.036   0.891 -1.4567 -0.3537  1.2082
10309TIP3   OH252417   1.772   4.220   2.736 -0.2155  0.3929  0.3491
10309TIP3    H152418   1.729   4.136   2.720 -0.5613  0.5286  0.5629
10309TIP3    H252419   1.729   4.281   2.676  0.2828  0.3419 -0.0642
10310TIP3   OH252420   4.910   5.615  15.795  0.1326 -0.1108 -0.0239
10310TIP3    H152421   4.846   5.685  15.797  1.4406  1.1341 -0.3348
10310TIP3    H252422   4.893   5.563  15.874 -2.5794 -1.0812 -1.1503
10311TIP3   OH252423   3.236   6.085  12.291 -0.2556  0.2695 -0.3346
10311TIP3    H152424   3.257   6.178  12.300  0.9440 -0.1009  1.1296
10311TIP3    H252425   3.174   6.067  12.361  0.5782 -0.3089  0.2701
10312TIP3   OH252426   1.394   5.838   2.909 -0.2863 -0.2029  0.5143
10312TIP3    H152427   1.357   5.833   2.820 -1.2388  1.5878  0.7619
10312TIP3    H252428   1.323   5.875   2.962  0.7475  0.0838  1.7381
10313TIP3   OH252429   1.896   2.784   1.978 -0.1118  0.3849  0.3959
10313TIP3    H152430   1.898   2.718   2.047 -0.9976  0.6010  0.6544
10313TIP3    H252431   1.951   2.855   2.011  0.7276 -0.1605  0.1788
10314TIP3   OH252432   1.640   1.849  16.329 -0.0441 -0.4081 -0.0938
10314TIP3    H152433   1.672   1.894  16.407  2.2322 -1.3011 -0.4594
10314TIP3    H252434   1.562   1.803  16.360 -0.8565  1.5023  0.9293
10315TIP3   OH252435   1.456   2.094   4.089 -0.8316 -0.1356  0.2396
10315TIP3    H152436   1.530   2.149   4.115 -0.8850  0.5271 -0.9176
10315TIP3    H252437   1.493   2.007   4.075 -0.1221  0.3326 -0.9485
10316TIP3   OH252438   4.720   0.379  11.789  0.6037  0.2127  0.0648
10316TIP3    H152439   4.720   0.306  11.850  0.0104  0.9809  1.0238
10316TIP3    H252440   4.771   0.447  11.833  1.5848  0.2112 -1.0317
10317TIP3   OH252441   2.399   1.708  16.226  0.0191 -0.0754  0.0434
10317TIP3    H152442   2.473   1.765  16.249  1.9458 -2.0177 -0.9711
10317TIP3    H252443   2.348   1.702  16.307  0.7020  1.6396  0.6589
10318TIP3   OH252444   6.261   0.842  15.170  0.2555  0.1657 -0.7837
10318TIP3    H152445   6.319   0.844  15.094 -0.2663 -0.8992 -1.2222
10318TIP3    H252446   6.320   0.835  15.245  0.9822  4.1657 -0.7677
10319TIP3   OH252447   5.465   1.656   2.262  0.3365 -0.5238 -0.5959
10319TIP3    H152448   5.494   1.611   2.183  2.8871  0.0385 -0.0642
10319TIP3    H252449   5.539   1.710   2.288 -0.1342 -1.1562  2.5472
10320TIP3   OH252450   4.074   5.885   5.102 -0.1636 -0.6658 -0.1170
10320TIP3    H152451   4.061   5.972   5.065  0.6222  0.0280  1.1711
10320TIP3    H252452   4.015   5.882   5.177 -0.2479 -1.2775 -0.2053
10321TIP3   OH252453   6.685   6.059  14.534 -0.5512 -0.0441  0.1815
10321TIP3    H152454   6.618   6.058  14.465  0.6445 -1.0405 -1.0125
10321TIP3    H252455   6.650   6.119  14.600 -2.2181  0.1300 -0.8009
10322TIP3   OH252456   3.484   6.199   3.442 -0.8043 -0.6591 -0.4660
10322TIP3    H152457   3.424   6.239   3.378 -0.4117  2.6794  1.0097
10322TIP3    H252458   3.428   6.175   3.516 -0.6365  1.2334  0.3595
10323TIP3   OH252459   1.054   5.236   4.412 -0.6317  0.6119 -0.1921
10323TIP3    H152460   1.078   5.159   4.360 -1.4333 -0.3942  0.8806
10323TIP3    H252461   1.117   5.303   4.386  0.4491 -0.5728 -0.7372
10324TIP3   OH252462   1.959   2.694   0.491 -0.3136 -0.2088  0.4568
10324TIP3    H152463   1.950   2.636   0.416 -1.8177 -0.9129  1.1317
10324TIP3    H252464   2.039   2.744   0.474 -1.6291  1.1472 -2.6292
10325TIP3   OH252465   5.636   1.995  16.725 -0.2912  0.8621  0.1847
10325TIP3    H152466   5.683   1.912  16.718 -1.6195  0.0905 -0.0860
10325TIP3    H252467   5.558   1.974  16.777 -0.9371  1.8013 -0.3728
10326TIP3   OH252468   4.191   5.730   0.853 -0.5610  0.4585  0.1674
10326TIP3    H152469   4.115   5.692   0.810 -0.0890  0.1619 -0.4267
10326TIP3    H252470   4.175   5.718   0.946 -0.2799 -1.5134 -0.0048
10327TIP3   OH252471   0.177   5.782  11.481  0.5306  0.2396  0.1650
10327TIP3    H152472   0.261   5.819  11.507 -0.0486  0.0315  2.5666
10327TIP3    H252473   0.146   5.736  11.559 -2.2339  1.1061 -0.3123
10328TIP3   OH252474   4.127   4.951  13.421 -0.1365  0.2044  0.4216
10328TIP3    H152475   4.211   4.916  13.392 -0.2494  0.1662  0.1366
10328TIP3    H252476   4.070   4.875  13.425 -0.1531  0.2280  0.6305
10329TIP3   OH252477   2.793   5.503   5.752 -0.0826 -0.4559 -0.0731
10329TIP3    H152478   2.732   5.577   5.760 -0.1327 -0.6389  1.7284
10329TIP3    H252479   2.867   5.537   5.702 -1.1765  0.0774 -1.3855
10330TIP3   OH252480   3.170   0.855   4.934 -0.1913  0.4176  0.1401
10330TIP3    H152481   3.123   0.937   4.942 -1.1287 -0.2601  2.5209
10330TIP3    H252482   3.102   0.787   4.936  0.6609 -0.4661  0.2026
10331TIP3   OH252483   5.819   2.573  11.860  0.2603  0.0964 -0.1566
10331TIP3    H152484   5.799   2.666  11.867  1.2295  0.4006 -1.1681
10331TIP3    H252485   5.821   2.556  11.766 -1.8737 -1.4069 -0.0035
10332TIP3   OH252486   2.363   4.061  16.475 -0.8758  0.5773  0.2133
10332TIP3    H152487   2.272   4.052  16.501 -1.2800  1.0686 -0.9735
10332TIP3    H252488   2.375   4.155  16.460 -0.2196  0.5034  0.2073
10333TIP3   OH252489   5.623   3.721  11.349 -0.2913 -0.3658  0.1697
10333TIP3    H152490   5.699   3.721  11.407 -0.0379  1.5394 -0.0793
10333TIP3    H252491   5.661   3.722  11.261 -0.6641 -2.3728 -0.0466
10334TIP3   OH252492   1.467   4.569   3.413  0.8658 -0.1990  0.3370
10334TIP3    H152493   1.451   4.643   3.471 -0.4251 -0.1328 -0.0673
10334TIP3    H252494   1.506   4.607   3.334 -2.6566  0.6113 -1.2075
10335TIP3   OH252495   2.271   4.196  15.174  0.3872  0.4871  0.0048
10335TIP3    H152496   2.214   4.232  15.242  1.2164  0.5921  0.6471
10335TIP3    H252497   2.274   4.264  15.106  0.7784  1.0151  0.5489
10336TIP3   OH252498   5.123   4.126   1.764 -0.4002 -0.2404 -0.0949
10336TIP3    H152499   5.154   4.035   1.768 -0.8423 -0.3805  0.2396
10336TIP3    H252500   5.042   4.126   1.815 -0.9852  0.1114 -1.0197
10337TIP3   OH252501   5.685   0.693  12.174  0.6790  0.1278  0.3402
10337TIP3    H152502   5.760   0.699  12.115  0.4355  1.3299  0.1282
10337TIP3    H252503   5.633   0.772  12.155 -0.2754 -0.3349  0.9692
10338TIP3   OH252504   0.895   6.122  16.387 -0.3973 -0.4858 -0.4961
10338TIP3    H152505   0.937   6.204  16.363 -1.4674 -0.2310 -1.6028
10338TIP3    H252506   0.964   6.056  16.383  0.2339  0.1860 -0.6540
10339TIP3   OH252507   6.248   1.440  13.868  0.1320  0.4549  0.3571
10339TIP3    H152508   6.301   1.453  13.789 -0.3788  0.1699 -0.0454
10339TIP3    H252509   6.282   1.358  13.905  0.8783  0.9803  0.8574
10340TIP3   OH252510   4.222   3.072  13.332 -0.5442  0.1792 -0.1063
10340TIP3    H152511   4.212   3.167  13.319  0.1654  0.3302  0.3961
10340TIP3    H252512   4.235   3.037  13.244  2.1977  0.9391 -0.1083
10341TIP3   OH252513   2.304   4.491   4.550 -0.2256  0.4368 -0.0623
10341TIP3    H152514   2.393   4.464   4.572 -0.1716 -0.6249 -1.4107
10341TIP3    H252515   2.249   4.418   4.578 -0.8795  1.6547  2.0138
10342TIP3   OH252516   2.927   4.129  11.431 -0.3750  0.2030  0.4986
10342TIP3    H152517   2.834   4.139  11.412 -0.4507 -1.1547  0.0452
10342TIP3    H252518   2.954   4.052  11.381  1.4732  1.7312 -1.0388
10343TIP3   OH252519   2.404   5.044  13.328  0.0703  0.0715 -0.0796
10343TIP3    H152520   2.316   5.070  13.302 -0.1231 -0.7583 -0.2915
10343TIP3    H252521   2.399   4.949  13.336  1.2819 -0.1362 -1.3995
10344TIP3   OH252522   4.818   0.455   0.707 -0.0243 -0.7543  0.1172
10344TIP3    H152523   4.875   0.383   0.734 -0.5457 -1.3938 -0.4604
10344TIP3    H252524   4.826   0.457   0.612 -0.4996 -0.4491  0.0793
10345TIP3   OH252525   2.429   0.045   0.794 -0.1086  0.4944 -0.2007
10345TIP3    H152526   2.358   0.109   0.782  0.3771  1.1430  0.3455
10345TIP3    H252527   2.484   0.083   0.862  0.2075 -0.5014  0.1041
10346TIP3   OH252528   0.672   1.157   3.458 -0.1614  0.3208  0.5749
10346TIP3    H152529   0.653   1.250   3.447  0.2861  0.3613  0.0857
10346TIP3    H252530   0.754   1.155   3.508  0.7748  0.2455 -0.8738
10347TIP3   OH252531   6.639   3.506   4.888 -0.3171  0.1363 -0.4514
10347TIP3    H152532   6.600   3.480   4.805  0.4211  0.0281 -0.7685
10347TIP3    H252533   6.573   3.483   4.953 -1.2896  1.0496 -1.0723
10348TIP3   OH252534   4.185   2.808   6.705  0.1804  0.4052  0.0021
10348TIP3    H152535   4.126   2.770   6.640  1.1660  1.4210 -1.5610
10348TIP3    H252536   4.147   2.893   6.727  1.0244  1.0770 -1.0341
10349TIP3   OH252537   4.260   3.669   3.722 -0.2677 -0.1964  0.1164
10349TIP3    H152538   4.340   3.669   3.774 -1.0392 -0.3022  1.3300
10349TIP3    H252539   4.239   3.761   3.711 -0.8974 -0.1891  1.2677
10350TIP3   OH252540   4.310   2.873  12.090  0.2720  0.4502  0.6793
10350TIP3    H152541   4.382   2.846  12.148 -0.0899  0.9227  1.3651
10350TIP3    H252542   4.245   2.803  12.098  1.0079 -0.4210 -0.6265
10351TIP3   OH252543   1.109   4.939  12.595 -0.2603  0.5732  0.2672
10351TIP3    H152544   1.191   4.943  12.644  0.7766 -0.7166 -1.2688
10351TIP3    H252545   1.126   4.990  12.516 -0.9053  0.1895 -0.1292
10352TIP3   OH252546   2.408   0.405   0.350 -0.0379 -0.1824  0.0677
10352TIP3    H152547   2.329   0.424   0.401 -0.4028 -1.9520  0.2184
10352TIP3    H252548   2.396   0.454   0.268 -1.2087 -0.2871  0.1642
10353TIP3   OH252549   1.679   5.853   6.111 -0.4781 -0.0404  0.3082
10353TIP3    H152550   1.665   5.887   6.200  0.3124  1.5982 -0.1692
10353TIP3    H252551   1.769   5.823   6.110 -0.3918  0.2288 -0.0358
10354TIP3   OH252552   2.046   4.372  16.639  0.3603 -0.1532 -0.1502
10354TIP3    H152553   2.008   4.460  16.641 -0.5380 -0.5318  1.7826
10354TIP3    H252554   1.972   4.314  16.626  0.9641 -0.6497 -1.5307
10355TIP3   OH252555   5.964   3.466   1.328  0.0497  1.0360  0.0029
10355TIP3    H152556   6.046   3.420   1.312 -0.4002  0.7870 -1.7308
10355TIP3    H252557   5.946   3.451   1.421  1.0488 -0.3919 -0.0108
10356TIP3   OH252558   1.844   0.610  15.769 -0.2636 -0.4523 -0.2397
10356TIP3    H152559   1.859   0.532  15.715 -2.2451 -1.3443  0.3787
10356TIP3    H252560   1.749   0.615  15.776 -0.1160 -0.5010  3.3213
10357TIP3   OH252561   6.390   0.759   1.719 -0.5207 -0.0704 -0.1223
10357TIP3    H152562   6.430   0.843   1.743 -0.0448 -0.6083  1.0132
10357TIP3    H252563   6.403   0.753   1.624  0.0060  0.8484 -0.1217
10358TIP3   OH252564   6.237   4.007   6.322  0.3849 -0.1660  0.1084
10358TIP3    H152565   6.279   4.005   6.236 -0.4041  1.1676 -0.3381
10358TIP3    H252566   6.168   3.940   6.316  0.4399 -0.1924 -0.2418
10359TIP3   OH252567   6.230   4.327  12.045  0.2895  0.7047 -0.4104
10359TIP3    H152568   6.181   4.409  12.047 -1.3212 -0.2363  0.8302
10359TIP3    H252569   6.288   4.332  12.121  0.2834  0.7394 -0.4077
10360TIP3   OH252570   3.792   4.324  11.546  0.2366  0.2353  0.6561
10360TIP3    H152571   3.829   4.262  11.483  2.3341  0.7198  1.3490
10360TIP3    H252572   3.807   4.410  11.508 -0.2062  0.4550  0.9591
10361TIP3   OH252573   4.718   1.597   0.330  0.2459  0.1961  0.4550
10361TIP3    H152574   4.804   1.556   0.329 -0.5191 -1.4846 -0.0133
10361TIP3    H252575   4.717   1.652   0.252  1.8852  2.5604  1.9509
10362TIP3   OH252576   5.892   6.129  12.021  0.0425  0.1833  0.1622
10362TIP3    H152577   5.935   6.074  11.956 -0.8771 -0.2991 -0.0628
10362TIP3    H252578   5.957   6.142  12.090  1.2501  1.1960 -1.1088
10363TIP3   OH252579   0.769   0.168   4.503  0.2251  0.5042  0.6268
10363TIP3    H152580   0.690   0.125   4.535  0.7709 -0.9917  0.0499
10363TIP3    H252581   0.752   0.261   4.517 -1.8037  0.2682  0.1625
10364TIP3   OH252582   4.735   0.143   5.335 -0.3384  0.3186  0.3355
10364TIP3    H152583   4.714   0.090   5.412  1.0762  0.0651  0.5783
10364TIP3    H252584   4.794   0.088   5.283 -0.8831  0.6757 -0.7061
10365TIP3   OH252585   4.374   0.704  13.910 -0.1381  0.1337 -0.9851
10365TIP3    H152586   4.333   0.787  13.886  0.5836  0.2660 -1.7870
10365TIP3    H252587   4.445   0.729  13.968  0.7717  0.1933 -2.0926
10366TIP3   OH252588   1.041   0.210  12.772 -0.0692 -0.0609 -0.1488
10366TIP3    H152589   1.123   0.194  12.726  0.0994 -0.4930  0.2886
10366TIP3    H252590   1.011   0.295  12.740  1.6396  1.1264  1.2760
10367TIP3   OH252591   6.561   2.081  11.455 -0.2491 -0.3473  0.5412
10367TIP3    H152592   6.552   2.063  11.361 -0.4151 -1.7260  0.8089
10367TIP3    H252593   6.471   2.096  11.484 -0.2008  0.0467  0.4940
10368TIP3   OH252594   6.828   5.580  15.962  0.2128  0.2546  0.3102
10368TIP3    H152595   6.797   5.624  16.042 -1.7268 -0.8978  0.2666
10368TIP3    H252596   6.891   5.516  15.994  0.3094  0.5718  0.7778
10369TIP3   OH252597   3.500   1.176   3.723  0.0149  0.4008  0.3254
10369TIP3    H152598   3.416   1.137   3.745 -0.9077  0.7232 -2.2637
10369TIP3    H252599   3.509   1.250   3.783 -1.6051  0.4268  0.5719
10370TIP3   OH252600   2.776   1.165  16.591  0.2398  0.8508  0.1786
10370TIP3    H152601   2.744   1.085  16.549 -0.5438 -0.2716  2.7607
10370TIP3    H252602   2.855   1.138  16.638 -0.0828  1.5510  1.1561
10371TIP3   OH252603   2.941   0.169   4.477  0.4462 -0.2059  0.0068
10371TIP3    H152604   2.891   0.238   4.520  0.2917 -2.2844  3.4343
10371TIP3    H252605   2.878   0.125   4.421 -0.2780  0.3315  0.3846
10372TIP3   OH252606   4.364   5.001   4.079  0.2066 -0.3208 -0.1035
10372TIP3    H152607   4.399   4.987   4.167 -0.6086  1.3048  0.5315
10372TIP3    H252608   4.350   4.914   4.044 -0.2484 -1.0253  1.7145
10373TIP3   OH252609   2.891   6.359   0.961 -0.1530  0.0388  0.2808
10373TIP3    H152610   2.957   6.357   0.892  0.1625 -0.7526  0.5896
10373TIP3    H252611   2.845   6.442   0.948 -1.2165 -0.8020 -1.9276
10374TIP3   OH252612   6.152   2.002   4.652 -0.5606 -0.5359  0.1613
10374TIP3    H152613   6.224   2.059   4.627 -0.0859 -1.0450  0.3470
10374TIP3    H252614   6.073   2.054   4.636 -0.1277  0.2497  0.5521
10375TIP3   OH252615   2.316   3.851  13.212  0.4771  0.2675 -0.5000
10375TIP3    H152616   2.356   3.936  13.231 -2.0292  1.4752 -0.2254
10375TIP3    H252617   2.331   3.799  13.292  2.5089  0.1745 -0.8773
10376TIP3   OH252618   0.751   0.137  16.760  0.2214  0.1989  0.6308
10376TIP3    H152619   0.826   0.183  16.723  0.2713  1.2298  1.9577
10376TIP3    H252620   0.780   0.108  16.846 -0.3133 -1.0171  0.4182
10377TIP3   OH252621   2.229   1.763  14.472  0.1421  0.4089 -0.1728
10377TIP3    H152622   2.236   1.728  14.383  0.2229  1.4493 -0.5895
10377TIP3    H252623   2.316   1.799  14.489  0.9357 -2.0063  1.3176
10378TIP3   OH252624   2.778   2.420  13.278 -0.1372  0.9082 -0.1423
10378TIP3    H152625   2.687   2.436  13.304 -0.3505  2.0406 -1.4718
10378TIP3    H252626   2.794   2.482  13.207  1.4949  0.3085 -0.3411
10379TIP3   OH252627   1.145   2.209  16.859  0.8484  0.2660 -0.4829
10379TIP3    H152628   1.099   2.156  16.794 -0.8327  0.8612  0.1708
10379TIP3    H252629   1.238   2.201  16.836  0.5427 -2.0183 -1.0670
10380TIP3   OH252630   4.756   2.276   0.689  0.1263  0.0816 -0.3041
10380TIP3    H152631   4.739   2.237   0.603 -0.8256  0.2768 -0.2126
10380TIP3    H252632   4.686   2.340   0.701 -0.1322 -0.4142  0.9131
10381TIP3   OH252633   0.316   6.286   5.960  0.7398  0.8482 -0.2598
10381TIP3    H152634   0.266   6.204   5.956 -0.5139  1.6316 -1.3050
10381TIP3    H252635   0.328   6.302   6.054  0.3148 -0.1124 -0.0301
10382TIP3   OH252636   2.662   2.479   6.405 -0.1134  0.9665  0.3286
10382TIP3    H152637   2.645   2.475   6.499  0.7250  0.8420  0.4755
10382TIP3    H252638   2.608   2.409   6.368  2.9188 -2.1056  1.2213
10383TIP3   OH252639   4.095   2.309  16.923 -0.7817  0.1089  0.3137
10383TIP3    H152640   4.172   2.359  16.895 -1.5602  1.5967  0.6876
10383TIP3    H252641   4.086   2.240  16.857 -0.0010  0.8236 -0.5859
10384TIP3   OH252642   0.272   3.107  14.340  0.7548 -0.8737  0.0789
10384TIP3    H152643   0.180   3.096  14.320  1.2320 -3.3112 -1.1467
10384TIP3    H252644   0.314   3.124  14.256  1.1592  4.0441  0.9459
10385TIP3   OH252645   1.753   5.533  14.581  0.5129  0.0522 -0.8032
10385TIP3    H152646   1.823   5.497  14.636  0.3964 -0.0866 -0.7419
10385TIP3    H252647   1.793   5.605  14.533  0.2463  1.2068  0.6256
10386TIP3   OH252648   1.774   6.801  11.954  0.6204  0.1211 -0.0549
10386TIP3    H152649   1.806   6.738  11.889  1.3864  1.5498 -1.1236
10386TIP3    H252650   1.679   6.798  11.946  0.6881 -0.1323 -0.8539
10387TIP3   OH252651   2.585   0.668  12.507  0.0585 -0.8580 -0.6281
10387TIP3    H152652   2.573   0.653  12.413 -0.7081 -0.0639 -0.6801
10387TIP3    H252653   2.677   0.651  12.523  0.2497 -0.7722 -1.5789
10388TIP3   OH252654   6.074   5.624  13.324 -0.1171 -0.1371 -0.1233
10388TIP3    H152655   6.080   5.719  13.321 -1.4761 -0.0190  0.2487
10388TIP3    H252656   6.159   5.593  13.292  0.0962  1.1865 -0.8769
10389TIP3   OH252657   3.310   3.143   6.640 -0.5314 -0.0091  0.0760
10389TIP3    H152658   3.241   3.081   6.661 -1.6985  0.7922 -1.2220
10389TIP3    H252659   3.264   3.220   6.606  0.9225  1.1582  0.6373
10390TIP3   OH252660   5.638   0.770  16.150 -0.3510  0.1773  0.0615
10390TIP3    H152661   5.604   0.716  16.221  0.0918  1.1746  1.0735
10390TIP3    H252662   5.673   0.848  16.194 -1.5978  1.6355 -1.3781
10391TIP3   OH252663   1.574   3.197   4.985  0.2684 -0.0079  0.1147
10391TIP3    H152664   1.576   3.280   4.937  0.4582  1.6385  2.7676
10391TIP3    H252665   1.666   3.168   4.987  0.2482 -0.1218 -0.5455
10392TIP3   OH252666   5.415   4.904   4.516  0.0940  0.0410  0.1244
10392TIP3    H152667   5.376   4.954   4.588  1.1818  0.6802  0.2788
10392TIP3    H252668   5.465   4.967   4.466 -2.5385  0.1401 -2.6871
10393TIP3   OH252669   1.973   3.934  11.373  0.1779 -0.5263 -0.1668
10393TIP3    H152670   1.976   3.989  11.451  1.6102  0.0774 -0.6156
10393TIP3    H252671   1.887   3.950  11.335  0.0491  0.3285  0.4644
10394TIP3   OH252672   6.010   5.270  14.264  0.5234 -0.5731 -0.5883
10394TIP3    H152673   6.017   5.293  14.356 -1.8586 -1.0714 -0.2136
10394TIP3    H252674   6.057   5.187  14.256  0.7058 -0.5450  0.1668
10395TIP3   OH252675   2.720   3.004   0.931  0.2589  0.0149 -0.1482
10395TIP3    H152676   2.710   3.099   0.939  1.4646  0.0711  1.0930
10395TIP3    H252677   2.678   2.969   1.009  2.7000 -0.2119  1.1469
10396TIP3   OH252678   5.426   6.335   1.625  0.6314 -0.3683  0.1373
10396TIP3    H152679   5.444   6.382   1.544 -2.7740 -2.0516 -1.7642
10396TIP3    H252680   5.389   6.402   1.683  1.2574  0.4351 -0.3567
10397TIP3   OH252681   5.532   5.904  12.573  0.6354 -0.4627 -0.5543
10397TIP3    H152682   5.534   5.995  12.601 -0.2482 -0.2468 -1.1561
10397TIP3    H252683   5.621   5.873  12.585  1.2372  0.8261 -1.4579
10398TIP3   OH252684   4.939   6.764   2.034 -0.2797 -0.1055  0.0466
10398TIP3    H152685   4.845   6.783   2.041 -0.3281 -0.5071  0.6234
10398TIP3    H252686   4.943   6.685   1.981 -0.1096  1.1756 -1.9256
10399TIP3   OH252687   3.004   5.015  13.397 -0.4108  0.4455  0.2153
10399TIP3    H152688   2.953   5.077  13.449  0.4369  0.9972  0.4140
10399TIP3    H252689   2.986   5.040  13.306  0.5157  1.5004  0.3019
10400TIP3   OH252690   6.555   0.802   5.480  0.6020  0.4362 -0.4690
10400TIP3    H152691   6.523   0.890   5.501  0.1922  0.1911 -0.0560
10400TIP3    H252692   6.507   0.744   5.539 -0.0230 -0.1957 -1.5552
10401TIP3   OH252693   5.756   3.099  11.049  0.0955 -0.2941  0.3917
10401TIP3    H152694   5.669   3.105  11.010  0.9764 -0.8668 -1.8302
10401TIP3    H252695   5.765   3.178  11.101 -1.5207  0.0654  0.1850
10402TIP3   OH252696   6.621   6.680   2.262 -0.4670  0.2846  0.2674
10402TIP3    H152697   6.661   6.675   2.349 -2.1749  3.7578  1.4662
10402TIP3    H252698   6.689   6.717   2.206 -0.2091  0.7911  0.8974
10403TIP3   OH252699   3.876   1.164  13.584  0.0993 -0.3087  0.0732
10403TIP3    H152700   3.861   1.250  13.622 -1.5767  0.1084 -1.4071
10403TIP3    H252701   3.896   1.108  13.659  2.0445  1.4899  0.9810
10404TIP3   OH252702   5.884   5.314  13.537 -0.4224 -0.6768 -0.1650
10404TIP3    H152703   5.886   5.259  13.459 -0.4819  2.1945 -2.3687
10404TIP3    H252704   5.865   5.402  13.503  2.6365  1.3085  2.7115
10405TIP3   OH252705   3.910   2.534   2.169  0.5739 -0.4665  0.2243
10405TIP3    H152706   3.893   2.470   2.238  0.0630  0.0037  0.5426
10405TIP3    H252707   3.864   2.613   2.198  4.0605  1.2443  1.6930
10406TIP3   OH252708   1.150   0.964  13.851  0.4130 -0.6618  0.2403
10406TIP3    H152709   1.201   1.044  13.840  0.0129 -0.2824  0.9892
10406TIP3    H252710   1.202   0.911  13.911  0.2143 -0.5284  0.5346
10407TIP3   OH252711   2.722   0.892  14.822  0.0585 -0.4653 -0.1029
10407TIP3    H152712   2.710   0.946  14.900  0.1555 -0.3937 -0.1393
10407TIP3    H252713   2.685   0.944  14.751  0.0788 -0.4811 -0.1247
10408TIP3   OH252714   4.223   5.153  12.497  0.3344 -0.0512  0.5405
10408TIP3    H152715   4.178   5.089  12.441 -0.4392 -0.9258  2.0979
10408TIP3    H252716   4.209   5.121  12.586  0.7987  1.7594  1.3112
10409TIP3   OH252717   4.943   0.040  13.052 -0.3422  0.0708 -0.3864
10409TIP3    H152718   4.858   0.058  13.093 -0.3461  1.7972 -1.0467
10409TIP3    H252719   4.941  -0.053  13.032 -1.1915 -0.3732  1.5642
10410TIP3   OH252720   1.780   6.068  14.743  0.3964 -0.1107 -0.3400
10410TIP3    H152721   1.704   6.036  14.695 -0.3066 -0.3067  0.8591
10410TIP3    H252722   1.821   6.131  14.683 -0.2052 -0.6478 -1.3428
10411TIP3   OH252723   1.815   1.597   3.502 -0.1964 -0.2113 -0.4446
10411TIP3    H152724   1.827   1.517   3.552  0.4174  0.0770 -0.1194
10411TIP3    H252725   1.858   1.579   3.418  1.0989  0.2252  0.1041
10412TIP3   OH252726   6.082   3.557   1.067 -0.5407 -0.1942 -0.0923
10412TIP3    H152727   6.074   3.488   1.000  1.9569 -0.9522  0.2669
10412TIP3    H252728   6.037   3.521   1.143 -2.1778  0.0712 -0.8834
10413TIP3   OH252729   5.035   2.675  14.095 -0.1662  0.0464 -0.0081
10413TIP3    H152730   5.015   2.658  14.187  0.7097 -0.7364  0.0569
10413TIP3    H252731   4.961   2.638  14.047  0.1492 -1.0365  0.3160
10414TIP3   OH252732   2.074   0.927  17.045 -0.0050 -0.5756 -0.1724
10414TIP3    H152733   2.141   0.912  16.979  1.3743 -1.1266  1.2834
10414TIP3    H252734   1.994   0.890  17.007  1.3533 -3.5489 -0.4092
10415TIP3   OH252735   4.123   0.047   3.242  0.4833 -0.2263  0.2657
10415TIP3    H152736   4.121   0.109   3.169  0.9364  0.7518  1.0691
10415TIP3    H252737   4.070  -0.027   3.212 -0.1936  0.6087 -0.6528
10416TIP3   OH252738   3.387   2.396   0.876 -0.2981  0.2407  0.1595
10416TIP3    H152739   3.468   2.398   0.926 -0.5438 -0.3834  0.5968
10416TIP3    H252740   3.414   2.388   0.785  0.1349  0.3253  0.2812
10417TIP3   OH252741   1.476   5.593  14.591  0.1444  0.1683  0.0912
10417TIP3    H152742   1.476   5.591  14.687  3.0037  0.3730  0.1764
10417TIP3    H252743   1.567   5.578  14.567 -0.5715 -0.3083 -2.6412
10418TIP3   OH252744   4.075   5.281   1.176  0.3402 -0.1457  0.2372
10418TIP3    H152745   4.094   5.305   1.086  1.4470  0.4779  0.6221
10418TIP3    H252746   4.029   5.357   1.213 -1.7700 -1.0904 -0.2772
10419TIP3   OH252747   0.628   6.455   1.577  0.4066 -0.0390 -0.6511
10419TIP3    H152748   0.587   6.468   1.491  0.3033  0.5020 -0.5272
10419TIP3    H252749   0.655   6.363   1.578  1.7877  0.3257 -1.8550
10420TIP3   OH252750   0.090   3.514  11.718  0.1369 -0.7074 -0.1085
10420TIP3    H152751   0.032   3.581  11.683  0.4756 -0.7510 -0.7669
10420TIP3    H252752   0.159   3.563  11.763 -1.2029 -0.6687  2.0465
10421TIP3   OH252753   3.082   2.590  14.614 -0.0803  0.4129  0.7393
10421TIP3    H152754   3.051   2.501  14.629  0.2187  0.3090  0.7519
10421TIP3    H252755   3.173   2.579  14.585 -0.8170  0.5643 -1.7838
10422TIP3   OH252756   4.055   4.172   5.042  0.1760 -0.1797 -0.5557
10422TIP3    H152757   4.123   4.106   5.030 -0.6800 -0.8436 -2.1703
10422TIP3    H252758   4.079   4.243   4.983 -0.1051 -0.0741 -0.5468
10423TIP3   OH252759   3.100   3.974  15.787 -0.3412  0.6331  0.0572
10423TIP3    H152760   3.117   3.880  15.779  0.8996  0.8917 -0.6630
10423TIP3    H252761   3.047   3.995  15.710  0.4367  0.7227 -0.4759
10424TIP3   OH252762   4.828   0.553  13.804 -0.8005  0.1140 -0.0086
10424TIP3    H152763   4.773   0.579  13.730 -1.0048  0.0560  0.1212
10424TIP3    H252764   4.800   0.609  13.876 -0.3312  0.4439 -0.0770
10425TIP3   OH252765   3.011   5.595   4.395 -0.4750 -0.6788 -0.4318
10425TIP3    H152766   3.011   5.511   4.348  0.5635 -0.0365 -1.6353
10425TIP3    H252767   2.982   5.572   4.484  0.7006 -2.4663 -0.4463
10426TIP3   OH252768   4.248   5.875  16.455  0.0616 -0.1221 -0.1155
10426TIP3    H152769   4.296   5.945  16.500 -1.4979  0.6348  0.4560
10426TIP3    H252770   4.276   5.882  16.364 -1.5209  2.6620 -0.5098
10427TIP3   OH252771   2.598   0.528  13.205 -0.0984 -0.1355 -0.0230
10427TIP3    H152772   2.516   0.492  13.237  0.1809 -1.8807 -1.1113
10427TIP3    H252773   2.658   0.521  13.279  0.2815 -3.1809 -0.4927
10428TIP3   OH252774   2.995   5.541   3.348  0.2833  0.3592 -0.0877
10428TIP3    H152775   3.036   5.591   3.277  1.2185 -1.0540 -0.5940
10428TIP3    H252776   2.914   5.589   3.368  1.1880  2.1068 -0.4537
10429TIP3   OH252777   5.423   4.725  13.099 -0.5656 -0.0551  0.0661
10429TIP3    H152778   5.407   4.631  13.100 -2.5502  0.2187 -1.3006
10429TIP3    H252779   5.336   4.764  13.112  0.2658  1.6077  0.9184
10430TIP3   OH252780   0.450   2.892  16.712  0.3100  0.1835  0.3556
10430TIP3    H152781   0.408   2.840  16.643 -0.0535 -0.1514  0.8139
10430TIP3    H252782   0.381   2.903  16.778  0.3610  1.3378  0.2231
10431TIP3   OH252783   5.132   6.849  12.310 -0.4592 -0.1557 -0.4737
10431TIP3    H152784   5.183   6.929  12.315 -2.0557  0.8480  1.0296
10431TIP3    H252785   5.067   6.866  12.241 -0.5009 -0.3352 -0.4801
10432TIP3   OH252786   1.190   1.640   3.828  0.4483 -0.4268 -0.1472
10432TIP3    H152787   1.263   1.688   3.790  1.7215 -1.2516  1.1430
10432TIP3    H252788   1.216   1.548   3.822  0.0134 -0.6690  1.2941
10433TIP3   OH252789   5.085   0.801  14.774 -0.3120 -0.3852 -0.1379
10433TIP3    H152790   5.024   0.846  14.715  1.1238  2.4608  0.3337
10433TIP3    H252791   5.163   0.787  14.721 -0.2524 -1.1129  0.1315
10434TIP3   OH252792   5.881   0.255  17.113  0.7324 -0.2147 -0.4392
10434TIP3    H152793   5.790   0.228  17.109  0.2955  0.6260  2.0598
10434TIP3    H252794   5.890   0.318  17.041 -1.2195  1.1531  0.4244
10435TIP3   OH252795   1.772   2.470  15.985  0.1798 -0.0323  0.3102
10435TIP3    H152796   1.765   2.500  15.894 -2.4163  2.0684  1.0539
10435TIP3    H252797   1.694   2.415  15.997  0.2151  0.1308  1.3654
10436TIP3   OH252798   5.202   6.538  14.561  0.0811 -0.6611 -0.3798
10436TIP3    H152799   5.218   6.517  14.469 -0.5708 -1.4912 -0.3048
10436TIP3    H252800   5.144   6.469  14.593  0.0502 -0.2129  0.5774
10437TIP3   OH252801   2.501   1.938  12.192 -0.1806 -0.1522 -0.3472
10437TIP3    H152802   2.518   1.937  12.098  0.3652  0.6669 -0.2617
10437TIP3    H252803   2.542   2.019  12.224  0.5517 -0.9317  0.7715
10438TIP3   OH252804   1.701   6.486  10.710  0.5542 -0.1274  0.3260
10438TIP3    H152805   1.682   6.578  10.694 -1.9810 -0.3486  1.5304
10438TIP3    H252806   1.796   6.482  10.720  0.7404  2.3063  0.0302
10439TIP3   OH252807   6.111   3.008   3.814  0.4661 -0.3413  0.0713
10439TIP3    H152808   6.096   3.101   3.830  0.7695  0.1007 -1.9457
10439TIP3    H252809   6.197   2.990   3.853  0.7512  0.4054 -0.2094
10440TIP3   OH252810   1.668   6.754   1.978  0.2340 -0.0879 -0.5252
10440TIP3    H152811   1.617   6.828   2.011 -0.2112 -0.3874 -0.5488
10440TIP3    H252812   1.636   6.740   1.889  1.2776  0.5750 -1.0369
10441TIP3   OH252813   5.777   6.509   5.874  0.1443 -0.2219  0.0733
10441TIP3    H152814   5.686   6.520   5.903  0.4005 -0.5326  1.0670
10441TIP3    H252815   5.787   6.568   5.800 -0.7269  0.1962  0.2784
10442TIP3   OH252816   3.899   2.158   5.615  0.6244  0.5573  0.2199
10442TIP3    H152817   3.977   2.171   5.562 -0.4128 -0.8138 -1.7818
10442TIP3    H252818   3.831   2.210   5.572 -0.1941 -0.4156  0.2737
10443TIP3   OH252819   3.157   2.767  12.722  0.4812  0.0098 -0.3696
10443TIP3    H152820   3.087   2.705  12.742  0.4726  0.5748  1.5129
10443TIP3    H252821   3.113   2.840  12.678  0.2555 -0.6053 -1.1859
10444TIP3   OH252822   3.749   4.645   5.652 -0.0844 -0.1554  0.0631
10444TIP3    H152823   3.683   4.614   5.590  0.0192  1.2984 -0.8082
10444TIP3    H252824   3.713   4.726   5.688  1.4224  0.9418 -0.8052
10445TIP3   OH252825   0.023   6.591  13.488 -0.4542 -0.9974  0.1838
10445TIP3    H152826  -0.048   6.534  13.516 -1.5987  0.4569  0.3866
10445TIP3    H252827   0.060   6.623  13.570  1.4541 -2.8639  0.1277
10446TIP3   OH252828   3.236   4.438  13.113  0.4376  0.7443  0.1644
10446TIP3    H152829   3.281   4.458  13.195  0.3496  1.0077  0.1510
10446TIP3    H252830   3.165   4.503  13.109 -1.1690 -0.8363  1.1324
10447TIP3   OH252831   3.942   2.551  10.990  0.0043 -0.3442 -0.3210
10447TIP3    H152832   3.921   2.493  10.916 -0.1406 -0.8902  0.1408
10447TIP3    H252833   4.016   2.603  10.958 -0.5430 -0.0415 -1.1184
10448TIP3   OH252834   2.898   4.868   0.541  0.5111  0.3259 -0.0296
10448TIP3    H152835   2.870   4.895   0.454  2.9280 -1.2569 -1.4025
10448TIP3    H252836   2.952   4.791   0.526  0.3057 -0.5284  2.9767
10449TIP3   OH252837   0.159   1.458  13.295 -0.0476 -1.2022  0.0735
10449TIP3    H152838   0.220   1.530  13.310 -0.6199 -0.6590 -0.1435
10449TIP3    H252839   0.118   1.478  13.211 -0.9130 -1.2666  0.4707
10450TIP3   OH252840   0.152   1.941  13.929  0.3294  0.2992 -0.0956
10450TIP3    H152841   0.084   1.892  13.883  1.6486 -0.8533 -0.9120
10450TIP3    H252842   0.131   1.932  14.022  0.8501 -2.4354 -0.1478
10451TIP3   OH252843   6.677   4.134   1.497  0.1638 -0.4404 -0.4030
10451TIP3    H152844   6.767   4.161   1.479 -0.2052  0.9362 -0.2962
10451TIP3    H252845   6.686   4.053   1.547  1.3460 -0.1773 -0.1586
10452TIP3   OH252846   3.178   3.905  17.088 -0.7462  0.1240  0.2416
10452TIP3    H152847   3.254   3.850  17.109  0.0702  1.2940  0.4897
10452TIP3    H252848   3.114   3.845  17.050  1.3557 -0.4848 -2.7022
10453TIP3   OH252849   6.521   1.840  17.138 -0.0470  0.1020  0.2720
10453TIP3    H152850   6.473   1.768  17.097 -2.6999  1.6666  0.3556
10453TIP3    H252851   6.551   1.805  17.221 -2.1194 -0.7080  0.7598
10454TIP3   OH252852   3.866   3.998   0.731  0.1783 -0.1757  0.0642
10454TIP3    H152853   3.932   3.962   0.672 -0.6253 -0.6501 -0.5638
10454TIP3    H252854   3.839   3.923   0.785  0.6822  0.1853  0.8434
10455TIP3   OH252855   3.533   5.004   1.336  0.1620 -0.1667 -0.1635
10455TIP3    H152856   3.455   4.983   1.285 -1.5823  1.2345  1.7518
10455TIP3    H252857   3.577   5.073   1.286 -0.5305 -0.0585 -0.6347
10456TIP3   OH252858   1.011   6.116  12.817 -0.7874 -0.0375  0.1586
10456TIP3    H152859   1.036   6.200  12.780 -1.4667 -0.2668 -0.8760
10456TIP3    H252860   1.053   6.051  12.761 -1.2728 -0.3947  0.1997
10457TIP3   OH252861   1.256   1.878   5.819 -0.4922 -0.0115  0.1439
10457TIP3    H152862   1.290   1.943   5.757  1.1052 -2.1175 -1.3422
10457TIP3    H252863   1.201   1.928   5.879 -1.8154  2.2226 -2.7352
10458TIP3   OH252864   2.565   0.663   3.695  0.6534 -0.0481 -0.0762
10458TIP3    H152865   2.506   0.715   3.750 -0.4248  0.1158 -1.3132
10458TIP3    H252866   2.520   0.660   3.610  1.0765 -2.3494 -0.2699
10459TIP3   OH252867   0.064   0.523  12.361 -0.2065  0.2527 -0.0325
10459TIP3    H152868   0.150   0.518  12.402  1.2527  2.2417 -2.5296
10459TIP3    H252869   0.017   0.589  12.412 -0.7876 -1.6473  2.0464
10460TIP3   OH252870   2.604   0.157  13.396 -0.1217 -0.0737  0.2348
10460TIP3    H152871   2.636   0.225  13.456  0.5546  0.1204 -0.3237
10460TIP3    H252872   2.509   0.166  13.397 -0.0558  0.6911  0.4011
10461TIP3   OH252873   1.947   5.121  16.762 -0.0018  0.4327  0.2995
10461TIP3    H152874   1.944   5.032  16.799 -1.3095  0.2562 -0.1874
10461TIP3    H252875   2.014   5.165  16.814  0.3376 -0.6993  0.8714
10462TIP3   OH252876   3.517   1.629  15.841 -0.2796 -0.1941  0.1489
10462TIP3    H152877   3.520   1.698  15.774 -2.2955 -0.3155 -0.1338
10462TIP3    H252878   3.453   1.661  15.905  1.9037  0.1128  2.3222
10463TIP3   OH252879   2.110   2.118  14.356 -0.2765 -0.3336  0.0291
10463TIP3    H152880   2.096   2.101  14.450  0.3659  0.8298  0.3525
10463TIP3    H252881   2.156   2.040  14.325 -0.6654 -0.8219  0.6308
10464TIP3   OH252882   3.119   0.922  11.374 -0.2899 -0.0073 -0.8275
10464TIP3    H152883   3.177   0.872  11.316  1.3665 -0.2008  0.9071
10464TIP3    H252884   3.143   1.013  11.359 -0.6313  0.0173 -1.2310
10465TIP3   OH252885   1.641   2.330  14.665 -0.3336 -0.0462 -0.0507
10465TIP3    H152886   1.581   2.403  14.680 -2.4898 -1.5651 -0.8016
10465TIP3    H252887   1.714   2.368  14.616 -1.6422  1.5185 -0.8757
10466TIP3   OH252888   2.463   5.747  15.167 -0.2718 -0.2034  0.1702
10466TIP3    H152889   2.477   5.671  15.111  0.3294  0.4593 -0.6013
10466TIP3    H252890   2.405   5.715  15.236  0.8752 -1.6533  0.5111
10467TIP3   OH252891   3.296   6.360   2.637 -0.1622  0.5398  0.6610
10467TIP3    H152892   3.215   6.319   2.667 -0.3521 -0.4820 -1.1155
10467TIP3    H252893   3.282   6.454   2.652 -0.5961  0.1684  2.7796
10468TIP3   OH252894   5.460   5.199  15.753 -0.1196  0.0887  0.2747
10468TIP3    H152895   5.426   5.163  15.671 -2.9138 -1.0433  1.7641
10468TIP3    H252896   5.546   5.235  15.730 -1.0349  0.4438 -3.2471
10469TIP3   OH252897   6.444   6.412   2.939  0.7773 -0.3929  0.7160
10469TIP3    H152898   6.458   6.500   2.903  0.8591 -0.6605  0.0785
10469TIP3    H252899   6.353   6.412   2.969 -0.1117 -0.9087 -1.7224
10470TIP3   OH252900   0.206   2.251  16.415  0.0683  0.7766 -0.9805
10470TIP3    H152901   0.191   2.182  16.350 -0.7488 -0.5382  0.5580
10470TIP3    H252902   0.291   2.288  16.390  1.1711 -1.6516 -1.1139
10471TIP3   OH252903   5.629   4.793  11.643 -0.0466 -0.0274 -0.1853
10471TIP3    H152904   5.582   4.873  11.619  1.7381  1.1591  0.0646
10471TIP3    H252905   5.566   4.743  11.696 -1.6685  0.5269 -1.5069
10472TIP3   OH252906   4.412   2.316   4.891 -0.6743  0.4453  0.2633
10472TIP3    H152907   4.479   2.248   4.889 -0.9397  0.1758  0.4571
10472TIP3    H252908   4.416   2.355   4.803 -0.0035  0.6973  0.3974
10473TIP3   OH252909   2.217   1.362   5.409 -0.4527  0.2841 -0.1048
10473TIP3    H152910   2.309   1.362   5.435  0.0813 -2.3979 -1.6186
10473TIP3    H252911   2.171   1.327   5.485 -0.0220  0.2456  0.1456
10474TIP3   OH252912   4.820   1.452  16.204 -0.4662 -0.3762 -0.0706
10474TIP3    H152913   4.855   1.465  16.292  0.1049  0.1615 -0.3699
10474TIP3    H252914   4.764   1.375  16.211 -0.0258 -0.6320  0.6463
10475TIP3   OH252915   1.949   3.802  15.317 -0.0497 -0.0086  0.4796
10475TIP3    H152916   1.861   3.833  15.296  0.4743  1.0336 -0.2376
10475TIP3    H252917   1.975   3.750  15.241  0.8837  1.7102 -0.4191
10476TIP3   OH252918   6.726   2.031   0.063 -0.8783 -0.5242 -0.1487
10476TIP3    H152919   6.811   1.988   0.073 -1.1909 -1.1410 -0.0971
10476TIP3    H252920   6.676   1.973   0.006 -1.6704 -0.7887  0.7799
10477TIP3   OH252921   3.791   5.454  16.655 -0.6886  0.3391  0.4841
10477TIP3    H152922   3.883   5.465  16.631 -0.2068 -1.7466  1.1532
10477TIP3    H252923   3.760   5.384  16.598 -1.8316  0.8686  0.4245
10478TIP3   OH252924   4.617   6.213   5.077  0.2163 -0.0060 -0.2447
10478TIP3    H152925   4.582   6.298   5.100  3.4518  1.9453 -1.7968
10478TIP3    H252926   4.687   6.197   5.141 -0.3662 -1.5645  0.0539
10479TIP3   OH252927   2.899   5.455  11.157  0.2468 -0.6473 -0.1610
10479TIP3    H152928   2.827   5.408  11.199 -0.0097 -0.6239 -0.5683
10479TIP3    H252929   2.927   5.520  11.222  0.2766 -1.0347  0.2136
10480TIP3   OH252930   1.965   3.920   4.379 -0.0543  0.5393 -0.4866
10480TIP3    H152931   2.057   3.940   4.399  0.5928 -0.4141 -2.2813
10480TIP3    H252932   1.932   4.000   4.338  0.1592  0.6560 -0.4372
10481TIP3   OH252933   4.109   4.199   4.663  0.2131 -0.3443 -0.0993
10481TIP3    H152934   4.186   4.147   4.638  0.8077  0.6181 -0.3127
10481TIP3    H252935   4.134   4.237   4.747 -1.0169 -2.0065  1.0948
10482TIP3   OH252936   0.128   4.857   4.331  0.0530  0.0520 -0.0982
10482TIP3    H152937   0.143   4.763   4.323 -0.8507 -0.0584 -0.5899
10482TIP3    H252938   0.215   4.894   4.346  0.5009 -0.7941 -0.5421
10483TIP3   OH252939   6.670   4.853  11.790  0.8719  0.0994 -0.0731
10483TIP3    H152940   6.757   4.888  11.772  0.6715  0.6300 -0.0143
10483TIP3    H252941   6.610   4.920  11.758  0.4932  0.4598  1.3467
10484TIP3   OH252942   5.404   5.772  11.745 -0.3782 -0.1032  0.2364
10484TIP3    H152943   5.399   5.838  11.814 -0.2761 -0.3191  0.4510
10484TIP3    H252944   5.314   5.739  11.737 -0.3980 -0.0498  0.2388
10485TIP3   OH252945   0.621   5.422  11.560 -0.5526  0.2261  0.1704
10485TIP3    H152946   0.576   5.472  11.492  0.4990  0.3341 -0.4532
10485TIP3    H252947   0.679   5.485  11.602  0.2073 -0.2861 -0.1061
10486TIP3   OH252948   1.761   5.978  15.010 -0.9192 -0.1537 -0.0705
10486TIP3    H152949   1.762   5.972  14.914 -0.7062  0.6607 -0.1280
10486TIP3    H252950   1.671   5.999  15.032 -0.9129 -0.0927 -0.1050
10487TIP3   OH252951   5.577   4.323   4.030  0.3063  0.0414  0.0188
10487TIP3    H152952   5.488   4.334   3.996 -0.2683  2.5133  2.0609
10487TIP3    H252953   5.566   4.314   4.124  2.0735 -3.2265  0.0687
10488TIP3   OH252954   4.895   0.067  15.209  0.7078 -0.3291  0.7883
10488TIP3    H152955   4.882   0.158  15.182 -0.6849 -0.1673  1.9199
10488TIP3    H252956   4.931   0.024  15.131  3.1061  1.5317  0.7316
10489TIP3   OH252957   6.336   3.400  15.449 -0.6645 -0.3077 -0.2319
10489TIP3    H152958   6.324   3.448  15.367 -0.3505  1.1766  0.5409
10489TIP3    H252959   6.430   3.390  15.458 -0.4109  2.5160  1.4829
10490TIP3   OH252960   4.388   3.611   5.245 -0.1727  0.2674  0.5435
10490TIP3    H152961   4.345   3.691   5.213  0.7626  0.4954 -0.1769
10490TIP3    H252962   4.389   3.553   5.169  3.0798  1.2274 -0.2934
10491TIP3   OH252963   2.451   5.431   4.540  0.0229  0.1355  0.0458
10491TIP3    H152964   2.377   5.489   4.554  0.5138  1.2786 -1.7734
10491TIP3    H252965   2.413   5.350   4.508 -0.5416  0.0573  0.8801
10492TIP3   OH252966   3.738   2.137  12.036 -0.2114 -0.2709 -0.2440
10492TIP3    H152967   3.691   2.162  12.116  0.8864 -0.3793  0.4438
10492TIP3    H252968   3.670   2.138  11.968 -1.4045 -1.2472  0.8736
10493TIP3   OH252969   0.545   0.122  12.282 -0.0947  0.2675  0.0840
10493TIP3    H152970   0.592   0.050  12.324 -0.6928  1.0959  2.3448
10493TIP3    H252971   0.452   0.097  12.289 -0.2087  0.4179 -0.7977
10494TIP3   OH252972   0.006   1.381  15.900 -0.0989  0.2087  0.1149
10494TIP3    H152973   0.024   1.474  15.913  3.0769 -0.2471 -0.2601
10494TIP3    H252974   0.075   1.335  15.948 -1.0586 -1.9529 -0.4237
10495TIP3   OH252975   5.490   2.248  11.001 -0.1758 -0.3427  0.2110
10495TIP3    H152976   5.569   2.266  11.053 -1.6505  0.0628  2.4461
10495TIP3    H252977   5.523   2.228  10.914  2.2595  2.5925  0.2835
10496TIP3   OH252978   0.595   5.297  12.028  0.0214  0.0126 -0.7996
10496TIP3    H152979   0.612   5.377  12.078 -1.2490  0.9819 -1.8601
10496TIP3    H252980   0.504   5.304  12.001 -0.1659 -1.8964 -0.7932
10497TIP3   OH252981   2.535   1.368   2.989  0.7985 -0.7915  0.7303
10497TIP3    H152982   2.484   1.314   2.929  0.8179  1.0163 -1.0190
10497TIP3    H252983   2.475   1.385   3.062  0.4194 -2.1973  0.7748
10498TIP3   OH252984   1.075   5.015  16.915  0.0658  0.7546  0.3114
10498TIP3    H152985   1.107   4.986  16.829  0.0687 -0.2730  0.6489
10498TIP3    H252986   0.980   5.013  16.908  0.0661  0.8493  0.2764
10499TIP3   OH252987   0.906   3.586  11.879 -0.4116  0.1074 -0.1494
10499TIP3    H152988   0.988   3.593  11.831  0.4295 -1.0697  1.0539
10499TIP3    H252989   0.920   3.515  11.942 -1.9936  0.5637  0.7914
10500TIP3   OH252990   1.352   1.240   1.558  0.7723 -0.2082  0.2228
10500TIP3    H152991   1.395   1.276   1.636 -0.3160  0.3761  0.5779
10500TIP3    H252992   1.324   1.152   1.584 -3.3366  1.3858  2.0682
10501TIP3   OH252993   4.118   3.015  14.367 -0.3056 -0.3979  0.2336
10501TIP3    H152994   4.063   3.050  14.297  0.3074  1.2051  0.5088
10501TIP3    H252995   4.208   3.034  14.339  0.2821 -3.7346 -0.6378
10502TIP3   OH252996   5.809   5.114   3.500 -0.7662 -0.2463  0.1074
10502TIP3    H152997   5.858   5.116   3.582 -1.0015  0.1973  0.2430
10502TIP3    H252998   5.781   5.023   3.490  0.4375 -0.6046 -0.1945
10503TIP3   OH252999   4.706   0.646  10.974 -0.1318 -0.9253  0.3249
10503TIP3    H153000   4.622   0.686  10.995 -0.2495  0.0202 -1.6512
10503TIP3    H253001   4.770   0.696  11.025 -0.6687 -0.9192  0.9978
10504TIP3   OH253002   5.895   0.432  13.525  0.9336 -0.0101  0.3232
10504TIP3    H153003   5.919   0.475  13.608  0.3603  2.3488 -0.6487
10504TIP3    H253004   5.934   0.487  13.458 -2.1314  0.6146 -1.1048
10505TIP3   OH253005   6.525   2.516  10.784  0.6044 -0.1407  0.0520
10505TIP3    H153006   6.545   2.429  10.820  0.1829 -0.7128 -1.0326
10505TIP3    H253007   6.486   2.564  10.857 -1.8227 -1.8245 -0.0164
10506TIP3   OH253008   4.602   6.312   2.911  0.0184 -0.5704  0.3441
10506TIP3    H153009   4.634   6.235   2.959  0.5031  0.7981  2.3301
10506TIP3    H253010   4.506   6.304   2.915 -0.2022  1.1599  4.7735
10507TIP3   OH253011   0.382   5.547   2.546  0.4774  0.3461  0.2323
10507TIP3    H153012   0.417   5.604   2.478 -3.2615  1.9646 -0.5855
10507TIP3    H253013   0.362   5.465   2.502  1.4166  0.0707  0.2938
10508TIP3   OH253014   2.792   2.348   5.890 -0.2065  0.1895  0.4241
10508TIP3    H153015   2.728   2.362   5.820 -0.2343  1.5940  0.7083
10508TIP3    H253016   2.799   2.433   5.934  0.8366 -0.3081  1.2643
10509TIP3   OH253017   5.577   4.419   5.422 -0.1694  0.2044 -0.3595
10509TIP3    H153018   5.609   4.347   5.368  2.5052  0.1495  1.1235
10509TIP3    H253019   5.590   4.497   5.368  0.9873 -0.0114 -0.4166
10510TIP3   OH253020   4.164   3.861   0.665  0.5939  0.3096  0.4438
10510TIP3    H153021   4.235   3.904   0.713  0.1944  0.5594  0.8148
10510TIP3    H253022   4.164   3.904   0.579 -0.4405  1.7783  1.1317
10511TIP3   OH253023   4.021   4.134  15.216 -0.5710 -0.2355 -0.2451
10511TIP3    H153024   3.950   4.116  15.278 -1.2629 -0.6528 -1.1425
10511TIP3    H253025   4.091   4.073  15.241  0.2130  1.3641  1.7660
10512TIP3   OH253026   2.548   1.000   5.030  0.1065  0.7515 -0.0911
10512TIP3    H153027   2.631   1.016   4.985 -0.1443  1.7983 -0.2084
10512TIP3    H253028   2.531   1.080   5.079 -0.2966  0.1279  0.8155
10513TIP3   OH253029   4.850   0.685   2.985  0.1102 -0.4031 -0.5919
10513TIP3    H153030   4.828   0.754   2.923  0.5674 -0.4841 -0.8446
10513TIP3    H253031   4.777   0.624   2.980 -0.2803  0.0433 -0.3907
10514TIP3   OH253032   1.165   2.757  12.891  0.1097 -0.1111  0.1923
10514TIP3    H153033   1.126   2.812  12.823  0.3771 -2.2051 -1.7589
10514TIP3    H253034   1.100   2.689  12.907  0.4026 -0.1141  1.4807
10515TIP3   OH253035   0.757   6.101  16.921 -0.0243 -0.2617  0.2015
10515TIP3    H153036   0.691   6.038  16.950  0.8801 -1.3384 -0.0142
10515TIP3    H253037   0.781   6.072  16.833  2.1712 -1.1557  1.0127
10516TIP3   OH253038   1.154   1.971   3.740  1.1419  0.1735  0.3754
10516TIP3    H153039   1.145   1.928   3.656  0.3481  1.0880 -0.0289
10516TIP3    H253040   1.116   2.058   3.727 -2.9509 -0.9789  2.7308
10517TIP3   OH253041   2.899   2.067  14.859 -0.5463  0.3423 -0.2875
10517TIP3    H153042   2.970   2.009  14.885  1.0319  2.3209  0.0080
10517TIP3    H253043   2.877   2.040  14.770  1.0606  0.1301 -0.6412
10518TIP3   OH253044   1.291   3.490  13.166 -0.4161 -0.4600  0.5668
10518TIP3    H153045   1.266   3.399  13.154 -1.5104 -0.3850  2.0443
10518TIP3    H253046   1.240   3.538  13.101 -1.2023 -0.7219  0.9792
10519TIP3   OH253047   2.364   5.260   3.714 -0.1678 -0.1473  0.1577
10519TIP3    H153048   2.416   5.215   3.781 -1.4957  0.2257  1.5017
10519TIP3    H253049   2.284   5.209   3.708  0.0915 -0.4070 -1.4959
10520TIP3   OH253050   0.484   5.291  16.007  0.3833 -0.1889 -0.2779
10520TIP3    H153051   0.531   5.294  16.090 -1.5666 -2.7339  1.0792
10520TIP3    H253052   0.419   5.361  16.013 -1.1413 -1.6526  1.3731
10521TIP3   OH253053   5.143   0.731   1.395  0.0483 -0.5655 -0.5000
10521TIP3    H153054   5.156   0.798   1.329  0.8616 -0.0959  0.1093
10521TIP3    H253055   5.188   0.764   1.472  0.6752 -1.9073 -0.2500
10522TIP3   OH253056   6.759   2.613   3.007 -0.4961  0.0964 -0.2053
10522TIP3    H153057   6.737   2.545   3.070  1.0135 -1.7157 -1.5322
10522TIP3    H253058   6.728   2.580   2.923 -0.6507  1.5219 -0.7349
10523TIP3   OH253059   3.833   3.130  12.320  0.0456 -1.0220  0.0535
10523TIP3    H153060   3.816   3.217  12.356  0.2053 -0.1653 -1.8126
10523TIP3    H253061   3.923   3.111  12.348 -0.3378 -1.0573  1.3245
10524TIP3   OH253062   2.824   4.285   0.038  0.9565  0.3908  0.3175
10524TIP3    H153063   2.830   4.313   0.129 -1.0798  0.7273  0.4097
10524TIP3    H253064   2.773   4.355  -0.004  0.9708 -0.2783 -0.8279
10525TIP3   OH253065   1.599   6.571   5.378  0.2010 -0.8849  0.3904
10525TIP3    H153066   1.669   6.583   5.442 -0.8111 -1.8819  1.7617
10525TIP3    H253067   1.520   6.560   5.431 -0.9702 -0.0359 -1.0989
10526TIP3   OH253068   0.903   4.608   3.809  0.1309  0.0999  0.1058
10526TIP3    H153069   0.833   4.623   3.873  0.6818 -0.6637  0.8995
10526TIP3    H253070   0.874   4.532   3.758 -0.6771  1.1812 -1.1073
10527TIP3   OH253071   2.875   6.082   4.190 -0.0876  0.1489 -0.5374
10527TIP3    H153072   2.926   6.149   4.144 -0.1751  0.9444  0.4845
10527TIP3    H253073   2.799   6.067   4.135  1.0145 -0.7477 -1.8776
10528TIP3   OH253074   4.973   1.965  12.667 -0.0369 -0.5620  0.3349
10528TIP3    H153075   4.887   1.922  12.675 -1.4596  2.3522  4.7270
10528TIP3    H253076   4.995   1.991  12.757  5.0127 -0.0921 -0.7399
10529TIP3   OH253077   4.476   1.926  11.498  0.1155  0.3082  0.6728
10529TIP3    H153078   4.563   1.886  11.504  0.1988  0.3455 -0.2832
10529TIP3    H253079   4.491   2.013  11.464 -0.3053  0.3141  0.4943
10530TIP3   OH253080   1.875   3.849   2.982 -1.0073 -0.9617  0.6389
10530TIP3    H153081   1.812   3.920   2.970 -0.9873 -1.0054  0.2378
10530TIP3    H253082   1.883   3.839   3.076 -1.9080 -1.2290  0.6937
10531TIP3   OH253083   6.766   0.426  15.992 -0.1428  0.2365  0.1597
10531TIP3    H153084   6.798   0.504  16.037 -1.0599 -0.0723  1.4265
10531TIP3    H253085   6.682   0.406  16.035 -0.4059 -0.8735 -0.7993
10532TIP3   OH253086   1.583   0.123  11.712  0.5887 -0.2729 -0.6069
10532TIP3    H153087   1.585   0.056  11.644 -0.5027  0.0615 -0.9787
10532TIP3    H253088   1.666   0.170  11.702 -0.0490  0.5242 -2.4771
10533TIP3   OH253089   2.025   1.391   2.548  0.0433  0.1302 -0.0340
10533TIP3    H153090   2.012   1.428   2.635  0.1873  0.5584 -0.1925
10533TIP3    H253091   2.113   1.419   2.524  0.4844 -0.9964  0.1778
10534TIP3   OH253092   6.655   2.826  10.504 -0.4022 -0.4848  0.0855
10534TIP3    H153093   6.581   2.836  10.445 -0.0499 -0.2480 -0.3155
10534TIP3    H253094   6.657   2.732  10.524  0.6902 -0.9172 -1.8647
10535TIP3   OH253095   4.224   3.138  16.009 -0.4440 -0.2432 -0.2800
10535TIP3    H153096   4.241   3.099  16.095 -1.6604 -0.8035 -0.2653
10535TIP3    H253097   4.172   3.216  16.029 -0.6286 -0.3109 -0.4921
10536TIP3   OH253098   0.249   0.750   4.818  0.1212 -0.4728  0.2172
10536TIP3    H153099   0.182   0.694   4.779  0.5829  0.8342 -2.7052
10536TIP3    H253100   0.204   0.831   4.839  0.6570  0.3861 -1.6934
10537TIP3   OH253101   0.258   1.467   0.558 -0.0546  1.0198 -0.0229
10537TIP3    H153102   0.220   1.550   0.588  1.0709  1.5779 -0.0841
10537TIP3    H253103   0.313   1.492   0.483  1.8495  0.5273  1.1537
10538TIP3   OH253104   3.709   3.932  15.787  0.4579 -0.2519  0.2754
10538TIP3    H153105   3.722   4.022  15.818 -1.9908  0.6832 -1.1209
10538TIP3    H253106   3.768   3.924  15.712 -0.1967  0.6969 -0.3778
10539TIP3   OH253107   2.413   2.204   0.999  0.2041  0.4163  0.1859
10539TIP3    H153108   2.490   2.180   0.947  0.5479  3.1211 -0.7047
10539TIP3    H253109   2.349   2.233   0.934 -1.4259 -1.1822  0.9588
10540TIP3   OH253110   0.368   0.399   0.588 -0.1059  0.3121  0.3146
10540TIP3    H153111   0.398   0.323   0.638  1.3611  0.9678  0.4893
10540TIP3    H253112   0.363   0.368   0.497 -1.0628 -0.3955  0.5838
10541TIP3   OH253113   0.107   4.157  15.048  0.2798 -0.2164  0.7787
10541TIP3    H153114   0.082   4.249  15.036 -0.8712 -0.6053  0.0667
10541TIP3    H253115   0.088   4.116  14.964  1.8514 -0.8931  0.7207
10542TIP3   OH253116   1.677   5.722  16.978 -0.5462 -0.0425  0.2158
10542TIP3    H153117   1.752   5.669  17.004  0.8755  2.1671  0.8415
10542TIP3    H253118   1.706   5.768  16.899 -1.6077  0.1164 -0.1014
10543TIP3   OH253119   1.616   2.639  11.497  0.2515 -0.2043 -0.3343
10543TIP3    H153120   1.709   2.621  11.485  0.3301  0.3064 -0.4999
10543TIP3    H253121   1.612   2.699  11.572  0.1717  0.8879 -1.1877
10544TIP3   OH253122   4.083   5.329  14.270 -0.4218 -0.2949  0.3198
10544TIP3    H153123   4.096   5.337  14.364 -0.9879  0.3211  0.3510
10544TIP3    H253124   4.133   5.251  14.245  1.2422  0.5694  0.8258
10545TIP3   OH253125   2.125   3.409   3.304 -0.0929 -0.6154  0.1837
10545TIP3    H153126   2.220   3.413   3.313 -0.0800  2.4613 -0.1516
10545TIP3    H253127   2.109   3.339   3.242  2.0166 -0.7715 -0.2397
10546TIP3   OH253128   2.424   4.770   5.397 -0.0962 -0.1390 -0.7191
10546TIP3    H153129   2.466   4.778   5.483  1.3441 -1.4491 -1.2504
10546TIP3    H253130   2.375   4.851   5.387  1.4149  0.9902  0.4546
10547TIP3   OH253131   6.712   1.026   1.271 -0.2634 -0.0254  0.2431
10547TIP3    H153132   6.742   1.055   1.185 -3.2248 -0.0770 -0.9076
10547TIP3    H253133   6.654   0.952   1.253 -0.7294 -0.2274  2.3230
10548TIP3   OH253134   6.151   6.251  15.449 -0.4350 -0.2734 -0.0205
10548TIP3    H153135   6.082   6.302  15.406  0.4997  0.9541 -0.1150
10548TIP3    H253136   6.176   6.186  15.384 -1.6248 -0.8728  0.0878
10549TIP3   OH253137   0.094   2.957  12.974 -0.1514  0.3972 -0.1893
10549TIP3    H153138   0.012   2.970  13.022 -0.7949 -1.6729 -0.6277
10549TIP3    H253139   0.090   3.020  12.902 -1.2849  0.4756 -0.0798
10550TIP3   OH253140   5.225   4.561  16.959  0.0690 -0.2745  0.1420
10550TIP3    H153141   5.313   4.566  16.923  0.1366  0.0045  0.3390
10550TIP3    H253142   5.173   4.517  16.892  0.2341  0.0730 -0.2111
10551TIP3   OH253143   6.346   2.557  12.523 -0.5361 -0.4993 -0.2106
10551TIP3    H153144   6.292   2.494  12.476  3.5046 -2.2538 -3.1616
10551TIP3    H253145   6.424   2.507  12.548  1.3413  2.5516  0.4983
10552TIP3   OH253146   1.380   4.116  11.661 -0.1503  0.4567 -0.2155
10552TIP3    H153147   1.290   4.084  11.670 -0.2852  0.3299 -1.7195
10552TIP3    H253148   1.370   4.201  11.618  0.4559  0.4109 -0.4509
10553TIP3   OH253149   2.583   3.642   1.536 -0.8725  0.2392  0.2807
10553TIP3    H153150   2.497   3.685   1.542  0.1099  2.1606  2.0850
10553TIP3    H253151   2.585   3.582   1.610 -1.1045 -0.7355 -0.4906
10554TIP3   OH253152   4.050   3.615  17.101 -0.2618 -0.3311  0.2215
10554TIP3    H153153   3.974   3.567  17.068 -0.8659  0.1557  0.8653
10554TIP3    H253154   4.077   3.671  17.029 -0.1239 -0.9535 -0.2209
10555TIP3   OH253155   3.783   6.488  13.729  0.7511 -0.1093 -0.1609
10555TIP3    H153156   3.850   6.448  13.784  0.3831  0.7561  0.9554
10555TIP3    H253157   3.720   6.417  13.713  0.6848 -0.2830  0.8402
10556TIP3   OH253158   3.590   1.427   1.320 -0.3157 -0.3977  0.4270
10556TIP3    H153159   3.561   1.394   1.235 -0.0670 -1.1053  0.6073
10556TIP3    H253160   3.673   1.382   1.336  0.5789  1.1040  0.2112
10557TIP3   OH253161   3.056   6.548  12.741 -0.3325  0.1991 -0.7255
10557TIP3    H153162   3.052   6.505  12.656  0.3735  0.4061 -0.8694
10557TIP3    H253163   3.075   6.640  12.721 -0.4230  0.3030 -0.3539
10558TIP3   OH253164   6.765   0.979   2.236 -0.1138 -0.2073  0.7007
10558TIP3    H153165   6.830   0.910   2.239  0.9468  0.6567 -0.8748
10558TIP3    H253166   6.783   1.033   2.313  0.0362 -0.8065  1.0916
10559TIP3   OH253167   6.404   3.664  10.910 -0.2558  0.3368 -0.5938
10559TIP3    H153168   6.337   3.626  10.854  1.5395 -0.8340 -2.0819
10559TIP3    H253169   6.457   3.718  10.850 -0.4375  2.0809  0.7348
10560TIP3   OH253170   5.744   3.948   3.942 -0.0345 -0.2991  0.3054
10560TIP3    H153171   5.653   3.949   3.913 -0.4093  0.0163  1.4307
10560TIP3    H253172   5.794   3.985   3.869 -1.0840  1.6902  0.5264
10561TIP3   OH253173   0.002   2.216   2.623  0.5226 -0.0407 -0.4419
10561TIP3    H153174   0.077   2.198   2.567  1.2599 -0.4852  0.6463
10561TIP3    H253175   0.040   2.258   2.701 -0.5311  1.0683 -0.5016
10562TIP3   OH253176   0.610   4.493   3.841  1.0370  0.0128 -0.0671
10562TIP3    H153177   0.616   4.509   3.935 -1.5884  2.5389 -0.2092
10562TIP3    H253178   0.516   4.501   3.821  1.5929  0.2437 -3.0097
10563TIP3   OH253179   4.140   2.146  15.339 -0.4373  0.0418 -0.0330
10563TIP3    H153180   4.110   2.142  15.430  0.0444  0.2174  0.1371
10563TIP3    H253181   4.230   2.175  15.345 -0.1017 -0.8480 -0.5160
10564TIP3   OH253182   0.357   0.026   2.703 -0.2958 -0.0128 -0.2869
10564TIP3    H153183   0.320   0.089   2.766 -2.8546 -1.8722  0.1898
10564TIP3    H253184   0.288  -0.037   2.688  1.4666 -1.5963 -2.3705
10565TIP3   OH253185   0.134   1.459   0.271  0.1882 -0.3267  0.1468
10565TIP3    H153186   0.150   1.368   0.245 -0.4151 -0.2668 -0.4491
10565TIP3    H253187   0.050   1.456   0.318  0.9147 -0.3182  1.4881
10566TIP3   OH253188   2.611   0.428   4.201 -0.1599  0.5562  0.1127
10566TIP3    H153189   2.517   0.418   4.188  0.2778 -1.1511 -2.3633
10566TIP3    H253190   2.635   0.502   4.144  0.2254 -0.2122 -0.7569
10567TIP3   OH253191   3.721   2.467  13.301 -0.0142  0.2764  0.7072
10567TIP3    H153192   3.712   2.399  13.234  1.3596  1.4484 -0.7320
10567TIP3    H253193   3.736   2.419  13.383  1.4401 -1.1478 -0.3473
10568TIP3   OH253194   0.913   0.378  15.436  0.3438  0.0450  0.3510
10568TIP3    H153195   0.882   0.463  15.405  0.3742 -0.0621  0.0152
10568TIP3    H253196   0.940   0.332  15.356 -0.8471 -0.7474  0.3747
10569TIP3   OH253197   0.358   3.544  11.343  0.1167  1.2200 -0.1662
10569TIP3    H153198   0.286   3.516  11.286  0.6327  0.9615 -0.7093
10569TIP3    H253199   0.434   3.552  11.284  0.9438 -0.1529  0.6397
10570TIP3   OH253200   0.774   3.855   0.957  0.0224  0.1230  0.4696
10570TIP3    H153201   0.715   3.882   1.028 -1.3512 -0.8892 -0.2360
10570TIP3    H253202   0.731   3.779   0.918  1.5235 -0.2732 -0.4716
10571TIP3   OH253203   5.936   2.648  13.978 -0.4144  0.4896 -0.6211
10571TIP3    H153204   5.973   2.638  14.066  2.5402 -0.4587 -1.8114
10571TIP3    H253205   5.868   2.581  13.973 -0.6489  0.5743  0.9200
10572TIP3   OH253206   0.802   3.091   5.045  0.0919 -0.5402  0.5398
10572TIP3    H153207   0.768   3.036   5.116 -0.9348 -1.5774 -0.6987
10572TIP3    H253208   0.725   3.110   4.992  0.5877  1.4211  0.4616
10573TIP3   OH253209   2.379   4.758  13.352  0.6447 -0.2015  0.4176
10573TIP3    H153210   2.304   4.752  13.293  1.2132 -1.3190 -0.2121
10573TIP3    H253211   2.365   4.689  13.416 -0.0372  1.0917  1.7052
10574TIP3   OH253212   5.006   3.899  11.594 -0.0610  0.3579 -0.0094
10574TIP3    H153213   4.972   3.880  11.506 -0.2314  2.1528 -0.3678
10574TIP3    H253214   4.997   3.994  11.603  1.9758  0.5047  1.0945
10575TIP3   OH253215   6.480   6.218   5.163 -0.0387 -0.1793  0.2727
10575TIP3    H153216   6.492   6.172   5.080 -1.0695 -0.1143  0.0736
10575TIP3    H253217   6.493   6.310   5.141  1.4797 -0.2994  0.5618
10576TIP3   OH253218   3.177   5.957  16.194 -0.2986  0.3628  0.0309
10576TIP3    H153219   3.221   5.887  16.146 -1.8210  0.2967 -1.3365
10576TIP3    H253220   3.247   5.997  16.246  0.6987 -1.8793  0.5515
10577TIP3   OH253221   4.826   5.432   3.057 -0.1153  0.8489 -0.1989
10577TIP3    H153222   4.855   5.346   3.023 -1.4424  0.7656 -1.1946
10577TIP3    H253223   4.850   5.430   3.149  0.1523 -0.4770 -0.2675
10578TIP3   OH253224   5.443   4.737   4.935 -0.0859  0.3512  0.0896
10578TIP3    H153225   5.372   4.673   4.940 -1.7005  2.0599  0.0395
10578TIP3    H253226   5.465   4.741   4.842  1.8858 -1.9508  0.3307
10579TIP3   OH253227   5.296   5.081   4.691  0.3972 -0.1835  0.5065
10579TIP3    H153228   5.278   5.067   4.784 -1.5346  1.1141  0.3678
10579TIP3    H253229   5.230   5.144   4.662  1.1656 -0.2893 -1.6803
10580TIP3   OH253230   0.857   6.079  16.663 -0.0052  0.2118  0.0679
10580TIP3    H153231   0.876   6.107  16.574  0.9226 -3.6223 -1.1337
10580TIP3    H253232   0.939   6.039  16.693 -0.8137 -0.1167  1.9843
10581TIP3   OH253233   6.164   4.592  11.487  0.2160 -0.6356 -0.3280
10581TIP3    H153234   6.085   4.646  11.482 -0.2788 -1.3885 -0.9480
10581TIP3    H253235   6.134   4.508  11.523  0.7074 -0.9550 -0.6489
10582TIP3   OH253236   1.999   5.397   0.127  0.3280  0.0362 -0.4958
10582TIP3    H153237   1.952   5.367   0.204  1.0236 -1.4374 -0.6121
10582TIP3    H253238   2.050   5.472   0.157 -1.6854  1.3777 -0.2665
10583TIP3   OH253239   6.721   0.136  15.998 -0.4906 -0.1470  0.0814
10583TIP3    H153240   6.724   0.222  15.957  1.7091  0.0025  0.4395
10583TIP3    H253241   6.712   0.074  15.926 -1.2719  0.3168 -0.2331
10584TIP3   OH253242   0.428   5.219   1.964 -0.2325 -0.5311 -0.0331
10584TIP3    H153243   0.345   5.201   1.921 -0.1127 -0.5091 -0.2721
10584TIP3    H253244   0.405   5.228   2.057 -0.0866 -3.4354  0.3749
10585TIP3   OH253245   0.610   6.842  15.459  0.1603  0.3477  0.0202
10585TIP3    H153246   0.525   6.885  15.467 -0.9398 -0.8218 -3.2769
10585TIP3    H253247   0.668   6.892  15.516 -2.8016  0.8176  2.9416
10586TIP3   OH253248   6.038   2.829  14.799  0.0159 -0.2087 -0.1870
10586TIP3    H153249   6.020   2.774  14.875 -2.4255 -1.0419 -1.2424
10586TIP3    H253250   6.037   2.769  14.725  1.4686  0.7077 -0.9944
10587TIP3   OH253251   4.188   6.283   1.782  0.2851  0.2220  0.7042
10587TIP3    H153252   4.180   6.259   1.874  2.1210  0.3945  0.9491
10587TIP3    H253253   4.246   6.359   1.782 -0.3579  0.7464 -0.5425
10588TIP3   OH253254   5.707   4.911  13.424 -0.9350 -0.0689  0.5064
10588TIP3    H153255   5.711   4.819  13.447 -3.5730 -0.5591 -0.6532
10588TIP3    H253256   5.615   4.935  13.435 -0.4670  2.2123 -0.0068
10589TIP3   OH253257   1.845   4.763  16.137  0.0850  0.2871  0.1703
10589TIP3    H153258   1.845   4.806  16.051 -0.7633  0.1849  0.1109
10589TIP3    H253259   1.937   4.761  16.163  0.4664 -0.5213 -1.1649
10590TIP3   OH253260   3.753   4.080  13.387 -0.0755 -0.3024 -0.6761
10590TIP3    H153261   3.816   4.083  13.460  0.1432 -1.5260 -0.8014
10590TIP3    H253262   3.801   4.119  13.314  0.5575 -1.2051 -0.7662
10591TIP3   OH253263   2.932   2.911   2.528 -0.5344  0.1346  0.7495
10591TIP3    H153264   2.892   2.845   2.585 -0.4922 -2.2267 -1.7318
10591TIP3    H253265   2.873   2.916   2.452  0.5046  1.5019 -0.0166
10592TIP3   OH253266   5.678   0.023   5.521 -0.1418  0.0920  0.4751
10592TIP3    H153267   5.626   0.016   5.601  1.8677 -1.1009  1.7378
10592TIP3    H253268   5.699  -0.068   5.498  2.3806  0.5408  0.7209
10593TIP3   OH253269   6.283   5.989   4.333 -0.0342  0.1815 -0.2113
10593TIP3    H153270   6.227   6.014   4.406 -0.5769 -1.0584 -0.1777
10593TIP3    H253271   6.346   5.927   4.370  2.5617  2.8569  0.1445
10594TIP3   OH253272   1.239   5.960   1.262  0.3075 -0.5022 -0.5818
10594TIP3    H153273   1.199   5.875   1.279 -1.5277  0.1516 -1.3388
10594TIP3    H253274   1.189   5.996   1.188  1.6136  0.8574 -0.8603
10595TIP3   OH253275   5.151   5.642   2.980 -0.6654 -0.4967  0.4479
10595TIP3    H153276   5.118   5.591   3.054  0.4213 -0.2852  1.1024
10595TIP3    H253277   5.209   5.707   3.020 -0.2965 -0.1883 -0.5686
10596TIP3   OH253278   5.069   5.574  12.665 -0.4737  0.4943 -0.2410
10596TIP3    H153279   5.099   5.633  12.597  0.2084  0.6394  0.1825
10596TIP3    H253280   5.109   5.607  12.745 -0.6417 -0.1353  0.1072
10597TIP3   OH253281   0.872   5.246  17.115  0.2284  0.0199 -0.7379
10597TIP3    H153282   0.857   5.153  17.132 -0.2070  0.1547 -0.3733
10597TIP3    H253283   0.786   5.280  17.090 -0.0421  0.7140  0.9955
10598TIP3   OH253284   1.437   6.063   1.431  0.2654  0.6719 -0.2156
10598TIP3    H153285   1.350   6.034   1.405  0.1114  0.1320  0.8952
10598TIP3    H253286   1.490   5.983   1.434  0.8582  1.0120 -1.0482
10599TIP3   OH253287   3.498   3.447   3.418  0.3418 -0.1046  0.6264
10599TIP3    H153288   3.413   3.427   3.457  0.5584 -0.4671  0.9205
10599TIP3    H253289   3.546   3.364   3.422  0.4289 -0.1032 -0.2580
10600TIP3   OH253290   3.463   6.562   5.083 -0.3852 -0.7986 -0.2940
10600TIP3    H153291   3.443   6.642   5.131 -1.1738 -1.3951  0.4003
10600TIP3    H253292   3.399   6.560   5.012  0.9394  0.2127 -1.5836
10601TIP3   OH253293   0.308   5.834   2.137 -0.0403 -0.1644 -0.2325
10601TIP3    H153294   0.269   5.892   2.071  0.3007  0.4916  0.1302
10601TIP3    H253295   0.242   5.827   2.206  0.5630  1.1600  0.5058
10602TIP3   OH253296   4.242   5.184  10.844  0.6513 -0.0779 -0.3449
10602TIP3    H153297   4.255   5.202  10.937 -1.9267  0.9581 -0.1083
10602TIP3    H253298   4.267   5.092  10.834  1.0408 -0.1845  1.3582
10603TIP3   OH253299   1.819   3.817   5.136 -0.1588 -0.5826  0.3296
10603TIP3    H153300   1.826   3.896   5.082 -0.1419 -0.7217  0.1303
10603TIP3    H253301   1.908   3.783   5.140 -0.4461 -1.5863 -1.0700
10604TIP3   OH253302   5.071   1.901   5.215  0.6082  0.4345  0.3308
10604TIP3    H153303   5.056   1.990   5.185 -0.3191 -0.3769 -1.8406
10604TIP3    H253304   5.160   1.881   5.186  0.0872  0.0028 -1.0250
10605TIP3   OH253305   4.000   0.948  16.044 -0.6994 -0.6332  0.0112
10605TIP3    H153306   3.972   1.016  15.983  0.0030 -1.6514 -1.5282
10605TIP3    H253307   4.095   0.959  16.049 -0.4138 -2.1458 -1.1706
10606TIP3   OH253308   5.870   5.339   6.410 -0.0676  0.3375 -0.3741
10606TIP3    H153309   5.869   5.262   6.467  0.4629  0.4709 -0.1811
10606TIP3    H253310   5.778   5.367   6.406 -0.1197  0.2807  0.3471
10607TIP3   OH253311   1.981   2.532   2.802  0.2773  0.2638  0.5596
10607TIP3    H153312   1.954   2.467   2.867  0.7462 -0.6817 -0.1598
10607TIP3    H253313   1.906   2.541   2.744  0.7694 -0.9142 -0.3095
10608TIP3   OH253314   6.209   1.819  13.549 -0.0812  0.2426 -0.0220
10608TIP3    H153315   6.116   1.818  13.569 -0.2597 -0.5610 -0.8444
10608TIP3    H253316   6.214   1.797  13.456  0.8215  2.2542 -0.5026
10609TIP3   OH253317   6.166   6.168  16.127 -0.4477  0.2644 -0.8141
10609TIP3    H153318   6.146   6.190  16.218  0.8956 -0.2288 -0.3691
10609TIP3    H253319   6.083   6.179  16.081 -1.1140  0.7104  0.4258
10610TIP3   OH253320   6.002   4.678   1.723 -0.0072 -0.0822  0.2823
10610TIP3    H153321   5.935   4.725   1.771  0.2746  0.5477  0.0702
10610TIP3    H253322   6.079   4.736   1.725  0.0062 -0.0320 -0.9258
10611TIP3   OH253323   6.159   0.462  13.055 -0.1467 -0.1169 -0.0439
10611TIP3    H153324   6.252   0.444  13.059 -0.2654 -0.5800  0.8101
10611TIP3    H253325   6.153   0.547  13.011  0.7469  0.4061  0.7966
10612TIP3   OH253326   1.200   1.813   0.095 -0.2627 -0.1174  0.1168
10612TIP3    H153327   1.140   1.740   0.110  0.9104 -0.8990  1.2024
10612TIP3    H253328   1.223   1.843   0.183 -1.8616  2.5780 -0.2692
10613TIP3   OH253329   6.597   1.582  17.050  0.1680 -0.2056 -0.4219
10613TIP3    H153330   6.558   1.582  16.962 -0.4255 -0.2653 -0.1608
10613TIP3    H253331   6.672   1.641  17.042 -2.1061  2.9914 -0.0170
10614TIP3   OH253332   4.705   2.753  15.014  0.1151 -0.2803  0.4007
10614TIP3    H153333   4.653   2.762  15.093  0.5171  1.3766  0.5143
10614TIP3    H253334   4.659   2.688  14.961 -1.1504 -0.0553  1.2040
10615TIP3   OH253335   3.351   2.687  12.532 -0.4498  0.9509  0.0861
10615TIP3    H153336   3.292   2.693  12.456 -1.2419 -0.1045  0.5890
10615TIP3    H253337   3.293   2.670  12.606  0.4470  0.4651  0.6897
10616TIP3   OH253338   0.043   2.026  11.298  0.0775  0.3754  0.3214
10616TIP3    H153339   0.121   1.971  11.292 -0.4254 -0.2017 -1.3850
10616TIP3    H253340  -0.016   1.977  11.356  0.0222 -0.4201 -0.3870
10617TIP3   OH253341   6.003   6.477  13.435  0.5957 -0.3909  0.5701
10617TIP3    H153342   6.074   6.467  13.371  3.1639  3.3879  2.4495
10617TIP3    H253343   5.929   6.510  13.384  1.7863  0.2190 -0.8348
10618TIP3   OH253344   4.990   0.530   5.510 -0.1926 -0.1951 -0.1831
10618TIP3    H153345   5.067   0.473   5.513 -0.6491 -1.2078 -3.7488
10618TIP3    H253346   4.959   0.534   5.601  2.1559 -2.3749  0.8124
10619TIP3   OH253347   1.670   1.684  14.171 -0.5449 -0.1682  0.2936
10619TIP3    H153348   1.712   1.761  14.209  0.3438 -0.2907 -0.3942
10619TIP3    H253349   1.583   1.682  14.209  0.3741 -0.4429  2.5220
10620TIP3   OH253350   1.894   3.520   5.660 -0.4194 -0.2686 -0.0959
10620TIP3    H153351   1.859   3.491   5.745 -2.1028  1.5099 -0.1120
10620TIP3    H253352   1.818   3.551   5.612  0.6679 -0.2003 -1.8612
10621TIP3   OH253353   5.057   3.569   1.568 -0.3087 -0.1384  0.0954
10621TIP3    H153354   5.133   3.625   1.551  0.4617 -1.2889 -0.3779
10621TIP3    H253355   5.044   3.520   1.487 -2.0660  0.5872 -0.1073
10622TIP3   OH253356   5.196   0.907  13.138 -0.3343  0.5706  0.1662
10622TIP3    H153357   5.178   0.825  13.185  1.2879 -0.3307 -0.6898
10622TIP3    H253358   5.145   0.899  13.058 -0.8833  0.8217  0.4849
10623TIP3   OH253359   2.988   1.523  15.076 -0.5941 -0.3023  0.0208
10623TIP3    H153360   3.036   1.548  14.997  0.7334 -1.6524  0.3482
10623TIP3    H253361   3.029   1.573  15.147 -0.2407 -0.8102  0.1783
10624TIP3   OH253362   5.430   4.576   3.580 -0.0741 -0.8122  0.0256
10624TIP3    H153363   5.464   4.611   3.498 -0.4125 -1.6968 -0.5076
10624TIP3    H253364   5.357   4.520   3.553  0.4327 -1.8849  0.8470
10625TIP3   OH253365   4.679   2.851   4.534 -0.3549 -0.3062  0.3033
10625TIP3    H153366   4.592   2.819   4.509 -1.2481  2.3098 -0.1906
10625TIP3    H253367   4.670   2.876   4.626 -0.8340  2.0083 -0.3169
10626TIP3   OH253368   4.771   6.213  11.508 -0.0657 -0.0686  0.2390
10626TIP3    H153369   4.848   6.194  11.453 -1.4690 -1.5689 -1.3484
10626TIP3    H253370   4.707   6.147  11.481 -2.5464  2.2080  0.2409
10627TIP3   OH253371   6.650   6.736  11.270  0.3533  0.8807 -0.3330
10627TIP3    H153372   6.603   6.798  11.215 -0.7935  0.4101  0.0893
10627TIP3    H253373   6.678   6.666  11.210 -1.9653 -0.2658 -0.1964
10628TIP3   OH253374   6.300   4.743   3.510 -0.5991  0.1418 -0.0335
10628TIP3    H153375   6.220   4.691   3.506 -0.4434 -0.0772 -0.3344
10628TIP3    H253376   6.351   4.714   3.435  1.1120 -1.9109  1.7754
10629TIP3   OH253377   2.184   2.216   1.167  0.1050 -0.1547 -0.1725
10629TIP3    H153378   2.235   2.209   1.086  2.5929  0.8057  1.1851
10629TIP3    H253379   2.220   2.148   1.224  0.1112  0.7303  0.9363
10630TIP3   OH253380   3.722   6.223  10.208 -0.2737 -0.0781  0.6778
10630TIP3    H153381   3.786   6.266  10.265  1.6954  0.2161 -1.6043
10630TIP3    H253382   3.746   6.131  10.211 -0.7525 -0.1963  1.0008
10631TIP3   OH253383   3.970   2.336   4.557 -0.0331  0.0546  0.0204
10631TIP3    H153384   4.046   2.309   4.505  0.3127  0.2191  0.4296
10631TIP3    H253385   4.008   2.363   4.641 -0.5118  0.4584  0.1094
10632TIP3   OH253386   6.365   6.473   1.392  0.4274  0.2024  0.3480
10632TIP3    H153387   6.359   6.420   1.472 -0.2011 -0.0006  0.1656
10632TIP3    H253388   6.440   6.436   1.345  0.1022 -0.4276  0.3030
10633TIP3   OH253389   1.676   6.300   1.021  0.0154 -0.1511  0.7479
10633TIP3    H153390   1.700   6.208   1.021  0.7274  0.0249 -0.3937
10633TIP3    H253391   1.582   6.300   1.003  0.0090 -0.6490  0.7646
10634TIP3   OH253392   6.802   1.978  12.418  0.3044 -0.8533  0.0217
10634TIP3    H153393   6.827   2.048  12.358 -0.4115 -0.9130 -0.3534
10634TIP3    H253394   6.879   1.922  12.423  1.1033  0.2878  0.8065
10635TIP3   OH253395   2.139   1.250   2.318  0.5979 -0.2101 -0.0193
10635TIP3    H153396   2.085   1.217   2.246  1.6034 -0.2032 -0.7873
10635TIP3    H253397   2.079   1.253   2.393 -0.7593  0.7614 -1.0798
10636TIP3   OH253398   0.529   2.240   4.057  0.0172  0.5324 -0.2071
10636TIP3    H153399   0.616   2.216   4.025 -0.2551 -1.0918  0.2022
10636TIP3    H253400   0.492   2.159   4.091 -1.8237  1.1035 -0.7083
10637TIP3   OH253401   6.009   1.256  13.994 -0.2290 -0.4940 -0.6688
10637TIP3    H153402   6.072   1.237  14.064  2.7956 -0.2355 -3.1037
10637TIP3    H253403   5.974   1.343  14.016 -1.6110 -1.5914  1.9216
10638TIP3   OH253404   1.532   4.645   2.940  0.1272 -0.5480 -0.0277
10638TIP3    H153405   1.552   4.636   2.847 -0.4058 -1.4740 -0.0660
10638TIP3    H253406   1.448   4.690   2.942 -0.4453 -1.5662 -0.0563
10639TIP3   OH253407   2.608   2.450  10.681  0.4995  0.2097  0.1500
10639TIP3    H153408   2.574   2.479  10.596  2.2144  0.5430 -0.4637
10639TIP3    H253409   2.696   2.487  10.686  0.0838  1.0548  2.5510
10640TIP3   OH253410   4.990   1.588  14.138  0.1283 -0.1058  0.2339
10640TIP3    H153411   4.907   1.591  14.185  1.0836 -1.8267  2.1998
10640TIP3    H253412   5.031   1.506  14.166  2.8581  1.0529  0.0044
10641TIP3   OH253413   1.858   6.456   3.306  0.1073  0.0751  0.3569
10641TIP3    H153414   1.939   6.413   3.334 -0.4481 -0.7216  0.7725
10641TIP3    H253415   1.838   6.417   3.221 -0.1582 -0.1649  0.5283
10642TIP3   OH253416   4.239   0.496  13.042 -0.3079  0.6409 -0.7507
10642TIP3    H153417   4.182   0.423  13.017 -0.2905  0.7038 -0.9698
10642TIP3    H253418   4.247   0.487  13.137  0.1226  0.0419 -0.8340
10643TIP3   OH253419   4.126   0.170   0.126  0.1666 -0.1520 -0.5062
10643TIP3    H153420   4.188   0.163   0.199  1.4318  0.2797 -1.5030
10643TIP3    H253421   4.145   0.094   0.071 -0.6904 -0.4028 -0.4725
10644TIP3   OH253422   2.437   4.415   3.775 -0.0009  0.1607 -0.2008
10644TIP3    H153423   2.486   4.361   3.713  1.1913  1.7561 -0.7389
10644TIP3    H253424   2.352   4.372   3.784  0.7211 -1.4943 -0.9630
10645TIP3   OH253425   0.153   0.303  16.614  0.4916  0.1226  0.2172
10645TIP3    H153426   0.232   0.290  16.561 -0.4182  1.3322 -1.5765
10645TIP3    H253427   0.165   0.389  16.654  0.5927 -0.2055  0.8894
10646TIP3   OH253428   1.752   0.837  12.809 -0.2822  0.1426 -0.8009
10646TIP3    H153429   1.663   0.808  12.825  0.3425 -1.2693  0.3622
10646TIP3    H253430   1.743   0.929  12.783 -2.0417  0.0514 -0.6352
10647TIP3   OH253431   5.586   6.187   2.258 -0.3437 -0.6651 -0.2796
10647TIP3    H153432   5.520   6.131   2.218 -1.2169 -0.2717  0.5537
10647TIP3    H253433   5.539   6.269   2.277  0.5095 -0.2009 -0.1112
10648TIP3   OH253434   4.974   5.231  13.419  0.2358 -0.5429  0.4107
10648TIP3    H153435   5.019   5.212  13.337  0.1310 -0.1578  0.2570
10648TIP3    H253436   5.013   5.313  13.449 -1.6234  0.8368 -0.6944
10649TIP3   OH253437   3.798   5.871  11.938 -0.2966 -0.4150  0.2133
10649TIP3    H153438   3.743   5.930  11.990 -0.5741 -0.2142 -0.2932
10649TIP3    H253439   3.745   5.852  11.860  0.9114  1.0212 -1.0430
10650TIP3   OH253440   6.325   0.215  12.060 -0.6144 -0.0850 -0.0368
10650TIP3    H153441   6.308   0.287  12.000  0.3588  0.4379  0.3061
10650TIP3    H253442   6.284   0.242  12.142 -2.0300 -0.8429 -0.4556
10651TIP3   OH253443   0.785   5.756  14.378  0.1332  0.2382  0.4957
10651TIP3    H153444   0.756   5.731  14.291  0.3309  0.0755  0.4780
10651TIP3    H253445   0.783   5.852  14.377 -1.0689  0.2311  0.7113
10652TIP3   OH253446   5.372   6.007  14.639  0.0902 -0.0065  0.1532
10652TIP3    H153447   5.453   6.035  14.597  0.3624 -0.3809  0.4101
10652TIP3    H253448   5.348   5.926  14.594 -0.3441  0.2916 -0.1639
10653TIP3   OH253449   3.031   2.418  12.997  0.2507 -0.0844 -0.1758
10653TIP3    H153450   3.121   2.450  13.009  0.7806 -1.5477  0.0004
10653TIP3    H253451   3.035   2.326  13.024 -1.3091 -0.1722 -0.1795
10654TIP3   OH253452   0.547   2.831  10.950  0.5049  0.5514  1.1064
10654TIP3    H153453   0.460   2.799  10.973 -0.2219 -0.3516 -2.2618
10654TIP3    H253454   0.570   2.892  11.020 -3.7578  2.5274  1.0766
10655TIP3   OH253455   1.144   3.040  13.950 -0.2718  0.5002  0.1093
10655TIP3    H153456   1.211   3.046  13.883 -1.0373 -1.8692 -0.9604
10655TIP3    H253457   1.094   3.122  13.941  0.0300  0.5236 -1.7725
10656TIP3   OH253458   1.359   3.639  12.700 -0.5566  0.2031  0.3972
10656TIP3    H153459   1.293   3.680  12.643 -0.3298 -2.3061 -1.8247
10656TIP3    H253460   1.318   3.558  12.730  0.5163 -0.0333  1.2844
10657TIP3   OH253461   3.581   3.618   3.196 -0.1330 -0.2144  0.3056
10657TIP3    H153462   3.545   3.568   3.269 -0.2298 -0.4181  0.1198
10657TIP3    H253463   3.577   3.709   3.225 -0.6518 -0.2485  0.3481
10658TIP3   OH253464   0.239   4.186  16.302 -0.4994 -0.3384  0.5287
10658TIP3    H153465   0.226   4.277  16.277 -1.3860 -0.7456 -0.6008
10658TIP3    H253466   0.150   4.151  16.312 -0.2014 -1.4359 -0.4602
10659TIP3   OH253467   5.277   3.327  11.632  0.6032 -0.1699  0.2505
10659TIP3    H153468   5.195   3.319  11.584  0.0256  2.2025  0.7150
10659TIP3    H253469   5.324   3.397  11.587  0.6797  1.1204  2.2122
10660TIP3   OH253470   3.993   2.338  13.795 -0.0972 -0.0903 -0.1984
10660TIP3    H153471   3.899   2.352  13.784 -0.3811 -0.8351  1.0194
10660TIP3    H253472   4.028   2.424  13.819 -0.6175  0.0115  0.2113
10661TIP3   OH253473   6.337   1.850   3.888  0.1882  0.7604 -0.6155
10661TIP3    H153474   6.378   1.776   3.932  0.5556  1.0726 -0.4341
10661TIP3    H253475   6.288   1.895   3.957  0.8183  1.2876 -0.5070
10662TIP3   OH253476   6.273   6.488  15.006 -0.5849  0.1294  0.2748
10662TIP3    H153477   6.319   6.554  14.954 -1.5169  2.7857  2.5561
10662TIP3    H253478   6.183   6.491  14.975 -1.0549  1.4312  1.6583
10663TIP3   OH253479   2.971   3.444  13.197 -0.3134 -0.0993 -0.0859
10663TIP3    H153480   2.895   3.434  13.140  0.0996 -3.4138 -0.2759
10663TIP3    H253481   2.953   3.386  13.271  2.2238 -1.4537 -0.4320
10664TIP3   OH253482   2.103   4.592  13.003  0.3243 -0.4485 -0.2558
10664TIP3    H153483   2.089   4.635  12.919 -1.2145  1.8302  1.0654
10664TIP3    H253484   2.048   4.513  12.999 -0.5309  0.1650 -1.0212
10665TIP3   OH253485   2.692   3.955   2.040  0.0247  0.0262  0.0204
10665TIP3    H153486   2.715   4.003   2.120 -2.9025  0.9291  0.4411
10665TIP3    H253487   2.694   4.022   1.971 -1.7622  0.3057  0.1899
10666TIP3   OH253488   0.718   6.036  12.753  0.0423  0.0784  0.0704
10666TIP3    H153489   0.811   6.053  12.765  0.3823 -0.8813 -0.9978
10666TIP3    H253490   0.706   5.945  12.780 -0.6829  0.3275  0.6256
10667TIP3   OH253491   6.008   6.187   5.884  0.1047 -0.2882  0.0174
10667TIP3    H153492   5.950   6.156   5.955  0.2347 -2.7127 -0.8524
10667TIP3    H253493   6.057   6.259   5.924 -0.6752 -0.7823  2.0291
10668TIP3   OH253494   1.526   6.496  13.540 -0.0493  0.1741  0.0063
10668TIP3    H153495   1.448   6.531  13.498  0.6615  1.4962 -0.2874
10668TIP3    H253496   1.501   6.409  13.570 -1.4834  0.3943 -0.4854
10669TIP3   OH253497   2.355   0.946   2.598 -0.6044 -0.2422  0.1594
10669TIP3    H153498   2.385   0.867   2.644 -0.7034  0.2141  1.0202
10669TIP3    H253499   2.364   1.016   2.662 -0.3982  0.4773 -0.6439
10670TIP3   OH253500   3.900   2.426   5.126 -0.1043 -0.2811  0.0349
10670TIP3    H153501   3.914   2.410   5.219  0.1818 -1.3341 -0.1740
10670TIP3    H253502   3.988   2.437   5.091 -0.2917  2.6879  0.2818
10671TIP3   OH253503   0.674   5.090   0.833  0.2644 -0.4958  0.8447
10671TIP3    H153504   0.608   5.157   0.819  1.3154  0.5317  0.6995
10671TIP3    H253505   0.739   5.131   0.890  2.3700 -0.3968 -1.4930
10672TIP3   OH253506   2.489   2.249  17.072 -0.0695  0.0969  0.1259
10672TIP3    H153507   2.577   2.269  17.106 -0.6600  0.7123  1.3488
10672TIP3    H253508   2.465   2.166  17.114 -1.0030  1.1075  1.7132
10673TIP3   OH253509   5.243   0.080   1.471  0.1705 -0.3448 -0.2025
10673TIP3    H153510   5.277   0.030   1.397  2.5336 -1.1848  1.3306
10673TIP3    H253511   5.218   0.013   1.535  2.3176  0.2873  1.4352
10674TIP3   OH253512   3.177   2.902   4.174 -0.2901  0.3399  0.4160
10674TIP3    H153513   3.270   2.878   4.177 -0.4058  0.0055  1.3711
10674TIP3    H253514   3.169   2.976   4.234 -1.0658 -1.1374  2.2250
10675TIP3   OH253515   2.749   2.899   3.875 -0.0029  0.1282 -0.0375
10675TIP3    H153516   2.811   2.908   3.803 -1.5726  1.7264 -1.2915
10675TIP3    H253517   2.734   2.805   3.883  1.9186 -0.2359 -0.2216
10676TIP3   OH253518   3.439   3.907  14.234 -0.1736  0.1107  0.3309
10676TIP3    H153519   3.465   3.929  14.145 -1.0247 -1.2038 -0.2617
10676TIP3    H253520   3.520   3.914  14.285  0.4464  0.2532 -0.6456
10677TIP3   OH253521   4.293   4.719   4.123  0.2406 -0.0890 -0.3237
10677TIP3    H153522   4.305   4.625   4.111  0.5657 -0.0503 -0.3248
10677TIP3    H253523   4.250   4.748   4.043 -1.8571 -0.5784  0.5672
10678TIP3   OH253524   3.357   6.671  12.018 -0.0018  0.6380  0.6520
10678TIP3    H153525   3.449   6.687  12.037 -0.4177  1.2976  2.2442
10678TIP3    H253526   3.317   6.759  12.017 -0.4930  0.4367 -0.8604
10679TIP3   OH253527   5.361   6.105   2.031 -0.5259 -0.0451 -0.3928
10679TIP3    H153528   5.268   6.115   2.054 -1.4373  2.4359 -4.2271
10679TIP3    H253529   5.362   6.032   1.969  0.7890 -2.2983  2.0789
10680TIP3   OH253530   6.274   0.352   1.012  0.0238 -0.1433  0.4924
10680TIP3    H153531   6.184   0.325   1.029  0.0369 -0.9832 -0.6298
10680TIP3    H253532   6.266   0.442   0.980 -0.2949  0.2092  1.5368
10681TIP3   OH253533   3.394   3.144  11.323 -0.0865  0.1410 -0.3155
10681TIP3    H153534   3.455   3.078  11.354  1.4050  0.1496 -2.9336
10681TIP3    H253535   3.312   3.096  11.307  0.4509 -0.7172 -0.5378
10682TIP3   OH253536   0.679   5.135  13.165  0.1560 -0.3435 -0.1709
10682TIP3    H153537   0.729   5.058  13.192 -0.5862 -0.8383 -0.1982
10682TIP3    H253538   0.588   5.108  13.172 -0.0920 -0.0041 -1.7822
10683TIP3   OH253539   3.864   0.864  15.386  0.0809 -0.3813 -0.4438
10683TIP3    H153540   3.850   0.952  15.351  0.0130 -0.3013 -0.2173
10683TIP3    H253541   3.811   0.861  15.465  2.1666  0.3530  1.0971
10684TIP3   OH253542   2.781   1.429  14.479 -0.4220 -0.0654  0.1590
10684TIP3    H153543   2.698   1.399  14.516 -0.0603  1.0260  1.9936
10684TIP3    H253544   2.847   1.374  14.521  0.0021  1.2255  1.2412
10685TIP3   OH253545   3.532   4.205  10.812 -0.4114  0.3728 -0.3667
10685TIP3    H153546   3.593   4.239  10.877 -0.0722 -0.6432 -0.1319
10685TIP3    H253547   3.582   4.204  10.730 -0.4514  0.5197 -0.3932
10686TIP3   OH253548   1.274   0.253  15.472 -0.5229  0.7426 -0.0647
10686TIP3    H153549   1.255   0.170  15.428 -1.1265  0.1374  1.2831
10686TIP3    H253550   1.267   0.319  15.403 -0.1462 -0.2962 -1.1379
10687TIP3   OH253551   6.692   6.044  13.274  0.0431  0.4518 -0.2420
10687TIP3    H153552   6.673   6.094  13.195  0.5819 -1.3366 -1.5729
10687TIP3    H253553   6.608   6.036  13.319 -0.6972 -0.2044 -1.6854
10688TIP3   OH253554   0.129   0.765  10.988  0.5926 -0.4647 -0.3952
10688TIP3    H153555   0.211   0.813  10.979  0.3181  0.4277  1.4325
10688TIP3    H253556   0.076   0.794  10.913  0.8901  1.1610 -0.0114
10689TIP3   OH253557   2.445   1.386  11.858  0.2194 -0.1787 -0.0907
10689TIP3    H153558   2.378   1.342  11.910  1.0301 -0.8629  0.3989
10689TIP3    H253559   2.402   1.466  11.827 -0.8564 -0.6603  0.1041
10690TIP3   OH253560   1.088   4.394  16.999 -0.3791  0.8383  0.5068
10690TIP3    H153561   1.070   4.477  16.955  1.7221  2.0095  1.7493
10690TIP3    H253562   1.088   4.329  16.928  1.2736  2.4229 -1.0397
10691TIP3   OH253563   2.752   6.287  14.980 -0.4953 -0.3403  0.2827
10691TIP3    H153564   2.841   6.318  14.962 -0.0604 -0.5918  1.8075
10691TIP3    H253565   2.699   6.366  14.977 -0.1288 -0.1043 -0.1197
10692TIP3   OH253566   4.106   3.965   0.397 -0.3321 -0.0922  0.5822
10692TIP3    H153567   4.057   4.039   0.431 -0.0757 -0.5416  1.9757
10692TIP3    H253568   4.045   3.922   0.337 -0.5875  1.0456 -0.0096
10693TIP3   OH253569   6.421   4.945  12.415 -0.0527 -0.5088 -0.3510
10693TIP3    H153570   6.382   4.859  12.429 -0.3949 -0.2254  0.4739
10693TIP3    H253571   6.354   5.007  12.443  0.7679 -0.0049  0.5498
10694TIP3   OH253572   0.364   3.231   5.748 -0.1050  0.7714 -0.2417
10694TIP3    H153573   0.458   3.223   5.735 -0.3903  0.5412 -2.4307
10694TIP3    H253574   0.327   3.152   5.707 -1.4038  2.1491 -1.8380
10695TIP3   OH253575   2.158   0.986  12.034  0.0839 -0.1787  0.0498
10695TIP3    H153576   2.186   1.048  12.101  0.9908  0.6990 -1.0892
10695TIP3    H253577   2.086   0.938  12.074  0.9992 -0.1272  1.8701
10696TIP3   OH253578   3.446   3.081  16.902  0.1847 -0.2164 -0.2923
10696TIP3    H153579   3.395   3.021  16.848  3.1650 -1.9383 -1.4174
10696TIP3    H253580   3.449   3.162  16.850  0.3955 -0.8325 -1.2784
10697TIP3   OH253581   3.492   5.139  11.667  0.1197  0.2562  0.6091
10697TIP3    H153582   3.412   5.104  11.704 -0.0039 -0.2322 -0.0978
10697TIP3    H253583   3.528   5.067  11.615 -0.2173  1.1919 -0.9996
10698TIP3   OH253584   0.359   0.291  11.733  0.4160  0.3419  0.4064
10698TIP3    H153585   0.346   0.369  11.680  1.4357  0.0871 -0.2407
10698TIP3    H253586   0.344   0.218  11.672 -3.3594 -0.1093  1.6003
10699TIP3   OH253587   3.883   1.864   0.261 -0.3749  0.1024  0.2343
10699TIP3    H153588   3.878   1.835   0.352 -3.0704 -2.5793 -0.6123
10699TIP3    H253589   3.863   1.786   0.209 -0.5506  1.8724 -2.6237
10700TIP3   OH253590   4.912   2.985   4.398 -0.1705  0.1904  0.2882
10700TIP3    H153591   4.902   3.044   4.473 -0.2518  0.4159  0.1030
10700TIP3    H253592   4.876   2.902   4.428 -0.2565  0.2969  0.4827
10701TIP3   OH253593   4.242   0.800  16.389  0.1496 -0.3260 -0.4688
10701TIP3    H153594   4.160   0.823  16.432  0.6139 -0.1092  0.3258
10701TIP3    H253595   4.238   0.845  16.304  0.2773  1.3090  0.3370
10702TIP3   OH253596   5.799   5.887   1.961  0.5805 -0.1836 -0.2326
10702TIP3    H153597   5.743   5.827   2.009  1.0587  0.2009  0.8201
10702TIP3    H253598   5.762   5.889   1.872 -1.2347  0.2584  0.4949
10703TIP3   OH253599   2.115   1.737  15.408  0.0081 -0.6282 -0.1153
10703TIP3    H153600   2.140   1.652  15.445  1.6486  0.0992  0.5311
10703TIP3    H253601   2.146   1.735  15.318 -0.1965 -0.8128 -0.1818
10704TIP3   OH253602   0.396   3.358  16.638  0.5494 -0.0071 -0.0675
10704TIP3    H153603   0.333   3.321  16.576  1.2872  1.7616 -2.0096
10704TIP3    H253604   0.363   3.447  16.655  0.0784 -0.6091  2.5983
10705TIP3   OH253605   5.062   4.955  12.429 -0.2160 -0.3611 -0.0121
10705TIP3    H153606   4.997   5.015  12.394 -1.4233 -1.0842  0.9182
10705TIP3    H253607   5.018   4.912  12.503  1.3409 -0.8071  0.7025
10706TIP3   OH253608   3.647   6.691   4.705 -0.2160  0.1350  0.1780
10706TIP3    H153609   3.594   6.619   4.739  0.6030 -1.3610 -1.5077
10706TIP3    H253610   3.669   6.665   4.615  1.3128  1.8317 -0.0250
10707TIP3   OH253611   1.715   4.349   2.983 -0.2809 -0.1356  0.4499
10707TIP3    H153612   1.664   4.429   2.975 -1.9554 -1.1872  0.1147
10707TIP3    H253613   1.756   4.338   2.897 -0.4164  0.1202  0.3535
10708TIP3   OH253614   0.204   6.044   1.923 -0.2702  0.6725  0.1360
10708TIP3    H153615   0.130   6.093   1.887 -1.0438 -1.5495 -1.5533
10708TIP3    H253616   0.281   6.083   1.883 -0.7818  1.0888 -0.4530
10709TIP3   OH253617   1.486   6.297   2.990 -0.3114 -0.0465 -0.0223
10709TIP3    H153618   1.554   6.341   2.939  0.5701  0.4292  1.5224
10709TIP3    H253619   1.423   6.366   3.010 -1.7230 -0.6267 -2.0774
10710TIP3   OH253620   4.170   1.436   1.416  0.3130  0.0165 -0.5045
10710TIP3    H153621   4.220   1.465   1.340 -0.7535 -1.4003 -1.8292
10710TIP3    H253622   4.161   1.341   1.404  1.1728 -0.4545  2.0750
10711TIP3   OH253623   2.141   1.699   3.475 -0.0282 -0.1831  0.3131
10711TIP3    H153624   2.087   1.760   3.425  1.4703  0.5333 -0.4941
10711TIP3    H253625   2.231   1.723   3.454  0.6238 -1.9993  0.8060
10712TIP3   OH253626   3.299   5.139   0.632  0.1455 -0.1384  0.3645
10712TIP3    H153627   3.387   5.128   0.666  0.3372 -0.6275 -0.2632
10712TIP3    H253628   3.285   5.062   0.577  0.1905  1.0469 -1.3868
10713TIP3   OH253629   1.332   3.852   4.128  0.8060  0.3700 -0.4328
10713TIP3    H153630   1.300   3.836   4.217  2.6348 -0.1375  0.1794
10713TIP3    H253631   1.309   3.943   4.110  0.0869  0.3685  0.4240
10714TIP3   OH253632   2.486   5.224  16.146 -0.7291  0.1709 -0.3642
10714TIP3    H153633   2.472   5.317  16.126 -3.2793  0.5969  2.6429
10714TIP3    H253634   2.496   5.221  16.241  1.0123 -2.5355 -0.5277
10715TIP3   OH253635   6.805   2.395   5.722  0.0575  0.1245  0.0772
10715TIP3    H153636   6.758   2.363   5.799  2.0280 -0.9111  0.9371
10715TIP3    H253637   6.787   2.489   5.719 -3.4289 -0.4376 -0.7172
10716TIP3   OH253638   6.344   0.614  14.066  0.4712  0.1680  0.3008
10716TIP3    H153639   6.357   0.620  14.161 -1.3363  0.1284  0.5848
10716TIP3    H253640   6.315   0.524  14.051  0.7566  0.1698 -0.2908
10717TIP3   OH253641   4.146   3.636  12.758  0.6062 -0.0052 -0.2733
10717TIP3    H153642   4.131   3.726  12.785  0.6362 -0.5911  1.9096
10717TIP3    H253643   4.241   3.625  12.762  0.5112 -0.5538  1.1237
10718TIP3   OH253644   0.925   2.028   3.272 -0.1429  0.0453 -0.0537
10718TIP3    H153645   0.945   2.100   3.331  0.6097 -0.4311  0.2982
10718TIP3    H253646   0.833   2.008   3.288  0.0965 -0.2100  1.1312
10719TIP3   OH253647   3.806   3.712   2.772  0.7849  0.8842 -0.2588
10719TIP3    H153648   3.809   3.713   2.867 -2.2686 -0.4472 -0.0042
10719TIP3    H253649   3.845   3.628   2.747  0.9097  0.8988 -0.1059
10720TIP3   OH253650   4.749   3.353   2.012  0.1334  0.2279  0.3095
10720TIP3    H153651   4.707   3.316   1.934  0.4341  0.6565 -0.0576
10720TIP3    H253652   4.827   3.299   2.024  0.2923  0.4082  0.0853
10721TIP3   OH253653   4.519   3.634  13.158 -0.0024  0.0371  0.1357
10721TIP3    H153654   4.444   3.658  13.212 -0.2071 -0.9965  0.3345
10721TIP3    H253655   4.516   3.695  13.084  1.3693  2.7334  2.1483
10722TIP3   OH253656   1.733   6.026  17.085  0.5739 -0.1628  0.2552
10722TIP3    H153657   1.651   6.037  17.132  0.3341  2.8361 -0.6459
10722TIP3    H253658   1.709   6.024  16.992  1.5286  2.6447 -0.1449
10723TIP3   OH253659   3.144   2.663  13.855  1.1068 -0.1483  0.3598
10723TIP3    H153660   3.202   2.616  13.795  0.2080 -1.4092  0.4254
10723TIP3    H253661   3.175   2.638  13.942  2.2198  1.4388  0.4589
10724TIP3   OH253662   4.704   4.496   3.758 -0.1030 -0.0903  0.4388
10724TIP3    H153663   4.746   4.582   3.754 -0.2206  0.0043  1.0999
10724TIP3    H253664   4.755   4.448   3.824  0.1917 -0.6560 -0.1925
10725TIP3   OH253665   1.488   6.065   1.799  0.5025  0.3151 -0.2578
10725TIP3    H153666   1.418   6.079   1.864  0.6511  0.9940 -0.2371
10725TIP3    H253667   1.524   6.152   1.784  2.7991 -0.2495  1.3627
10726TIP3   OH253668   4.029   0.926   1.226  0.3152 -0.0762  0.1353
10726TIP3    H153669   4.107   0.879   1.254  1.0421  0.7231 -0.4658
10726TIP3    H253670   3.979   0.862   1.176  1.0422 -0.3568 -0.2463
10727TIP3   OH253671   6.195   6.128   1.639  0.4755  0.0618  0.1175
10727TIP3    H153672   6.198   6.201   1.701  2.2421 -1.0809  1.4920
10727TIP3    H253673   6.255   6.064   1.676 -0.9201 -2.0549 -1.1260
10728TIP3   OH253674   2.900   4.479  11.994  0.0086 -0.0719  0.0691
10728TIP3    H153675   2.878   4.387  12.010 -1.2494  0.2021  0.0221
10728TIP3    H253676   2.848   4.527  12.058 -0.0297  0.6592 -0.4979
10729TIP3   OH253677   5.324   2.812   0.525  0.4134 -0.3207 -0.2944
10729TIP3    H153678   5.272   2.868   0.467  0.3688  1.4768  1.3714
10729TIP3    H253679   5.411   2.810   0.486  0.1065 -0.0509 -0.9923
10730TIP3   OH253680   5.634   6.121  11.900  0.2336  0.2934 -0.0232
10730TIP3    H153681   5.705   6.130  11.963  0.8693  0.0610 -0.6914
10730TIP3    H253682   5.675   6.081  11.823 -0.6618 -0.0320 -0.3461
10731TIP3   OH253683   4.556   0.412   4.800  0.3674  0.0456 -0.1766
10731TIP3    H153684   4.573   0.499   4.838  0.2908 -0.3016  0.6648
10731TIP3    H253685   4.600   0.351   4.859 -1.8755 -0.7188  0.8287
10732TIP3   OH253686   3.833   4.485  16.827  0.2942  0.0069  0.4587
10732TIP3    H153687   3.779   4.545  16.776  0.3099  0.1041  0.5585
10732TIP3    H253688   3.920   4.525  16.829  0.4899 -0.3697 -0.0892
10733TIP3   OH253689   2.053   4.596  11.192  0.0831 -0.0107 -0.1712
10733TIP3    H153690   1.991   4.540  11.145  0.3509 -0.5556  0.1120
10733TIP3    H253691   2.119   4.535  11.226 -0.6941  0.2096  1.8888
10734TIP3   OH253692   1.975   4.751  11.873  0.4018 -0.1691 -1.0661
10734TIP3    H153693   1.975   4.701  11.954 -0.3730 -0.2051 -1.0811
10734TIP3    H253694   1.954   4.840  11.899 -2.5660 -0.6637 -1.4775
10735TIP3   OH253695   3.667   3.619   4.833 -0.3919  0.5841  0.1546
10735TIP3    H153696   3.666   3.528   4.803  0.1402  1.4344 -2.7006
10735TIP3    H253697   3.759   3.644   4.834 -0.6090  1.4834 -0.4986
10736TIP3   OH253698   2.330   5.206  10.767 -0.9429  0.4336  0.1507
10736TIP3    H153699   2.247   5.197  10.720 -0.9263  1.0872 -0.0177
10736TIP3    H253700   2.351   5.299  10.759 -1.1560  0.6536  1.8278
10737TIP3   OH253701   4.428   1.953  12.366  0.0915 -0.0933  0.4528
10737TIP3    H153702   4.382   1.889  12.311 -0.6493 -1.2153  2.2632
10737TIP3    H253703   4.359   2.011  12.398  0.4589  0.3578  0.4332
10738TIP3   OH253704   5.731   2.794  13.085 -0.1395  0.2455 -0.3064
10738TIP3    H153705   5.814   2.757  13.055  0.0751  0.0902  0.4748
10738TIP3    H253706   5.730   2.883  13.048  1.5269  1.1721  1.6829
10739TIP3   OH253707   6.393   5.682   1.636 -0.3095  0.5363  0.5502
10739TIP3    H153708   6.391   5.588   1.621 -0.0590  0.5885  0.1850
10739TIP3    H253709   6.305   5.712   1.614 -0.1099  0.5294 -0.2843
10740TIP3   OH253710   2.794   4.645  16.366  0.3181  0.2127 -0.8485
10740TIP3    H153711   2.788   4.621  16.458  0.9646 -1.2230 -1.1482
10740TIP3    H253712   2.870   4.703  16.361  1.4881 -1.2505 -0.7347
10741TIP3   OH253713   6.429   0.297   0.039 -0.0316 -0.0975  0.3421
10741TIP3    H153714   6.384   0.249  -0.031  0.4025  1.0056 -0.7340
10741TIP3    H253715   6.422   0.240   0.115 -0.7393 -1.2340 -0.5321
10742TIP3   OH253716   3.346   2.607  14.544  0.3878 -0.3184  0.0121
10742TIP3    H153717   3.376   2.631  14.631 -0.0915  1.5098 -0.2796
10742TIP3    H253718   3.414   2.549  14.509  1.4749  0.3808  0.9234
10743TIP3   OH253719   5.980   5.548   3.845  0.2079  0.2009 -0.5709
10743TIP3    H153720   6.026   5.469   3.814  1.1411  1.2851 -2.1171
10743TIP3    H253721   5.990   5.545   3.940 -0.0712 -1.7046 -0.5578
10744TIP3   OH253722   5.787   6.041   0.119  0.5625 -0.1517  0.5370
10744TIP3    H153723   5.851   6.070   0.185  0.4699  1.0087  0.1470
10744TIP3    H253724   5.730   5.981   0.166  1.6380 -0.8196  1.0210
10745TIP3   OH253725   3.835   5.210   4.784 -0.0733 -0.1917  0.0992
10745TIP3    H153726   3.782   5.207   4.864 -0.9484 -0.6519 -0.4723
10745TIP3    H253727   3.776   5.246   4.718  0.9783  1.2167 -0.1104
10746TIP3   OH253728   5.886   3.652  12.524  0.0125 -0.1058 -0.1796
10746TIP3    H153729   5.973   3.613  12.532 -0.0869 -0.1879  0.6218
10746TIP3    H253730   5.876   3.670  12.431  1.0020  0.1542 -0.2515
10747TIP3   OH253731   1.558   2.797   5.014  0.4825  0.1785 -0.2679
10747TIP3    H153732   1.478   2.759   4.977  0.6182  0.5669 -0.9811
10747TIP3    H253733   1.615   2.809   4.938  0.2553  2.2767 -0.1527
10748TIP3   OH253734   6.768   3.380   3.951  0.0229 -0.2808 -0.2080
10748TIP3    H153735   6.807   3.467   3.944  1.3328 -0.6552  1.6607
10748TIP3    H253736   6.724   3.381   4.036 -0.7699 -1.1550 -0.5939
10749TIP3   OH253737   1.819   0.868  11.457  0.0088 -0.0702 -0.0588
10749TIP3    H153738   1.780   0.933  11.516  0.4493 -0.4431  0.6579
10749TIP3    H253739   1.839   0.794  11.513  0.1160 -0.5752 -0.7511
10750TIP3   OH253740   5.514   6.529   5.176 -0.1363  0.1703 -0.4728
10750TIP3    H153741   5.495   6.477   5.253  1.9246  0.5388  0.3748
10750TIP3    H253742   5.511   6.467   5.103  2.1183 -1.1837  0.4812
10751TIP3   OH253743   2.217   4.520  11.468  0.0623  0.7205  0.7992
10751TIP3    H153744   2.183   4.433  11.446  1.2300  0.0303  1.6480
10751TIP3    H253745   2.143   4.579  11.452 -0.4402 -0.2836 -0.7674
10752TIP3   OH253746   2.341   2.342  14.282  0.2281  0.6441 -0.0707
10752TIP3    H153747   2.410   2.350  14.348  0.0835  0.7771  0.0653
10752TIP3    H253748   2.336   2.248  14.263  1.1384  0.7301 -0.8258
10753TIP3   OH253749   5.360   2.691   4.215  0.0031  0.3207  0.0789
10753TIP3    H153750   5.397   2.729   4.295  2.1436 -0.0988 -0.6421
10753TIP3    H253751   5.358   2.764   4.152 -0.5515  0.3652  0.1376
10754TIP3   OH253752   2.403   6.658  16.617  0.0179  0.0196 -0.6429
10754TIP3    H153753   2.452   6.699  16.689 -0.4582 -0.5786  0.0253
10754TIP3    H253754   2.446   6.691  16.538 -0.2133  1.6539 -0.1296
10755TIP3   OH253755   5.614   3.928  15.986 -0.4678 -0.0370 -0.0844
10755TIP3    H153756   5.652   4.008  15.951 -0.7296  0.3548  0.5035
10755TIP3    H253757   5.559   3.894  15.915  1.5529 -1.0572 -1.2627
10756TIP3   OH253758   5.962   4.397  11.032 -0.3140 -0.5684  0.1295
10756TIP3    H153759   5.874   4.418  11.064  0.2794  1.0178  0.7871
10756TIP3    H253760   6.005   4.354  11.106  0.3355  1.1218  0.7721
10757TIP3   OH253761   2.661   5.944   2.186 -0.1770  0.1104 -0.2386
10757TIP3    H153762   2.600   5.894   2.131 -0.4009 -1.5410  1.4051
10757TIP3    H253763   2.740   5.890   2.191 -0.2192  0.1318  1.1627
10758TIP3   OH253764   6.096   2.109  14.481 -0.1105  0.1840 -0.6891
10758TIP3    H153765   6.053   2.173  14.425  0.0283  1.5113  0.6348
10758TIP3    H253766   6.189   2.133  14.478  0.6327 -2.4305 -3.2509
10759TIP3   OH253767   5.648   0.449   3.416  0.0704  0.4091  0.5135
10759TIP3    H153768   5.583   0.423   3.352  1.3366  0.1395 -0.7108
10759TIP3    H253769   5.633   0.543   3.429  0.1928  0.6013 -0.6641
10760TIP3   OH253770   1.461   1.575   2.769 -0.0443  0.1554  0.0815
10760TIP3    H153771   1.471   1.554   2.862  1.1906  0.2002 -0.0270
10760TIP3    H253772   1.447   1.670   2.767  0.1127  0.1815  0.2132
10761TIP3   OH253773   6.268   1.662   3.063 -0.4050 -0.3330  0.2180
10761TIP3    H153774   6.321   1.732   3.026 -0.8254  0.4678  1.0961
10761TIP3    H253775   6.184   1.668   3.017 -0.3384 -0.4680  0.0759
10762TIP3   OH253776   4.961   2.588  15.008 -0.6201  0.2009  0.3469
10762TIP3    H153777   5.029   2.608  15.072 -0.0983 -1.6216  0.4112
10762TIP3    H253778   4.883   2.630  15.042  0.2467  1.5847  0.7291
10763TIP3   OH253779   0.520   5.628   1.326  0.3073 -0.7703  0.3814
10763TIP3    H153780   0.489   5.695   1.387  2.1028 -0.4721  1.0269
10763TIP3    H253781   0.526   5.548   1.378  2.5689 -0.3454  0.8593
10764TIP3   OH253782   3.047   6.066  13.943  0.2802  0.0269 -0.3691
10764TIP3    H153783   2.975   6.124  13.966  0.3343 -0.6952  1.8383
10764TIP3    H253784   3.030   6.041  13.852 -1.2686  1.2400 -0.4481
10765TIP3   OH253785   5.850   5.524   0.643  0.3635  0.4345 -0.1025
10765TIP3    H153786   5.774   5.475   0.614  1.3131 -0.3186 -1.4483
10765TIP3    H253787   5.868   5.491   0.732 -0.4892  0.1788 -0.0162
10766TIP3   OH253788   5.434   5.675   2.530 -0.1916 -0.2861  0.0694
10766TIP3    H153789   5.367   5.610   2.511 -2.2952  1.2228  1.7891
10766TIP3    H253790   5.448   5.670   2.625 -2.0825  3.0802  0.6992
10767TIP3   OH253791   1.047   3.801  15.993  0.1820 -0.0616 -0.0867
10767TIP3    H153792   1.057   3.776  16.085  2.0366  0.0855 -0.2108
10767TIP3    H253793   1.033   3.719  15.947  0.9392 -0.3241  0.1392
10768TIP3   OH253794   1.439   5.302  13.800  0.1117  0.3459  0.3284
10768TIP3    H153795   1.506   5.266  13.741  0.1732 -1.2667  1.3159
10768TIP3    H253796   1.489   5.351  13.865  0.0674  1.8539 -0.7322
10769TIP3   OH253797   0.590   4.438   5.371  0.3235 -0.1431 -0.0634
10769TIP3    H153798   0.607   4.411   5.281  0.8145  1.0298 -0.3399
10769TIP3    H253799   0.495   4.447   5.375  0.3508  0.5847 -0.7152
10770TIP3   OH253800   5.101   6.005  14.275  0.0856 -0.2358  0.5579
10770TIP3    H153801   5.124   5.949  14.201  0.5886  0.0687  0.4778
10770TIP3    H253802   5.049   5.949  14.333  1.3227 -1.0681  0.9016
10771TIP3   OH253803   5.906   6.461   4.013  0.2902 -0.0102  0.1671
10771TIP3    H153804   5.824   6.421   3.984  0.2618  0.4838 -0.4538
10771TIP3    H253805   5.970   6.390   4.007  0.4624  0.2569 -1.9755
10772TIP3   OH253806   3.866   1.675   2.709  0.1039 -0.1597 -0.3912
10772TIP3    H153807   3.824   1.658   2.793 -1.2165 -1.1265 -1.2001
10772TIP3    H253808   3.818   1.748   2.671  0.9602  0.5456 -0.1485
10773TIP3   OH253809   3.044   4.239  14.208 -0.0740  0.3769  0.0221
10773TIP3    H153810   2.963   4.264  14.163  0.4618  0.9277 -0.6513
10773TIP3    H253811   3.025   4.152  14.244 -1.1811  0.7653  0.4266
10774TIP3   OH253812   0.372   0.465  12.134 -0.7820  0.1887  0.2402
10774TIP3    H153813   0.297   0.459  12.076  0.0444 -0.8521 -0.7648
10774TIP3    H253814   0.437   0.407  12.095  0.8198  1.6148  0.6850
10775TIP3   OH253815   1.280   0.801  15.602  0.0030 -0.8537 -0.7350
10775TIP3    H153816   1.257   0.718  15.561  0.5067 -0.1749 -2.4783
10775TIP3    H253817   1.367   0.822  15.568 -0.1657  0.4435 -0.4300
10776TIP3   OH253818   2.607   5.040  16.334 -0.0933 -0.4600  0.2165
10776TIP3    H153819   2.650   5.121  16.360  1.2960 -1.1603  0.1993
10776TIP3    H253820   2.642   4.974  16.394 -0.4170 -1.2189 -0.4192
10777TIP3   OH253821   0.480   1.453   1.759  0.0700 -0.4139  0.2069
10777TIP3    H153822   0.533   1.530   1.780 -0.4695  0.0834 -0.2114
10777TIP3    H253823   0.490   1.395   1.835  0.3670  0.1322  0.5904
10778TIP3   OH253824   2.760   1.191   4.225  0.2107 -0.5466 -0.1379
10778TIP3    H153825   2.770   1.096   4.229  0.7845 -0.4820  0.0884
10778TIP3    H253826   2.743   1.210   4.133  3.3232 -0.5957 -0.8533
10779TIP3   OH253827   3.278   4.174  15.741 -0.4187  0.3861  0.0679
10779TIP3    H153828   3.218   4.108  15.777 -0.5686  0.9753  0.9109
10779TIP3    H253829   3.316   4.131  15.664 -0.0916 -0.8977  0.9126
10780TIP3   OH253830   5.462   2.822   3.270 -0.0640  0.1165  0.1810
10780TIP3    H153831   5.379   2.788   3.235 -0.3755  0.3677  0.6639
10780TIP3    H253832   5.473   2.907   3.227  0.5627 -0.4383 -0.7981
10781TIP3   OH253833   6.140   4.824  16.273 -0.3775  0.0920 -0.3715
10781TIP3    H153834   6.176   4.776  16.198 -0.8293 -0.9077  0.0285
10781TIP3    H253835   6.209   4.818  16.340 -0.0520  0.8209 -0.6306
10782TIP3   OH253836   3.597   1.567  11.732  0.1421  0.0789  0.3596
10782TIP3    H153837   3.637   1.600  11.651 -1.1009 -0.0229 -0.3145
10782TIP3    H253838   3.538   1.497  11.703 -1.9520  1.4652  1.0934
10783TIP3   OH253839   1.456   5.047  12.153  0.7324  0.2367  0.2369
10783TIP3    H153840   1.389   5.058  12.220 -0.3694  0.0513 -0.8079
10783TIP3    H253841   1.420   5.089  12.075  0.9694 -1.5505 -0.8956
10784TIP3   OH253842   0.553   0.071   4.623 -0.3142  0.1158  0.1628
10784TIP3    H153843   0.466   0.059   4.584 -0.6930  0.6742  0.8103
10784TIP3    H253844   0.589  -0.017   4.627 -0.4345 -0.0054 -1.0389
10785TIP3   OH253845   5.966   3.734  11.783  0.5673  0.1524  0.0362
10785TIP3    H153846   5.923   3.818  11.767 -0.2772 -0.2692  0.0332
10785TIP3    H253847   5.954   3.686  11.701  1.8933  0.3797 -0.3079
10786TIP3   OH253848   2.761   3.776  13.989  0.0270 -0.1074  0.4531
10786TIP3    H153849   2.675   3.786  13.948  0.2391  0.2922  0.1028
10786TIP3    H253850   2.823   3.808  13.923  0.3271  1.2734  1.3749
10787TIP3   OH253851   3.969   2.706  16.650  0.1696  0.1937  0.6689
10787TIP3    H153852   3.891   2.652  16.659 -1.0306  1.8011  0.4028
10787TIP3    H253853   3.981   2.746  16.736  1.0635 -0.4598  0.8697
10788TIP3   OH253854   0.659   5.977  12.474 -0.0901  0.0048  0.3073
10788TIP3    H153855   0.630   5.987  12.565  1.0098 -2.4493  1.0254
10788TIP3    H253856   0.746   6.018  12.472 -0.5594  1.0153  0.0467
10789TIP3   OH253857   3.066   1.825  14.140 -0.4099  0.0919  0.1511
10789TIP3    H153858   3.019   1.907  14.123  0.8627  0.9406  0.5834
10789TIP3    H253859   3.010   1.757  14.103 -1.0684  1.2393 -1.0451
10790TIP3   OH253860   4.680   1.537   2.826 -0.3162  0.1347  0.1357
10790TIP3    H153861   4.726   1.497   2.900  1.1059  1.2174 -0.1140
10790TIP3    H253862   4.594   1.495   2.825  0.8814 -2.4997  0.1898
10791TIP3   OH253863   0.254   1.769   4.377  0.6122 -0.2983 -0.5574
10791TIP3    H153864   0.292   1.777   4.464 -2.3341 -1.8218  0.9928
10791TIP3    H253865   0.219   1.856   4.358 -0.2697 -0.3794  0.6001
10792TIP3   OH253866   1.026   1.120  14.684 -0.0056  0.0216 -0.6342
10792TIP3    H153867   1.103   1.089  14.732 -0.1538  1.1985  0.4295
10792TIP3    H253868   0.988   1.041  14.645 -0.1161 -1.0795  1.5511
10793TIP3   OH253869   4.440   5.594   5.287  0.1125  0.1898  0.2669
10793TIP3    H153870   4.521   5.640   5.268 -0.7323  2.4143  1.6174
10793TIP3    H253871   4.372   5.660   5.280 -1.4970 -1.4008  0.0631
10794TIP3   OH253872   4.101   0.529   4.702  0.9578 -0.4827  0.0867
10794TIP3    H153873   4.090   0.435   4.713 -1.0015 -0.4336 -1.0850
10794TIP3    H253874   4.065   0.567   4.781  0.0386 -0.6648 -0.2357
10795TIP3   OH253875   1.466   1.270   5.690 -0.0998 -0.1816 -0.1896
10795TIP3    H153876   1.517   1.192   5.670  0.9475  0.3062  0.5301
10795TIP3    H253877   1.442   1.261   5.782  0.1219  0.3838 -0.0701
10796TIP3   OH253878   0.585   0.944  12.112  0.9769  0.7410  0.2792
10796TIP3    H153879   0.544   0.927  12.027  2.2103 -1.2382  0.0050
10796TIP3    H253880   0.546   1.026  12.141 -2.8061 -0.6792 -0.1633
10797TIP3   OH253881   4.884   1.553  10.846  0.5180 -0.2162  0.1701
10797TIP3    H153882   4.790   1.534  10.836  0.5675  0.0326 -0.9352
10797TIP3    H253883   4.889   1.648  10.851  0.6417 -0.2705  1.1549
10798TIP3   OH253884   1.828   1.583   3.998  0.0066 -0.0644  0.1346
10798TIP3    H153885   1.864   1.653   4.052  0.5384  0.0158 -0.3103
10798TIP3    H253886   1.891   1.573   3.926  0.8055 -2.1104  1.0338
10799TIP3   OH253887   5.277   5.722  13.488  0.7743 -0.1481  0.2794
10799TIP3    H153888   5.312   5.669  13.560  0.1217 -0.6037  0.2643
10799TIP3    H253889   5.215   5.665  13.443  0.0255  0.6304  0.2880
10800TIP3   OH253890   2.526   2.907  15.915 -0.3528 -0.3505  0.3063
10800TIP3    H153891   2.584   2.893  15.990 -0.0915  0.4950  0.2694
10800TIP3    H253892   2.448   2.946  15.953 -1.2279 -2.1215  0.4576
10801TIP3   OH253893   6.026   3.348   2.955  0.1864 -0.3772  0.4357
10801TIP3    H153894   6.041   3.369   3.048  0.1643 -0.6558  0.5030
10801TIP3    H253895   6.102   3.295   2.930  1.0887  1.1503 -0.1895
10802TIP3   OH253896   0.376   6.064   4.109  0.2205 -0.0586 -0.3063
10802TIP3    H153897   0.374   6.009   4.030  0.5522 -0.7328  0.1558
10802TIP3    H253898   0.456   6.039   4.154  1.1517  1.8433 -0.8161
10803TIP3   OH253899   4.130   2.344   4.775  0.1595 -0.0335 -0.1045
10803TIP3    H153900   4.217   2.331   4.737  0.3209  2.2260 -0.6632
10803TIP3    H253901   4.144   2.408   4.845 -1.1175  0.9962 -0.7320
10804TIP3   OH253902   6.272   2.709   2.583  0.0936  0.1856 -0.3889
10804TIP3    H153903   6.334   2.691   2.653 -0.3964 -1.9889 -0.4566
10804TIP3    H253904   6.311   2.671   2.504 -2.2521 -3.4954 -0.0052
10805TIP3   OH253905   5.199   6.743  12.591 -0.1107  1.0432  0.3755
10805TIP3    H153906   5.155   6.698  12.519  1.6846 -0.8935  0.4203
10805TIP3    H253907   5.157   6.829  12.594 -0.7929  0.8920 -2.4314
10806TIP3   OH253908   6.229   3.454   5.431 -0.4945  0.0168 -0.1447
10806TIP3    H153909   6.148   3.443   5.482 -1.0495 -0.5412 -1.1036
10806TIP3    H253910   6.198   3.474   5.342  0.4093 -0.7226 -0.6414
10807TIP3   OH253911   0.235   0.865   1.441  0.6406 -0.2864  0.1735
10807TIP3    H153912   0.227   0.958   1.464  0.6535 -0.8653  2.8962
10807TIP3    H253913   0.324   0.841   1.468 -0.5508 -1.8775  3.1071
10808TIP3   OH253914   5.400   1.350   0.618 -0.3810  0.5952 -0.2335
10808TIP3    H153915   5.324   1.392   0.659  0.1798  2.2649 -0.7942
10808TIP3    H253916   5.364   1.295   0.549 -1.1042  1.1067 -0.2669
10809TIP3   OH253917   2.379   5.591   2.217  0.0289 -0.3668 -0.3338
10809TIP3    H153918   2.385   5.654   2.289  0.6372 -0.1179 -0.5978
10809TIP3    H253919   2.357   5.508   2.260 -0.4941 -0.0404  0.0424
10810TIP3   OH253920   5.791   1.344   4.442 -0.2843  0.6486  0.6795
10810TIP3    H153921   5.717   1.323   4.498  1.3452 -1.3736  2.2693
10810TIP3    H253922   5.806   1.265   4.391 -1.0718  2.0945 -1.9768
10811TIP3   OH253923   2.049   3.957  14.000  0.7868  0.2815 -0.0143
10811TIP3    H153924   2.078   4.043  13.970 -0.4478  0.6501 -0.1904
10811TIP3    H253925   1.973   3.975  14.055 -0.9431 -0.8203 -1.9091
10812TIP3   OH253926   6.397   6.615   4.052 -0.6939 -0.1113 -0.0796
10812TIP3    H153927   6.469   6.677   4.043  0.5269 -1.0805  2.1777
10812TIP3    H253928   6.322   6.669   4.074  0.3243  0.6281  1.7914
10813TIP3   OH253929   4.848   4.546   5.910 -0.1549 -0.1842  0.1704
10813TIP3    H153930   4.793   4.616   5.875  0.7778  0.5152  0.0904
10813TIP3    H253931   4.936   4.565   5.878  0.4430 -0.3768  1.6226
10814TIP3   OH253932   5.691   3.507  10.991 -0.0347 -0.4040 -0.5806
10814TIP3    H153933   5.722   3.589  11.031  2.3924  0.6394 -4.1279
10814TIP3    H253934   5.632   3.535  10.922  0.4262 -1.6695 -1.5166
10815TIP3   OH253935   0.518   5.723   4.511 -1.1953  0.7040  0.0388
10815TIP3    H153936   0.441   5.701   4.563 -1.1150 -0.2599 -0.2293
10815TIP3    H253937   0.577   5.765   4.573 -0.8515 -0.9771  0.9264
10816TIP3   OH253938   1.606   0.313   2.716 -0.0724 -0.0973 -0.4124
10816TIP3    H153939   1.613   0.325   2.621 -2.3774  0.9097 -0.5341
10816TIP3    H253940   1.638   0.396   2.753 -0.3109 -0.0220 -0.3741
10817TIP3   OH253941   6.431   3.026   5.206 -0.6198  0.1404  0.3448
10817TIP3    H153942   6.480   3.078   5.270  0.5801 -0.8855  0.2890
10817TIP3    H253943   6.432   2.938   5.242 -1.2821 -0.1501 -0.3406
10818TIP3   OH253944   6.031   6.769   0.470 -0.6231 -0.2093  0.1255
10818TIP3    H153945   5.983   6.756   0.552 -1.5319 -0.0384 -0.3730
10818TIP3    H253946   5.995   6.849   0.433 -1.5922 -1.2685 -1.3612
10819TIP3   OH253947   3.820   6.539  10.195 -0.2516 -0.1439  0.2447
10819TIP3    H153948   3.773   6.482  10.134  0.9538 -0.6225 -0.2827
10819TIP3    H253949   3.884   6.481  10.237  0.9681  0.7917 -0.2685
10820TIP3   OH253950   1.348   4.753  15.742  0.2365 -0.3719  0.3066
10820TIP3    H153951   1.408   4.694  15.697 -0.9962 -0.3406 -1.4757
10820TIP3    H253952   1.379   4.755  15.833  1.6385 -1.9765 -0.1003
10821TIP3   OH253953   6.837   6.297   5.380  0.2259 -0.2593 -0.8089
10821TIP3    H153954   6.868   6.366   5.439 -0.0642 -0.2480 -0.6667
10821TIP3    H253955   6.798   6.344   5.307  0.2465 -0.2743 -0.8295
10822TIP3   OH253956   3.400   5.931  15.841  0.6814 -0.2511  0.3136
10822TIP3    H153957   3.360   5.874  15.906  2.3339 -0.5477  1.1304
10822TIP3    H253958   3.409   6.015  15.886  0.8925 -0.1610  0.1044
10823TIP3   OH253959   5.423   0.176  11.754  0.0996 -0.3365 -0.1619
10823TIP3    H153960   5.381   0.165  11.668 -1.0305  0.0143  0.3282
10823TIP3    H253961   5.356   0.217  11.808  0.0535 -2.4954  1.5192
10824TIP3   OH253962   3.200   1.504   2.513  0.1179 -0.1170  0.1560
10824TIP3    H153963   3.193   1.415   2.548  1.8224 -0.4284 -0.2441
10824TIP3    H253964   3.181   1.494   2.419  0.3215 -0.0651  0.1088
10825TIP3   OH253965   4.883   3.676   5.548  0.4750  0.5673  0.0354
10825TIP3    H153966   4.824   3.686   5.473 -0.1512 -0.7390  0.3202
10825TIP3    H253967   4.831   3.629   5.613  1.3795  0.6704  0.8538
10826TIP3   OH253968   0.757   2.057   3.982 -0.1818  0.0501 -0.1413
10826TIP3    H153969   0.686   2.043   3.919 -0.9538 -0.5728  0.8586
10826TIP3    H253970   0.725   2.021   4.064  1.8016 -1.4887  0.0481
10827TIP3   OH253971   0.617   4.493  15.918 -0.1906  0.5617 -0.1246
10827TIP3    H153972   0.589   4.524  15.832  0.9653  0.4917 -0.5415
10827TIP3    H253973   0.676   4.561  15.951 -0.6857  0.6297  0.6633
10828TIP3   OH253974   4.354   2.193  15.922 -0.0537  0.0159 -0.3867
10828TIP3    H153975   4.286   2.143  15.877 -1.9016  2.1932 -0.1975
10828TIP3    H253976   4.314   2.217  16.005  1.0718  1.1302 -0.1463
10829TIP3   OH253977   5.618   5.624   3.053 -0.2391  0.1636  0.2646
10829TIP3    H153978   5.540   5.624   3.108  0.6269  1.0579  1.5553
10829TIP3    H253979   5.668   5.701   3.083  1.7537 -1.1167  0.4055
10830TIP3   OH253980   5.258   6.489  13.818  0.6705 -0.3886  0.0458
10830TIP3    H153981   5.327   6.554  13.807  1.0146 -0.7243  0.1977
10830TIP3    H253982   5.181   6.540  13.845  1.0919 -0.1061  0.7575
10831TIP3   OH253983   1.334   3.223   2.915  0.4977 -0.2443 -0.0052
10831TIP3    H153984   1.265   3.288   2.922  0.7713  0.2533 -1.5094
10831TIP3    H253985   1.341   3.205   2.821  1.4685 -1.3134  0.2414
10832TIP3   OH253986   4.879   3.462  16.209 -0.1297 -0.0402  0.2817
10832TIP3    H153987   4.868   3.450  16.304  0.5095 -1.7795  0.1834
10832TIP3    H253988   4.828   3.390  16.171  0.6266 -0.1011 -0.6346
10833TIP3   OH253989   6.579   3.912   4.836  0.2703  0.2670  0.2010
10833TIP3    H153990   6.484   3.911   4.822  0.4147  2.2076 -1.5052
10833TIP3    H253991   6.594   3.987   4.893  0.7024 -0.8418  1.5838
10834TIP3   OH253992   3.209   4.059  13.196 -0.3770  0.0010 -0.0326
10834TIP3    H153993   3.265   4.127  13.233 -0.9323  0.2104  0.4274
10834TIP3    H253994   3.120   4.090  13.209 -0.6139 -0.4398 -0.5504
10835TIP3   OH253995   0.694   5.233   0.460  0.1180  0.3055 -0.2360
10835TIP3    H153996   0.749   5.282   0.399 -0.1598  0.8792 -0.0353
10835TIP3    H253997   0.644   5.301   0.506 -2.5434 -0.2262 -2.0734
10836TIP3   OH253998   1.840   6.414   2.199  0.2382 -0.4357  0.1358
10836TIP3    H153999   1.849   6.463   2.280 -2.8743  0.4370  0.1021
10836TIP3    H254000   1.839   6.322   2.226  1.1086 -0.2545  0.8246
10837TIP3   OH254001   2.699   6.289   2.764 -0.8433 -0.3430  0.0789
10837TIP3    H154002   2.691   6.316   2.673  1.9375  0.7179  0.0567
10837TIP3    H254003   2.697   6.193   2.761 -1.9571 -0.3083 -0.9229
10838TIP3   OH254004   4.217   3.196   3.260 -0.4232 -0.7946  0.6449
10838TIP3    H154005   4.215   3.145   3.179 -1.5238  0.6515 -0.2700
10838TIP3    H254006   4.310   3.214   3.275 -0.3118  0.4849 -1.3327
10839TIP3   OH254007   2.395   2.094  12.914 -0.3375  0.1750 -0.1035
10839TIP3    H154008   2.407   2.160  12.983  1.1575 -2.2418  2.1776
10839TIP3    H254009   2.451   2.124  12.843 -1.2624  2.3429  0.0110
10840TIP3   OH254010   2.563   0.508   5.907  0.3189 -0.2751 -0.3135
10840TIP3    H154011   2.510   0.484   5.983 -0.9538 -1.6662 -1.5742
10840TIP3    H254012   2.629   0.567   5.942 -0.3846 -0.6569  1.8210
10841TIP3   OH254013   5.540   3.487  14.545 -0.3590 -0.4318 -0.4275
10841TIP3    H154014   5.474   3.547  14.580  0.4500  0.7233 -0.8177
10841TIP3    H254015   5.508   3.400  14.568 -1.6772  0.1334 -0.0352
10842TIP3   OH254016   4.971   5.816   4.523 -0.4541 -0.5685 -0.8049
10842TIP3    H154017   4.890   5.836   4.571  0.5987  1.3339  0.3125
10842TIP3    H254018   4.945   5.816   4.431 -1.4269  1.7809 -0.5887
10843TIP3   OH254019   2.971   3.138  11.695 -0.6723 -0.0305 -0.5137
10843TIP3    H154020   2.978   3.102  11.607  2.0099 -0.4358 -0.2310
10843TIP3    H254021   3.060   3.129  11.731 -1.8353 -0.5726  2.5005
10844TIP3   OH254022   5.790   0.144   3.179  0.2914 -0.0425  0.2704
10844TIP3    H154023   5.707   0.159   3.134 -0.6127  3.0582  2.6124
10844TIP3    H254024   5.775   0.067   3.233  0.6777 -2.4471 -2.7287
10845TIP3   OH254025   0.962   0.412  14.044 -0.7259 -0.2218 -0.5363
10845TIP3    H154026   1.028   0.349  14.074  2.1567  3.0542  0.7764
10845TIP3    H254027   0.884   0.392  14.095 -0.4362 -3.3626 -1.0810
10846TIP3   OH254028   4.225   2.455  15.465 -0.4804  0.6765  0.3679
10846TIP3    H154029   4.271   2.411  15.537 -1.4188 -2.0502 -0.5409
10846TIP3    H254030   4.188   2.534  15.505  0.3384  0.0856  2.4757
10847TIP3   OH254031   0.532   1.130   4.677 -0.1179  0.3031  0.7327
10847TIP3    H154032   0.438   1.112   4.674 -0.0303 -0.0831 -0.6147
10847TIP3    H254033   0.538   1.226   4.673 -0.4908  0.6135  4.3008
10848TIP3   OH254034   0.939   3.954   1.947 -0.6786 -0.2184  0.1556
10848TIP3    H154035   0.983   4.038   1.933 -2.4818  0.9833  1.2615
10848TIP3    H254036   0.979   3.919   2.027 -1.3165  0.6325  0.8780
10849TIP3   OH254037   1.947   4.571  10.730 -0.2115 -0.8562 -0.8450
10849TIP3    H154038   1.912   4.483  10.712  0.7682 -0.8936 -2.9261
10849TIP3    H254039   2.039   4.566  10.702  0.9026 -0.1148  2.2984
10850TIP3   OH254040   2.413   2.601  13.680  0.0503  0.4262  0.7131
10850TIP3    H154041   2.479   2.655  13.636 -0.9160  0.3087 -0.9280
10850TIP3    H254042   2.372   2.660  13.743  0.7565  0.8902  0.7462
10851TIP3   OH254043   4.640   2.507  15.792  0.1769 -0.2412 -0.5510
10851TIP3    H154044   4.692   2.428  15.776 -0.2109 -0.4426 -0.8283
10851TIP3    H254045   4.685   2.551  15.864 -0.5233 -1.5485  0.7347
10852TIP3   OH254046   6.123   0.134  16.352 -0.4204 -0.3497  0.2061
10852TIP3    H154047   6.046   0.176  16.315 -0.2637 -1.1252 -1.0500
10852TIP3    H254048   6.141   0.061  16.294  1.6472  0.1979  0.0856
10853TIP3   OH254049   4.445   1.167   2.553 -0.4089 -0.5569 -0.5972
10853TIP3    H154050   4.400   1.192   2.634  0.6032 -0.1829 -0.1329
10853TIP3    H254051   4.518   1.228   2.546 -1.5325  0.6673 -2.8118
10854TIP3   OH254052   2.644   5.334  14.755  0.4691 -0.4222  0.2837
10854TIP3    H154053   2.625   5.413  14.805 -0.8451 -1.0988  0.8997
10854TIP3    H254054   2.559   5.294  14.740  0.9467 -0.8316 -1.5481
10855TIP3   OH254055   1.536   1.078  12.114 -0.1605  0.0349  0.2587
10855TIP3    H154056   1.623   1.095  12.077  0.0519  2.2598  1.6203
10855TIP3    H254057   1.516   1.157  12.165 -1.2393 -2.0038  3.2898
10856TIP3   OH254058   0.923   0.304  10.835  0.1420  0.1075 -1.2552
10856TIP3    H154059   0.849   0.248  10.856  0.6940  0.1468  1.0841
10856TIP3    H254060   1.000   0.248  10.846  0.5889  0.7494 -1.0225
10857TIP3   OH254061   3.548   2.820   2.990  0.1695 -0.0782 -0.0222
10857TIP3    H154062   3.549   2.725   3.003 -0.5541  0.2533  3.0849
10857TIP3    H254063   3.558   2.830   2.895  0.5907 -3.2183 -0.4400
10858TIP3   OH254064   1.189   1.826  12.227  0.4506  0.1386 -0.0930
10858TIP3    H154065   1.198   1.835  12.132  0.0390 -0.5211 -0.2019
10858TIP3    H254066   1.149   1.740  12.239  0.3530  0.2849  0.6726
10859TIP3   OH254067   5.140   2.487   2.244 -0.7370  0.6598  0.9555
10859TIP3    H154068   5.206   2.473   2.176 -0.1660  0.5007  1.5297
10859TIP3    H254069   5.088   2.560   2.212 -0.4883  0.5727  0.3382
10860TIP3   OH254070   6.464   3.028  11.236  0.4938  0.2382 -0.3307
10860TIP3    H154071   6.395   3.038  11.171 -1.1350  0.3363  1.3415
10860TIP3    H254072   6.503   2.943  11.217  0.3367  0.4477 -1.6685
10861TIP3   OH254073   3.232   2.478   6.436  0.3639  0.1407  0.3542
10861TIP3    H154074   3.297   2.418   6.398 -0.9102 -1.5503  0.6885
10861TIP3    H254075   3.253   2.563   6.399  0.6123 -0.9903 -2.3544
10862TIP3   OH254076   5.453   3.434  10.259  0.4135  0.1356 -0.1396
10862TIP3    H154077   5.543   3.451  10.234 -0.1166  1.7811 -1.0751
10862TIP3    H254078   5.401   3.475  10.190 -1.0627 -1.7534 -0.2442
10863TIP3   OH254079   3.608   5.266  16.569  0.1320 -0.0431 -0.0771
10863TIP3    H154080   3.580   5.302  16.485  1.3974 -0.5103 -0.7092
10863TIP3    H254081   3.588   5.172  16.563  1.1815 -0.2666 -0.2823
10864TIP3   OH254082   0.874   3.620   0.282  0.0455  0.2836  0.0568
10864TIP3    H154083   0.848   3.640   0.372  1.3675  2.2083  0.0655
10864TIP3    H254084   0.930   3.543   0.291 -1.0460 -0.4589  0.6873
10865TIP3   OH254085   3.481   5.699  12.879  0.1276 -0.2975  0.3414
10865TIP3    H154086   3.451   5.789  12.863  0.3358  0.0875  1.9309
10865TIP3    H254087   3.403   5.645  12.866  0.1912 -0.0180 -1.4746
10866TIP3   OH254088   5.444   1.610  16.928  0.2357  0.1977  0.3376
10866TIP3    H154089   5.441   1.561  17.010  1.3999 -0.4573  0.0088
10866TIP3    H254090   5.486   1.693  16.950 -0.9716  0.7261  0.7245
10867TIP3   OH254091   6.677   2.412  12.825 -0.1206  0.3048 -0.0499
10867TIP3    H154092   6.709   2.359  12.898 -1.1350  1.3558  1.2043
10867TIP3    H254093   6.754   2.458  12.793  0.2388  0.2920  0.7718
10868TIP3   OH254094   4.616   5.648   1.617  0.1536  0.4662  0.3461
10868TIP3    H154095   4.556   5.707   1.571 -0.3703  0.0054  0.4230
10868TIP3    H254096   4.691   5.703   1.640 -1.0340  1.5651  1.8764
10869TIP3   OH254097   2.892   5.705   5.205 -1.0377  0.5079  0.1957
10869TIP3    H154098   2.846   5.736   5.283  1.5162  2.2442  1.1749
10869TIP3    H254099   2.981   5.740   5.215  0.3471 -2.1167 -1.8347
10870TIP3   OH254100   4.255   5.058  13.930  0.3332 -0.2393  0.4798
10870TIP3    H154101   4.225   5.073  13.840  0.7342  0.4875  0.4613
10870TIP3    H254102   4.303   4.976  13.926 -2.3480 -1.9386  0.6867
10871TIP3   OH254103   3.297   5.540  15.094  0.0984 -0.6310  0.3163
10871TIP3    H154104   3.347   5.459  15.101  0.5343 -0.2799  1.3922
10871TIP3    H254105   3.356   5.608  15.126 -0.2027  0.1500 -0.7255
10872TIP3   OH254106   2.179   3.601  13.771 -0.2171 -0.2934 -0.2461
10872TIP3    H154107   2.258   3.548  13.782 -0.0928 -0.2944 -1.0783
10872TIP3    H254108   2.161   3.599  13.677 -1.7330 -1.0479  0.0163
10873TIP3   OH254109   1.408   4.950   5.399  0.2031  0.2287 -0.1369
10873TIP3    H154110   1.354   4.949   5.478 -0.5079 -0.0294 -0.6063
10873TIP3    H254111   1.356   5.000   5.336 -0.8536 -2.3334 -1.4798
10874TIP3   OH254112   4.265   4.926   4.431 -0.7758 -0.5729 -0.3363
10874TIP3    H154113   4.225   4.940   4.345  1.3239 -2.6971 -1.7970
10874TIP3    H254114   4.354   4.959   4.422 -0.3461 -1.3524  0.8244
10875TIP3   OH254115   2.228   2.676   3.417 -0.2570 -0.0946 -0.0348
10875TIP3    H154116   2.229   2.580   3.416  0.9302 -0.1019  0.0785
10875TIP3    H254117   2.169   2.700   3.345 -0.6728 -0.9067  0.0209
10876TIP3   OH254118   4.127   5.154   2.701 -0.0001  0.7677  0.2254
10876TIP3    H154119   4.102   5.246   2.693  0.4171  0.7244 -2.1870
10876TIP3    H254120   4.068   5.120   2.769 -2.1484  2.1637 -0.8103
10877TIP3   OH254121   0.589   5.599  15.449  0.5111 -0.4913  0.1123
10877TIP3    H154122   0.626   5.511  15.455 -0.7678 -1.1659 -1.3278
10877TIP3    H254123   0.665   5.657  15.450  1.4383 -1.6652 -0.0673
10878TIP3   OH254124   5.929   4.510  16.640 -0.2016 -0.3074 -0.0327
10878TIP3    H154125   5.983   4.431  16.642 -1.3383 -1.3096 -2.9058
10878TIP3    H254126   5.989   4.580  16.614  0.2674 -0.8579 -0.4461
10879TIP3   OH254127   3.544   6.210  15.130 -0.4919  0.4423  0.0651
10879TIP3    H154128   3.559   6.120  15.100 -1.2963  0.9619 -2.0804
10879TIP3    H254129   3.497   6.200  15.213 -0.5296 -1.1050 -0.1111
10880TIP3   OH254130   1.876   5.609   3.219  0.2938  0.4339  0.4432
10880TIP3    H154131   1.876   5.656   3.302  0.5679  0.4897  0.4133
10880TIP3    H254132   1.820   5.533   3.234 -2.6140  2.2452 -0.3581
10881TIP3   OH254133   2.479   3.037  14.608 -0.6146 -0.2074  0.8025
10881TIP3    H154134   2.453   2.958  14.655  0.7208 -0.7414  0.6987
10881TIP3    H254135   2.521   3.091  14.675 -1.9086  0.6366  0.9699
10882TIP3   OH254136   2.130   4.283  12.841 -0.0016  0.2637 -0.3065
10882TIP3    H154137   2.204   4.257  12.895 -0.1803 -0.0452 -0.2064
10882TIP3    H254138   2.062   4.306  12.903 -0.1608  0.0472 -0.3995
10883TIP3   OH254139   5.053   0.062  10.290 -0.3088 -0.7152  0.4974
10883TIP3    H154140   4.961   0.065  10.319 -0.1445 -0.6311  1.0142
10883TIP3    H254141   5.073   0.153  10.266 -0.4258 -0.7743  0.1614
10884TIP3   OH254142   2.099   3.870  12.384  0.3962 -0.4403  0.6315
10884TIP3    H154143   2.093   3.953  12.433  1.1438  0.2490 -0.3993
10884TIP3    H254144   2.191   3.863  12.360 -0.1664 -0.0074 -1.9048
10885TIP3   OH254145   0.498   0.810   1.543  0.1065  0.4420 -0.2408
10885TIP3    H154146   0.589   0.784   1.538 -0.1978 -0.4164 -2.1445
10885TIP3    H254147   0.454   0.736   1.585  0.3350  1.1237  1.2813
10886TIP3   OH254148   6.598   4.454  15.453 -0.5433  0.2266  0.2067
10886TIP3    H154149   6.683   4.458  15.409 -0.1238 -1.3781  0.7992
10886TIP3    H254150   6.618   4.464  15.546 -1.0094 -0.1056  0.3480
10887TIP3   OH254151   3.841   1.834   1.718 -0.2568  0.0148 -0.0864
10887TIP3    H154152   3.748   1.851   1.731 -0.7023 -1.9050 -0.4255
10887TIP3    H254153   3.843   1.766   1.651  1.3378 -0.8329  0.7680
10888TIP3   OH254154   5.560   5.090   4.356  0.1289 -0.1898  0.0717
10888TIP3    H154155   5.534   5.158   4.418  1.0718  0.8112 -0.5997
10888TIP3    H254156   5.516   5.113   4.275 -1.2949 -1.6304  0.3812
10889TIP3   OH254157   5.073   0.797  12.282  0.5623  0.1522 -0.1605
10889TIP3    H154158   5.048   0.889  12.291 -1.1731 -0.3407  0.5011
10889TIP3    H254159   5.024   0.751  12.350  0.8962 -1.3537 -0.8712
10890TIP3   OH254160   5.824   1.574   5.913  0.1526  0.1870  0.2024
10890TIP3    H154161   5.857   1.642   5.971 -0.7997  1.9873 -1.2423
10890TIP3    H254162   5.747   1.539   5.957  0.3730  0.3633  0.7361
10891TIP3   OH254163   5.622   2.188   4.473 -0.1475  0.0854 -1.0297
10891TIP3    H154164   5.694   2.244   4.502  2.0434 -1.6804 -2.6753
10891TIP3    H254165   5.604   2.131   4.548  1.8426 -0.9672 -1.2680
10892TIP3   OH254166   1.488   2.666  17.084 -0.0500  0.3503  0.4655
10892TIP3    H154167   1.558   2.602  17.089 -0.4529 -0.0747  0.7138
10892TIP3    H254168   1.410   2.616  17.060 -0.3937  0.7207  0.7798
10893TIP3   OH254169   5.157   4.171   0.808 -0.4744 -0.3469  0.2219
10893TIP3    H154170   5.234   4.209   0.767 -1.6439  2.4265  0.4246
10893TIP3    H254171   5.169   4.187   0.902 -0.2874 -1.9376  0.4995
10894TIP3   OH254172   0.713   3.970   1.427  0.0080 -0.1186 -0.3673
10894TIP3    H154173   0.797   3.972   1.472 -0.5017  1.5981  0.5664
10894TIP3    H254174   0.705   4.055   1.385 -1.3215 -0.1948 -0.3355
10895TIP3   OH254175   1.911   0.120   0.595 -0.0768  0.9581  0.4371
10895TIP3    H154176   1.914   0.144   0.688 -0.9014  0.2956  0.6444
10895TIP3    H254177   1.822   0.140   0.568  0.4248  2.0350 -0.4720
10896TIP3   OH254178   2.313   0.620   2.482  0.4218 -0.2005  0.1345
10896TIP3    H154179   2.304   0.560   2.557 -0.2114  0.4139  0.5621
10896TIP3    H254180   2.382   0.680   2.508 -0.3404  0.5040  0.5765
10897TIP3   OH254181   2.850   3.254  16.214  0.1155  0.4075  0.5343
10897TIP3    H154182   2.769   3.209  16.190  0.7222 -0.3072 -0.2585
10897TIP3    H254183   2.903   3.186  16.257  1.2566  0.1887 -1.1377
10898TIP3   OH254184   3.870   6.000   2.848  0.3356  0.1819  0.1547
10898TIP3    H154185   3.912   5.991   2.933 -0.1521 -1.9344  0.2467
10898TIP3    H254186   3.913   5.934   2.793 -3.7813 -3.4644  0.7491
10899TIP3   OH254187   2.541   1.173  10.537 -0.1325  0.0049 -0.3300
10899TIP3    H154188   2.483   1.127  10.597  1.5464 -0.3922  1.0670
10899TIP3    H254189   2.552   1.114  10.463  0.3875 -0.9718  0.5109
10900TIP3   OH254190   3.248   3.306  14.976 -0.6590  0.0501  0.4859
10900TIP3    H154191   3.181   3.241  14.955 -0.8349  0.7883 -1.4352
10900TIP3    H254192   3.290   3.325  14.892 -0.7872  2.6138  0.9210
10901TIP3   OH254193   5.326   5.916  14.900  0.8500 -0.0736  0.2418
10901TIP3    H154194   5.353   5.955  14.817 -1.8310  2.7800  0.5041
10901TIP3    H254195   5.238   5.883  14.884 -0.3462  1.8924  2.2065
10902TIP3   OH254196   2.104   0.544  13.305 -0.0555 -0.0706  0.4790
10902TIP3    H154197   2.085   0.514  13.216 -0.3297 -1.5765  1.0097
10902TIP3    H254198   2.154   0.625  13.294  0.8692 -0.8151 -1.0515
10903TIP3   OH254199   0.929   0.330  16.721 -0.2168 -0.0444 -0.1476
10903TIP3    H154200   0.953   0.366  16.806  1.8545 -2.3002  0.3222
10903TIP3    H254201   0.928   0.406  16.662  0.8818  1.1873  1.3635
10904TIP3   OH254202   1.054   1.703   5.216 -0.4509  0.3079 -0.3808
10904TIP3    H154203   1.020   1.734   5.132 -0.6774  0.2128 -0.3240
10904TIP3    H254204   0.985   1.647   5.251 -1.1457  1.8109  0.7508
10905TIP3   OH254205   6.719   0.430   5.018  0.6244 -0.3958  0.8053
10905TIP3    H154206   6.633   0.431   5.059 -0.3026 -0.3804 -1.0047
10905TIP3    H254207   6.743   0.523   5.010 -0.5471 -0.2015 -1.2161
10906TIP3   OH254208   4.575   5.179   3.675  0.4254 -0.1884 -0.2014
10906TIP3    H154209   4.579   5.225   3.758  0.9250 -0.8060  0.1233
10906TIP3    H254210   4.499   5.216   3.631  0.5852  0.6703  0.2094
10907TIP3   OH254211   0.116   4.251  16.699  0.0967 -0.0382  0.1332
10907TIP3    H154212   0.048   4.318  16.695  0.7119  0.5461 -0.7023
10907TIP3    H254213   0.141   4.248  16.791 -0.0786  0.7396  0.2140
10908TIP3   OH254214   0.691   4.035   5.072 -0.2973  0.0074 -0.2469
10908TIP3    H154215   0.780   4.071   5.081 -0.6996  1.0885 -0.4907
10908TIP3    H254216   0.688   4.000   4.983 -0.1338  0.0321 -0.2627
10909TIP3   OH254217   1.829   3.331  14.722 -0.5161  0.2672  0.3686
10909TIP3    H154218   1.921   3.351  14.740 -0.8451  0.5283  1.9481
10909TIP3    H254219   1.781   3.402  14.766 -1.4786 -0.1543  0.0064
10910TIP3   OH254220   2.258   3.017  15.377 -0.5727 -0.4216 -0.0398
10910TIP3    H154221   2.298   2.986  15.459 -0.2299 -0.4170 -0.2013
10910TIP3    H254222   2.299   2.964  15.309  0.5398  0.8082 -0.3917
10911TIP3   OH254223   2.564   5.853   6.179 -0.2071  0.3699 -0.2248
10911TIP3    H154224   2.617   5.776   6.159 -2.1237 -0.8182 -0.9856
10911TIP3    H254225   2.583   5.914   6.107  1.1416  0.5554  0.2558
10912TIP3   OH254226   2.859   5.525   4.058 -0.3050  0.2137 -0.1743
10912TIP3    H154227   2.871   5.614   4.092 -1.6204 -0.0967  1.1933
10912TIP3    H254228   2.916   5.521   3.982  2.2913  1.1792  1.5811
10913TIP3   OH254229   3.682   2.127   4.303  0.9081  0.0653 -0.2168
10913TIP3    H154230   3.765   2.173   4.306  0.3039  1.3697 -1.7089
10913TIP3    H254231   3.705   2.036   4.281  1.8951  0.8569 -2.9038
10914TIP3   OH254232   5.151   6.009   3.644  0.9667 -0.1110 -0.5036
10914TIP3    H154233   5.191   5.938   3.593 -1.3166 -0.5640 -1.7833
10914TIP3    H254234   5.090   6.051   3.583 -0.2907  0.7160  1.2481
10915TIP3   OH254235   4.127   1.078   3.453 -0.1826  0.4348 -0.0045
10915TIP3    H154236   4.221   1.075   3.438 -0.2511  0.2585 -0.4041
10915TIP3    H254237   4.100   0.987   3.461 -0.3511  0.4756 -0.0959
10916TIP3   OH254238   0.149   4.706   3.969  0.2264 -0.2521 -0.5233
10916TIP3    H154239   0.076   4.705   4.031 -0.7701  2.3392 -1.5094
10916TIP3    H254240   0.226   4.685   4.021 -0.7487  0.5892  1.3371
10917TIP3   OH254241   5.801   0.697  14.187  0.5200 -0.0482 -0.5395
10917TIP3    H154242   5.830   0.707  14.097  1.6448 -1.0413 -0.3069
10917TIP3    H254243   5.789   0.602  14.198  1.7353 -0.0767  0.7394
10918TIP3   OH254244   3.284   5.247   5.421  0.1042 -0.3123 -0.0049
10918TIP3    H154245   3.292   5.339   5.396  2.3916 -0.4869 -0.1295
10918TIP3    H254246   3.267   5.248   5.515  2.2729  0.2619  0.4216
10919TIP3   OH254247   4.170   2.837  16.232  0.6501 -0.0318 -0.0068
10919TIP3    H154248   4.083   2.870  16.255 -0.4722 -1.8000 -1.4116
10919TIP3    H254249   4.223   2.916  16.218 -1.0237  1.1133 -0.1853
10920TIP3   OH254250   1.586   4.925   1.903  0.3487 -0.4651  0.4277
10920TIP3    H154251   1.595   4.856   1.837  1.3084  0.7699 -0.8061
10920TIP3    H254252   1.541   4.996   1.857  1.9166  0.7965  0.7427
10921TIP3   OH254253   6.466   6.148  11.916 -0.0944 -0.0339 -0.4846
10921TIP3    H154254   6.453   6.189  11.830  0.4473  1.3729  0.0872
10921TIP3    H254255   6.557   6.118  11.915 -0.1190 -0.1122 -0.4280
10922TIP3   OH254256   6.124   4.229   4.793 -0.2355 -0.5366 -0.2698
10922TIP3    H154257   6.192   4.182   4.744  0.9390  1.9178 -1.2071
10922TIP3    H254258   6.063   4.260   4.726 -0.1675  0.4720  0.1128
10923TIP3   OH254259   0.044   1.670  15.955  0.0640 -0.4579 -0.0524
10923TIP3    H154260   0.064   1.707  15.869 -1.2543  0.9427  0.1903
10923TIP3    H254261   0.117   1.697  16.010 -0.0030  0.2805 -0.3135
10924TIP3   OH254262   2.410   4.051  13.923 -0.4946  0.1116  0.0644
10924TIP3    H154263   2.367   4.042  13.837 -1.5378 -2.4260  0.7638
10924TIP3    H254264   2.503   4.058  13.902 -0.8403  0.9905 -1.3150
10925TIP3   OH254265   1.564   2.062  12.792 -0.3228  0.0844 -0.1186
10925TIP3    H154266   1.608   2.147  12.784 -0.8202  0.3258 -0.3728
10925TIP3    H254267   1.604   2.021  12.868 -1.6397  1.4968  1.4088
10926TIP3   OH254268   0.441   4.391  15.058 -0.3682 -0.3100  0.1919
10926TIP3    H154269   0.373   4.458  15.050  1.5880  1.7416 -0.1608
10926TIP3    H254270   0.435   4.341  14.977 -0.1948  1.1248 -0.7293
10927TIP3   OH254271   3.718   3.323  15.858 -0.4454 -0.0420  0.6521
10927TIP3    H154272   3.662   3.379  15.804  2.0502  0.2616 -1.8654
10927TIP3    H254273   3.697   3.234  15.831 -0.6333  0.0055  0.6464
10928TIP3   OH254274   0.643   6.186  12.255 -0.6176 -0.6070 -0.3918
10928TIP3    H154275   0.619   6.256  12.317 -0.1037 -0.5248 -0.2780
10928TIP3    H254276   0.623   6.105  12.302  1.4172 -0.6024  0.6377
10929TIP3   OH254277   3.867   5.577   3.459 -0.1441  0.1257 -0.1460
10929TIP3    H154278   3.923   5.638   3.410  0.8302 -0.6067  0.0420
10929TIP3    H254279   3.886   5.491   3.422 -0.3163 -0.2798  0.6912
10930TIP3   OH254280   3.903   4.968   4.765 -0.1481 -0.0160 -0.4800
10930TIP3    H154281   3.993   4.971   4.731  0.0154 -2.0473 -0.2957
10930TIP3    H254282   3.880   5.061   4.777  1.2989  0.6162 -2.1044
10931TIP3   OH254283   4.635   4.791   1.120  0.1643 -0.2811  0.0390
10931TIP3    H154284   4.666   4.730   1.188  1.5201 -0.2455 -0.5044
10931TIP3    H254285   4.576   4.738   1.066  0.7329 -0.9108  0.0174
10932TIP3   OH254286   0.074   3.989   5.593  0.1155 -0.7255 -0.2280
10932TIP3    H154287   0.155   4.038   5.580 -0.3304 -0.1473 -0.8873
10932TIP3    H254288   0.077   3.919   5.528  0.1187 -0.7516 -0.2002
10933TIP3   OH254289   5.662   1.509   1.903  0.5562 -0.2461  0.4385
10933TIP3    H154290   5.640   1.468   1.820 -1.8834  1.0778  0.3212
10933TIP3    H254291   5.736   1.566   1.884  0.0302  0.0436 -0.8701
10934TIP3   OH254292   3.245   5.149  11.802  0.0072 -0.1324 -0.3859
10934TIP3    H154293   3.165   5.097  11.801 -0.1621  0.0680  0.9242
10934TIP3    H254294   3.214   5.239  11.815  0.3673  0.1618 -1.4344
10935TIP3   OH254295   6.277   1.223  12.381 -0.1748  0.2397 -0.0116
10935TIP3    H154296   6.290   1.130  12.362 -1.3810  0.2252 -0.8964
10935TIP3    H254297   6.201   1.225  12.439 -0.0656  0.6747  0.1201
10936TIP3   OH254298   4.167   1.438  13.298  0.2454 -0.3097  0.0702
10936TIP3    H154299   4.261   1.441  13.279  0.9028 -1.4600  2.6871
10936TIP3    H254300   4.141   1.529  13.309  0.5542  0.1649 -2.4614
10937TIP3   OH254301   1.204   4.048  14.155  0.4976  0.6825 -0.0817
10937TIP3    H154302   1.201   4.075  14.247  0.2543  0.3265  0.0163
10937TIP3    H254303   1.126   3.993  14.144  1.4062 -0.6674 -0.0627
10938TIP3   OH254304   0.642   6.363   0.397 -0.4373  0.1227  0.0016
10938TIP3    H154305   0.615   6.312   0.473 -2.4181 -2.8058 -2.4511
10938TIP3    H254306   0.588   6.442   0.401 -0.6504 -0.0725  1.4663
10939TIP3   OH254307   1.036   6.225  14.130  0.2351 -0.4073 -0.0482
10939TIP3    H154308   0.976   6.262  14.195  0.1651 -0.6116  0.0055
10939TIP3    H254309   1.101   6.178  14.182  0.4282 -0.2068 -0.1079
10940TIP3   OH254310   3.879   5.248   5.997 -0.2518  0.1017  0.5208
10940TIP3    H154311   3.896   5.197   5.918  1.2433  1.0034  0.2097
10940TIP3    H254312   3.941   5.214   6.061 -0.9633 -0.1409  1.0918
10941TIP3   OH254313   4.884   6.761   4.918 -0.4089  0.5298 -0.7756
10941TIP3    H154314   4.903   6.838   4.865 -3.0047  0.6982 -1.5862
10941TIP3    H254315   4.866   6.692   4.855 -1.0739  0.0662 -0.0934
10942TIP3   OH254316   0.844   6.306   1.220 -0.0375 -0.1176  0.1119
10942TIP3    H154317   0.754   6.333   1.234  0.0258 -1.1231  3.1158
10942TIP3    H254318   0.843   6.211   1.230  1.3884 -0.1089  0.6806
10943TIP3   OH254319   5.441   3.648  13.939 -0.5658 -0.9690  0.0928
10943TIP3    H154320   5.391   3.567  13.940 -0.7666 -0.8471  0.9544
10943TIP3    H254321   5.524   3.626  13.980 -0.7522 -0.6684  0.6493
10944TIP3   OH254322   3.072   1.566  14.822  0.4398 -0.1287  0.1188
10944TIP3    H154323   3.136   1.631  14.793  0.7860 -0.1311  0.8649
10944TIP3    H254324   3.061   1.508  14.746 -0.1244  0.9712 -0.6647
10945TIP3   OH254325   0.564   5.960  14.084  0.5870  0.0537  0.5112
10945TIP3    H154326   0.659   5.961  14.098  0.2520  1.2749  3.4404
10945TIP3    H254327   0.554   5.966  13.989  3.4530  2.6453  0.2171
10946TIP3   OH254328   2.705   6.051  15.157 -0.1084 -0.2417  0.1343
10946TIP3    H154329   2.622   6.095  15.142 -0.2714 -0.1862  1.0913
10946TIP3    H254330   2.696   5.966  15.114 -0.2255  0.1950 -0.7246
10947TIP3   OH254331   6.395   0.917  13.312 -0.2275 -0.0066  0.1947
10947TIP3    H154332   6.353   0.958  13.388 -0.2074 -0.0183  0.2120
10947TIP3    H254333   6.434   0.837  13.345  0.3233  0.3029  0.3009
10948TIP3   OH254334   3.960   1.153   2.999  0.4360 -0.6223  0.3238
10948TIP3    H154335   3.902   1.178   3.071  0.9059  2.6173 -0.2417
10948TIP3    H254336   4.047   1.180   3.028  0.5625  1.2368 -1.5548
10949TIP3   OH254337   2.368   5.186  12.892 -0.2442  0.2386 -0.5066
10949TIP3    H154338   2.403   5.158  12.977 -0.8306  2.1728  0.4291
10949TIP3    H254339   2.433   5.155  12.829  0.8076 -0.2272  0.7385
10950TIP3   OH254340   3.161   6.773   1.450 -0.5463  0.5398 -0.0839
10950TIP3    H154341   3.228   6.842   1.442 -0.2712  0.4435  1.2802
10950TIP3    H254342   3.120   6.789   1.534 -1.5646 -0.0349 -0.4581
10951TIP3   OH254343   1.306   5.796  15.510  0.7494 -0.0669 -0.3013
10951TIP3    H154344   1.250   5.793  15.433 -1.8724  1.5268  1.3603
10951TIP3    H254345   1.295   5.710  15.551  2.0774 -0.8821 -1.5660
10952TIP3   OH254346   2.365   1.426   1.054  0.5124 -0.0675 -0.0153
10952TIP3    H154347   2.455   1.452   1.074  1.0261  0.7299 -2.8357
10952TIP3    H254348   2.351   1.345   1.103  2.6305 -0.0128  0.7796
10953TIP3   OH254349   3.930   4.120   0.106  0.1227 -0.0552  0.2768
10953TIP3    H154350   3.981   4.054   0.154 -0.3136 -1.6355 -1.3245
10953TIP3    H254351   3.841   4.111   0.140  0.0279 -0.4258 -0.0650
10954TIP3   OH254352   1.545   1.819  14.773 -0.3961 -0.2343  0.5939
10954TIP3    H154353   1.461   1.844  14.810 -0.2662 -0.7701  1.2557
10954TIP3    H254354   1.594   1.781  14.846  0.7251  0.7885  0.4178
10955TIP3   OH254355   5.641   3.386   5.587 -0.0875 -0.0089  0.0007
10955TIP3    H154356   5.565   3.402   5.532  1.3018  0.1020 -1.9764
10955TIP3    H254357   5.712   3.433   5.545  1.3165 -0.9184  1.2342
10956TIP3   OH254358   5.698   5.485   0.936  0.0735 -0.0891 -0.4851
10956TIP3    H154359   5.742   5.416   0.886 -0.1459  1.7669 -3.4801
10956TIP3    H254360   5.605   5.470   0.921  0.0326  0.9382 -1.3439
10957TIP3   OH254361   0.038   3.295   2.743 -0.1281  0.2858 -0.1419
10957TIP3    H154362   0.110   3.349   2.776  0.9667 -1.1885  0.0151
10957TIP3    H254363   0.008   3.340   2.665  0.1461  1.5763  0.4752
10958TIP3   OH254364   2.333   0.429  15.836  0.4276  0.1951 -0.4483
10958TIP3    H154365   2.421   0.447  15.868  0.4339  0.7679 -0.7689
10958TIP3    H254366   2.279   0.427  15.915  0.8692 -1.0992 -0.1560
10959TIP3   OH254367   5.124   0.945  14.356  0.0294  0.7966  0.0396
10959TIP3    H154368   5.045   0.962  14.407  1.1159  1.3866  1.5703
10959TIP3    H254369   5.175   0.884  14.409  1.2823  1.5862 -0.2227
10960TIP3   OH254370   0.706   1.171  12.335 -0.6643 -0.2011 -0.4287
10960TIP3    H154371   0.614   1.165  12.309 -0.5444 -1.5593 -0.6103
10960TIP3    H254372   0.753   1.189  12.253 -0.5257 -2.1937 -0.8511
10961TIP3   OH254373   3.567   1.506  13.463  0.1891  0.5529 -0.2033
10961TIP3    H154374   3.516   1.540  13.390  0.8096  1.5430 -0.1959
10961TIP3    H254375   3.603   1.584  13.506 -0.1321 -0.0174  1.1420
10962TIP3   OH254376   0.591   3.890  13.829  0.2315  0.7337 -0.2997
10962TIP3    H154377   0.676   3.934  13.830  0.4663  0.3026  0.9336
10962TIP3    H254378   0.571   3.879  13.736  0.4045  2.9428 -0.6613
10963TIP3   OH254379   1.087   0.833   3.112 -0.4364 -1.0101  1.2405
10963TIP3    H154380   1.013   0.836   3.052 -1.0957  0.3983  2.0683
10963TIP3    H254381   1.155   0.785   3.065 -0.3076  1.4625 -1.3546
10964TIP3   OH254382   3.900   6.152   4.683  0.5267  0.4783  0.3488
10964TIP3    H154383   3.887   6.083   4.618  0.9861 -0.8742  1.6527
10964TIP3    H254384   3.970   6.206   4.647  1.5788 -0.9269  0.2224
10965TIP3   OH254385   1.004   5.240  11.070 -0.5935 -0.1734 -0.0859
10965TIP3    H154386   0.964   5.157  11.044  0.6260 -0.5725 -0.7533
10965TIP3    H254387   1.090   5.239  11.029 -0.3509  1.1915  0.3456
10966TIP3   OH254388   2.879   4.376   5.994  0.6099  0.4356 -0.1895
10966TIP3    H154389   2.921   4.295   5.967  1.4110  0.9288 -0.4663
10966TIP3    H254390   2.798   4.379   5.943 -0.8985 -1.5733  1.8972
10967TIP3   OH254391   2.382   3.896   0.842 -0.1013  0.7463 -0.4468
10967TIP3    H154392   2.385   3.934   0.754  1.0773  2.1783  0.1575
10967TIP3    H254393   2.468   3.915   0.879 -1.1166  1.7328  1.6039
10968TIP3   OH254394   3.914   1.274   3.971  0.1804 -0.1290  0.5132
10968TIP3    H154395   3.903   1.190   3.925  0.6164 -0.3979  0.8849
10968TIP3    H254396   3.851   1.271   4.042 -0.3032  0.1689  0.0998
10969TIP3   OH254397   0.983   4.797   0.053 -0.1711  0.4434 -0.4239
10969TIP3    H154398   1.078   4.806   0.048 -0.2519  0.9190 -1.3526
10969TIP3    H254399   0.969   4.713   0.096  0.6756  0.0086 -0.9674
10970TIP3   OH254400   4.371   1.060  15.463 -0.4421 -0.6919 -0.2074
10970TIP3    H154401   4.371   0.972  15.501  0.5270 -0.5892  0.0371
10970TIP3    H254402   4.279   1.075  15.440 -1.2270 -0.5004  2.7153
10971TIP3   OH254403   6.472   2.741  12.266 -0.2369  0.1047  0.4916
10971TIP3    H154404   6.513   2.814  12.219  1.7716 -0.2188  1.6343
10971TIP3    H254405   6.513   2.663  12.228 -2.1876 -0.4909 -0.5529
10972TIP3   OH254406   3.303   1.757  16.672 -0.2357  0.1094  0.0946
10972TIP3    H154407   3.241   1.735  16.742 -1.1678  0.1023 -0.7148
10972TIP3    H254408   3.294   1.851  16.659  1.1968  0.4328  1.1362
10973TIP3   OH254409   2.246   0.847   3.839  0.6658 -0.3437  0.5947
10973TIP3    H154410   2.194   0.787   3.786  1.2779 -0.8624  0.5719
10973TIP3    H254411   2.296   0.899   3.776 -0.9839  1.2804  0.5364
10974TIP3   OH254412   1.598   0.826   4.892 -0.0567 -0.2476 -0.1552
10974TIP3    H154413   1.659   0.853   4.960 -1.4129 -0.2179  1.0840
10974TIP3    H254414   1.654   0.791   4.822  1.3754  0.0380  0.8197
10975TIP3   OH254415   0.599   2.918   1.666  0.4721  0.4900 -0.2057
10975TIP3    H154416   0.555   2.833   1.661  1.2489 -0.0159  0.9766
10975TIP3    H254417   0.640   2.929   1.581  1.0481 -0.7267 -0.1048
10976TIP3   OH254418   3.515   1.110  11.582  0.1446  0.7491  0.2439
10976TIP3    H154419   3.482   1.021  11.595 -0.1854  0.8325 -0.0265
10976TIP3    H254420   3.451   1.152  11.525 -0.1839  1.4638  1.1341
10977TIP3   OH254421   2.610   0.960  11.839  0.0079  0.5270 -0.1495
10977TIP3    H154422   2.690   0.910  11.822 -1.1774 -1.6694  0.4088
10977TIP3    H254423   2.581   0.988  11.752  0.3329 -0.3896 -0.5662
10978TIP3   OH254424   3.358   1.996  11.639 -0.1110 -0.2604  0.3654
10978TIP3    H154425   3.366   1.910  11.596 -2.1520 -0.6844  0.7143
10978TIP3    H254426   3.328   2.054  11.569 -0.0416 -0.1364  0.4393
10979TIP3   OH254427   5.658   5.554  15.199 -0.2311 -0.5170  0.3377
10979TIP3    H154428   5.574   5.581  15.236 -0.5920 -1.2149  0.0526
10979TIP3    H254429   5.652   5.579  15.106 -0.4415 -1.2761  0.1431
10980TIP3   OH254430   1.855   0.435   5.920  0.0982  0.0302 -0.4503
10980TIP3    H154431   1.902   0.404   5.843 -0.2170  0.8983 -1.0132
10980TIP3    H254432   1.766   0.401   5.910  0.5221 -1.4919  0.5425
10981TIP3   OH254433   0.898   5.454  14.406 -0.2112  0.3254  0.0285
10981TIP3    H154434   0.830   5.520  14.389 -0.8660 -0.6113 -1.1204
10981TIP3    H254435   0.898   5.399  14.328  2.5966  0.8771 -0.4772
10982TIP3   OH254436   5.516   1.811   0.834 -0.4825  0.0611  0.6217
10982TIP3    H154437   5.524   1.749   0.761  0.0980  0.3447  0.4353
10982TIP3    H254438   5.489   1.893   0.793 -0.9796  0.0091  0.8359
10983TIP3   OH254439   3.682   5.212   1.176  0.5242 -0.1261  0.1678
10983TIP3    H154440   3.740   5.288   1.165  0.2717  0.6059  3.1871
10983TIP3    H254441   3.669   5.179   1.087  1.9000  2.4280 -1.0851
10984TIP3   OH254442   1.171   6.545  16.115  0.1586 -1.0690  0.1171
10984TIP3    H154443   1.130   6.625  16.083  1.1205 -0.6802 -0.1780
10984TIP3    H254444   1.151   6.479  16.049 -0.3621 -1.0054  0.2053
10985TIP3   OH254445   0.909   1.285  16.249  0.3162  0.5234 -0.3984
10985TIP3    H154446   0.988   1.270  16.301  0.3073 -0.4267 -0.6258
10985TIP3    H254447   0.941   1.289  16.159 -0.0259 -1.4976 -0.6679
10986TIP3   OH254448   2.583   0.600  13.521 -0.3216 -0.4388  0.0859
10986TIP3    H154449   2.507   0.566  13.474  1.3191 -1.5617 -1.9370
10986TIP3    H254450   2.594   0.689  13.488  0.9699 -1.3006 -2.0329
10987TIP3   OH254451   6.126   1.176  15.203 -0.4325 -0.4200 -0.3225
10987TIP3    H154452   6.178   1.256  15.196 -1.7377  0.3632 -1.6105
10987TIP3    H254453   6.039   1.201  15.172 -0.8442 -2.3777 -0.8830
10988TIP3   OH254454   3.395   0.639   1.931  0.3254  0.8199  0.0447
10988TIP3    H154455   3.357   0.660   2.016  1.7987  0.4147  0.8360
10988TIP3    H254456   3.397   0.543   1.928  0.4773  0.8311 -0.3722
10989TIP3   OH254457   4.917   0.184   2.775 -0.1127  0.4735  0.0548
10989TIP3    H154458   4.861   0.260   2.756 -0.6817 -0.3876 -1.9281
10989TIP3    H254459   4.856   0.110   2.778  0.6183 -0.1221  0.4723
10990TIP3   OH254460   0.274   2.442   4.065  0.2365 -0.0307  0.3276
10990TIP3    H154461   0.310   2.427   3.977  0.5210  1.5094  0.1581
10990TIP3    H254462   0.253   2.536   4.067 -0.1332 -0.1238  1.7747
10991TIP3   OH254463   6.281   4.945  12.881 -0.3331 -0.3830 -0.1349
10991TIP3    H154464   6.262   4.936  12.788 -0.5494 -1.0645 -0.0268
10991TIP3    H254465   6.292   4.856  12.912  3.1902 -0.1171 -0.2126
10992TIP3   OH254466   2.026   2.887   3.456 -0.4778  0.8821  0.3944
10992TIP3    H154467   2.114   2.924   3.469  0.3394 -0.9969  0.5405
10992TIP3    H254468   2.005   2.844   3.539 -1.3510  0.9097  0.1978
10993TIP3   OH254469   2.542   2.130   6.013  0.0373 -0.0552 -0.0012
10993TIP3    H154470   2.534   2.222   6.039  1.2753 -0.0364  0.4075
10993TIP3    H254471   2.550   2.082   6.096 -0.6385 -0.5432 -0.2098
10994TIP3   OH254472   1.070   3.183  11.306 -0.5623  0.5543  0.2567
10994TIP3    H154473   1.019   3.196  11.387 -1.4413  1.5301 -0.4231
10994TIP3    H254474   1.155   3.223  11.325  0.4101 -1.9542  1.7537
10995TIP3   OH254475   2.745   4.969   5.310 -0.2669  0.2511  0.0193
10995TIP3    H154476   2.719   4.952   5.220  1.9323 -1.8068 -0.3243
10995TIP3    H254477   2.739   5.064   5.319  0.4104  0.6174 -2.6092
10996TIP3   OH254478   5.410   6.630   0.789 -0.5676  0.2700  0.6209
10996TIP3    H154479   5.431   6.709   0.838  2.8741 -0.3451  0.3804
10996TIP3    H254480   5.445   6.646   0.701 -1.2786 -0.9150  0.0898
10997TIP3   OH254481   0.916   2.320   1.685  0.1659  0.1195  0.2208
10997TIP3    H154482   0.930   2.351   1.596  0.2287 -0.8609 -0.1182
10997TIP3    H254483   0.985   2.255   1.700 -0.7973 -0.8847  0.4100
10998TIP3   OH254484   6.729   5.016   3.888  0.1013 -0.5528 -0.2954
10998TIP3    H154485   6.733   4.961   3.809 -1.1118 -0.1348 -0.6809
10998TIP3    H254486   6.713   4.955   3.959  0.3452 -0.8523 -0.4937
10999TIP3   OH254487   6.487   1.671   6.161 -0.2595  0.1053 -0.2847
10999TIP3    H154488   6.424   1.720   6.214 -0.5998 -1.2234  0.5960
10999TIP3    H254489   6.557   1.733   6.143 -0.8464  1.0174  0.4610
11000TIP3   OH254490   4.371   2.251   6.144  0.2152 -0.5117 -0.4694
11000TIP3    H154491   4.448   2.307   6.131  1.2699 -1.8560 -0.2593
11000TIP3    H254492   4.397   2.165   6.111 -0.7010 -1.3538  0.8587
11001TIP3   OH254493   4.795   5.224  11.911 -0.6540  0.1645  0.4138
11001TIP3    H154494   4.738   5.173  11.968  0.9595 -0.8884  1.1523
11001TIP3    H254495   4.827   5.162  11.846  1.5398  0.0891  1.4827
11002TIP3   OH254496   5.127   2.798  16.666 -0.2943 -0.4067 -0.6507
11002TIP3    H154497   5.064   2.804  16.594 -0.0922  0.1362 -0.7845
11002TIP3    H254498   5.213   2.805  16.624 -0.1919  0.7158 -0.2880
11003TIP3   OH254499   3.347   5.846  12.190 -0.2283  0.5755 -0.4558
11003TIP3    H154500   3.319   5.932  12.222 -1.3741  0.7071 -1.7082
11003TIP3    H254501   3.329   5.787  12.263  2.0330  1.5622  1.0245
11004TIP3   OH254502   5.101   6.145  11.391  0.5067 -0.3286 -0.0374
11004TIP3    H154503   5.111   6.157  11.485 -0.6490 -2.0801  0.3493
11004TIP3    H254504   5.136   6.057  11.374 -2.8120 -1.7140 -0.5110
11005TIP3   OH254505   5.727   0.040   0.089 -0.4361 -0.4046  0.2217
11005TIP3    H154506   5.694  -0.044   0.120  0.9362 -0.9750  0.2223
11005TIP3    H254507   5.817   0.043   0.120 -0.3215  0.8685 -0.1799
11006TIP3   OH254508   3.612   4.714  15.483 -0.1235  0.2051 -0.1133
11006TIP3    H154509   3.612   4.633  15.534  0.6943  0.5036  0.3840
11006TIP3    H254510   3.634   4.783  15.546 -0.5059  0.7784 -0.5903
11007TIP3   OH254511   0.485   1.011  12.710 -0.3507  0.1451  0.0305
11007TIP3    H154512   0.506   0.942  12.648 -0.0456  0.7375 -0.5373
11007TIP3    H254513   0.569   1.054  12.728 -0.4655  0.0953  0.7148
11008TIP3   OH254514   0.258   2.822  13.136 -0.8216  0.3550  0.2600
11008TIP3    H154515   0.347   2.856  13.126 -0.6448 -0.3858 -0.9406
11008TIP3    H254516   0.205   2.875  13.077 -0.8392 -0.3585 -0.3783
11009TIP3   OH254517   4.858   2.060   4.809  0.5247  0.1237  0.5048
11009TIP3    H154518   4.871   1.978   4.858 -0.0316  0.2289  0.8415
11009TIP3    H254519   4.938   2.110   4.824  1.3087 -0.7901 -0.5588
11010TIP3   OH254520   6.070   2.655   3.956 -0.0359  0.9727  0.4979
11010TIP3    H154521   5.988   2.699   3.979 -0.3164  1.2527 -0.9790
11010TIP3    H254522   6.074   2.580   4.015 -0.1711  2.2465  2.2092
11011TIP3   OH254523   3.354   0.618  10.318 -0.3887 -0.5181 -0.4193
11011TIP3    H154524   3.323   0.614  10.409  1.5739  0.9037  0.3936
11011TIP3    H254525   3.344   0.529  10.285 -0.4983 -1.2350  1.4346
11012TIP3   OH254526   4.974   0.075  14.272  0.0901  0.0750  0.7651
11012TIP3    H154527   5.036   0.047  14.205  1.1177  0.0330  1.7095
11012TIP3    H254528   4.935  -0.007  14.305 -1.4607  0.1617 -0.7025
11013TIP3   OH254529   3.117   2.045   2.364 -0.1195  0.0339  0.5324
11013TIP3    H154530   3.082   1.957   2.382  1.4972 -0.5368  1.0606
11013TIP3    H254531   3.109   2.055   2.269  1.0593 -1.3442  0.2488
11014TIP3   OH254532   5.227   0.962   4.612  0.0022  0.2068 -0.6132
11014TIP3    H154533   5.213   0.941   4.704  1.0592  1.0165 -0.2429
11014TIP3    H254534   5.218   0.879   4.566 -0.2389 -0.2533  0.2600
11015TIP3   OH254535   1.329   3.530   2.841 -0.3243  0.4131 -0.6621
11015TIP3    H154536   1.421   3.509   2.855 -0.5067 -0.2912 -0.4427
11015TIP3    H254537   1.314   3.513   2.748 -0.5776 -0.9585 -0.3995
11016TIP3   OH254538   0.871   0.356   1.029 -0.5833 -0.6574  0.4783
11016TIP3    H154539   0.791   0.312   0.999 -1.0788  0.4718  0.0995
11016TIP3    H254540   0.868   0.349   1.124 -0.9467 -0.9287  0.4499
11017TIP3   OH254541   6.579   5.500   2.093 -0.3225  0.8615 -0.2932
11017TIP3    H154542   6.513   5.444   2.134  0.2488  2.1046  2.5710
11017TIP3    H254543   6.529   5.565   2.045 -1.0051 -1.5983 -3.2443
11018TIP3   OH254544   5.835   5.158   5.278  0.2096 -0.3787  0.3215
11018TIP3    H154545   5.915   5.188   5.320 -0.3533  0.4130  0.8341
11018TIP3    H254546   5.765   5.177   5.341 -0.4109 -0.8640 -0.2051
11019TIP3   OH254547   5.931   6.608  17.087  0.3945  0.5164  0.0981
11019TIP3    H154548   5.959   6.638  17.173  0.5685  0.1626  0.1683
11019TIP3    H254549   6.010   6.570  17.048  0.7520  2.1683 -0.8960
11020TIP3   OH254550   2.286   4.743   6.266  0.7757 -0.2088 -0.5996
11020TIP3    H154551   2.274   4.807   6.336  1.3819 -0.2122 -0.4822
11020TIP3    H254552   2.218   4.763   6.203 -1.1774 -1.5356  0.9459
11021TIP3   OH254553   0.599   0.498   2.940  0.5661 -0.5223  0.1189
11021TIP3    H154554   0.583   0.485   3.033 -0.6462  0.5248  0.0889
11021TIP3    H254555   0.659   0.573   2.937  1.5216 -1.2750  0.0775
11022TIP3   OH254556   1.993   5.468  10.939  0.1061 -0.6949 -0.1415
11022TIP3    H154557   2.073   5.501  10.899 -0.9148 -0.0025 -1.7401
11022TIP3    H254558   1.991   5.375  10.914  0.1546 -0.5873 -0.5530
11023TIP3   OH254559   1.359   6.570   1.434 -0.3261 -0.4694  0.2983
11023TIP3    H154560   1.416   6.515   1.380  2.1255  2.8124 -0.7710
11023TIP3    H254561   1.340   6.647   1.380 -4.1065 -0.3659  1.4691
11024TIP3   OH254562   6.569   6.435   0.519  0.3377 -0.6753  0.0251
11024TIP3    H154563   6.595   6.466   0.605 -0.6585  0.2802  0.0017
11024TIP3    H254564   6.487   6.387   0.534  0.0829 -0.3847 -0.3938
11025TIP3   OH254565   1.767   4.962   0.271  0.6646 -0.2607 -0.5453
11025TIP3    H154566   1.697   4.911   0.313  0.0669 -0.7201 -2.0176
11025TIP3    H254567   1.782   5.035   0.330  1.3230 -1.9445  1.5025
11026TIP3   OH254568   3.217   3.829   3.760 -0.1986  0.6379  0.0640
11026TIP3    H154569   3.191   3.917   3.788 -0.0994  0.1499  1.8012
11026TIP3    H254570   3.135   3.789   3.732 -1.5314 -0.6046  4.7267
11027TIP3   OH254571   6.836   1.446  13.547 -0.1208 -0.1147 -0.5326
11027TIP3    H154572   6.881   1.363  13.552 -1.4988 -1.1411 -3.1821
11027TIP3    H254573   6.891   1.501  13.491 -0.0978  0.1129 -0.2891
11028TIP3   OH254574   5.657   0.860   4.745 -0.0192 -0.2351  0.0252
11028TIP3    H154575   5.749   0.883   4.762  0.1461 -0.7716 -0.1217
11028TIP3    H254576   5.607   0.913   4.807  0.2781  1.2131 -0.9378
11029TIP3   OH254577   1.868   2.800   4.954 -0.1875  0.0551 -0.2800
11029TIP3    H154578   1.853   2.880   4.904  1.3391  0.4598 -0.1449
11029TIP3    H254579   1.956   2.811   4.991 -1.2243 -0.2543  2.4580
11030TIP3   OH254580   0.289   2.419   5.867  0.0334  0.0102 -0.2381
11030TIP3    H154581   0.204   2.428   5.823  0.1848  1.5114 -0.2797
11030TIP3    H254582   0.352   2.449   5.802  0.5106 -0.3198  0.0758
11031TIP3   OH254583   1.735   6.409   4.506 -0.4855  0.2449  0.3189
11031TIP3    H154584   1.687   6.491   4.521 -1.1224 -0.3160  1.4793
11031TIP3    H254585   1.666   6.343   4.494 -0.0034 -0.3491  0.7558
11032TIP3   OH254586   6.470   6.498   4.494  0.0163 -0.3338 -0.4013
11032TIP3    H154587   6.527   6.448   4.551  0.6970  2.2835  1.3953
11032TIP3    H254588   6.529   6.537   4.429 -0.0486  0.4543  0.0016
11033TIP3   OH254589   3.213   4.502  14.919  0.0004  0.4760  0.0533
11033TIP3    H154590   3.214   4.598  14.928 -1.3546  0.4027  1.5542
11033TIP3    H254591   3.235   4.470  15.007  1.3498 -0.6330 -0.6498
11034TIP3   OH254592   1.408   1.446   5.110  0.0917  0.3748  0.0155
11034TIP3    H154593   1.488   1.464   5.159 -0.4388 -0.5349  1.2781
11034TIP3    H254594   1.371   1.369   5.153 -1.1034  0.3583 -0.9901
11035TIP3   OH254595   6.312   2.903  11.404 -0.1742  0.5983 -0.1101
11035TIP3    H154596   6.300   2.929  11.495  0.8393 -1.7633  0.7563
11035TIP3    H254597   6.364   2.973  11.365 -0.6585  1.6515  1.0879
11036TIP3   OH254598   1.881   1.092  14.518 -0.4533  0.0277  0.0156
11036TIP3    H154599   1.886   1.173  14.467 -0.2001 -0.0079 -0.0164
11036TIP3    H254600   1.940   1.031  14.473  0.4673  0.2784  0.8516
11037TIP3   OH254601   2.097   6.571   4.203  0.3393  0.1192 -0.5592
11037TIP3    H154602   2.190   6.547   4.194 -0.2721 -1.9214 -2.2751
11037TIP3    H254603   2.080   6.566   4.297  1.5668 -1.2577 -0.3735
11038TIP3   OH254604   4.894   1.613   2.295 -0.1920  0.3425 -0.2152
11038TIP3    H154605   4.832   1.656   2.236 -0.3840  0.9806  0.4366
11038TIP3    H254606   4.977   1.659   2.280 -0.4573  1.1471  0.6692
11039TIP3   OH254607   5.592   6.756   6.655 -0.3377 -0.1160 -0.6804
11039TIP3    H154608   5.570   6.801   6.573 -0.6975 -0.3485 -0.7142
11039TIP3    H254609   5.605   6.664   6.630  1.4508  0.1282 -0.7890
11040TIP3   OH254610   1.736   3.741  12.166 -0.2978 -0.2433  0.7422
11040TIP3    H154611   1.806   3.748  12.231 -1.1069  0.9719  1.5219
11040TIP3    H254612   1.712   3.649  12.166  1.2257 -0.6529  0.5404
11041TIP3   OH254613   0.652   2.923   0.750 -0.2985 -0.0697  0.0124
11041TIP3    H154614   0.589   2.995   0.751 -0.6690 -0.3857  0.7124
11041TIP3    H254615   0.737   2.966   0.743 -0.5514  0.3970 -0.2749
11042TIP3   OH254616   5.099   0.996   3.625 -0.0951 -0.2829  0.1945
11042TIP3    H154617   5.064   1.004   3.714 -0.9019 -1.2571 -0.0182
11042TIP3    H254618   5.132   1.083   3.604  0.2213 -0.0748  1.4932
11043TIP3   OH254619   6.547   5.813  16.381 -0.0016 -0.3233 -0.5058
11043TIP3    H154620   6.463   5.828  16.425  0.4535 -2.2760  1.1491
11043TIP3    H254621   6.595   5.895  16.394 -0.1093 -0.5947  2.2621
11044TIP3   OH254622   4.973   1.711   1.253 -0.2764  0.3633 -0.4726
11044TIP3    H154623   4.928   1.777   1.305 -0.8909  0.0237 -0.5658
11044TIP3    H254624   5.030   1.761   1.194 -1.4712  0.8570 -1.2373
11045TIP3   OH254625   0.914   6.372  13.269  0.0527  0.3873  0.0904
11045TIP3    H154626   0.955   6.457  13.251  0.4230  0.1535 -0.1834
11045TIP3    H254627   0.967   6.309  13.220 -3.0113  0.4464 -3.8272
11046TIP3   OH254628   0.610   3.375  13.437  0.4363  0.2577 -0.0548
11046TIP3    H154629   0.614   3.317  13.513 -3.0441  1.2294  1.0673
11046TIP3    H254630   0.693   3.424  13.440  2.5802 -3.0445  0.1027
11047TIP3   OH254631   6.516   4.258   1.664 -0.3689  0.4601  0.2601
11047TIP3    H154632   6.557   4.211   1.591 -0.0671  0.0471  0.6851
11047TIP3    H254633   6.585   4.265   1.730 -0.8500  0.1578  0.8091
11048TIP3   OH254634   2.575   6.270   3.401  0.2951  0.3879 -0.1910
11048TIP3    H154635   2.580   6.271   3.497 -0.4902  1.1278 -0.1471
11048TIP3    H254636   2.502   6.212   3.381  0.2626  0.4792 -0.3355
11049TIP3   OH254637   0.155   4.844   2.487  0.1313  0.1673  0.3182
11049TIP3    H154638   0.209   4.845   2.409  1.8114 -1.4763  1.3894
11049TIP3    H254639   0.107   4.927   2.484  2.1421  1.3626 -1.0602
11050TIP3   OH254640   6.050   6.514  11.421 -0.1895  0.0491 -0.2748
11050TIP3    H154641   6.104   6.469  11.355 -0.3062  0.2894 -0.5390
11050TIP3    H254642   5.972   6.459  11.430  0.1892 -0.4037  0.2545
11051TIP3   OH254643   5.829   5.566  13.450  0.0263 -0.5432 -0.4424
11051TIP3    H154644   5.801   5.656  13.470 -0.4797 -0.7620 -0.1250
11051TIP3    H254645   5.914   5.576  13.408 -0.0025  0.0843 -0.3664
11052TIP3   OH254646   3.624   6.128   5.451 -0.0601 -0.3264 -0.5657
11052TIP3    H154647   3.718   6.147   5.447  0.2834 -1.8258 -0.2261
11052TIP3    H254648   3.619   6.034   5.471 -1.6275 -0.0683  0.4643
11053TIP3   OH254649   2.414   1.601  15.323  0.1198 -0.3333 -0.1509
11053TIP3    H154650   2.354   1.594  15.250  2.7433 -0.4921 -2.4596
11053TIP3    H254651   2.442   1.512  15.342  0.4866 -0.1699  0.1172
11054TIP3   OH254652   3.325   0.518  14.228  0.9745  0.0855  0.0548
11054TIP3    H154653   3.237   0.547  14.254 -0.4326 -2.1921 -1.7486
11054TIP3    H254654   3.316   0.493  14.136  2.5317 -3.6088  0.7221
11055TIP3   OH254655   4.745   3.544   6.127  0.9727 -0.0680 -0.1772
11055TIP3    H154656   4.694   3.535   6.207 -0.4907 -0.3304 -1.0898
11055TIP3    H254657   4.807   3.615   6.145  2.2306 -1.6010  1.9192
11056TIP3   OH254658   1.059   1.201   2.738 -0.0903  0.1068 -0.0902
11056TIP3    H154659   1.123   1.238   2.799  0.1467  1.8740 -1.3126
11056TIP3    H254660   1.111   1.172   2.663 -0.2072 -3.3795  0.9960
11057TIP3   OH254661   2.084   3.351   4.772  0.3643  0.2961 -0.5022
11057TIP3    H154662   2.073   3.446   4.773  1.2738  0.4396  1.5655
11057TIP3    H254663   2.017   3.319   4.711 -0.6402  2.1756 -0.4378
11058TIP3   OH254664   0.931   3.866  16.684  0.3099 -0.3697  0.1436
11058TIP3    H154665   0.845   3.904  16.703  0.2240 -2.2265  4.4281
11058TIP3    H254666   0.964   3.918  16.610 -3.5678  1.7549 -0.3611
11059TIP3   OH254667   2.037   2.961  14.817  0.3261 -0.4263 -0.4262
11059TIP3    H154668   2.062   3.043  14.858  3.0228 -0.6083 -1.5249
11059TIP3    H254669   2.119   2.911  14.810 -0.5376 -1.6517 -3.1813
11060TIP3   OH254670   3.218   2.022  13.159  0.3689 -0.2363 -0.8186
11060TIP3    H154671   3.143   2.066  13.121 -0.9273  1.7911  3.4877
11060TIP3    H254672   3.292   2.081  13.142 -0.3534  1.0810  0.3818
11061TIP3   OH254673   2.024   6.234  12.869  0.0779  0.0012  0.1754
11061TIP3    H154674   1.932   6.233  12.897  0.5125 -0.2129  1.7399
11061TIP3    H254675   2.056   6.146  12.891  0.7992  0.2559  0.1668
11062TIP3   OH254676   2.304   0.515  12.393 -0.0035  0.3627  0.3690
11062TIP3    H154677   2.270   0.553  12.474 -1.3018 -0.1434  0.0802
11062TIP3    H254678   2.227   0.480  12.348  0.5359  1.4927 -1.5608
11063TIP3   OH254679   5.449   4.185   1.926 -0.1629  0.2464 -0.5719
11063TIP3    H154680   5.436   4.138   1.844  1.1238 -0.6336 -0.3011
11063TIP3    H254681   5.489   4.121   1.984  1.2059  1.5303 -0.0329
11064TIP3   OH254682   5.521   5.552   5.028 -0.4786  0.0000  0.2396
11064TIP3    H154683   5.498   5.621   5.090  0.0402  0.0877  0.3365
11064TIP3    H254684   5.567   5.597   4.958  1.4176 -0.4467  1.1275
11065TIP3   OH254685   0.237   4.607  15.284 -0.2600 -0.0354 -0.1579
11065TIP3    H154686   0.264   4.694  15.313  0.2738  0.1711 -1.2099
11065TIP3    H254687   0.250   4.550  15.360  0.2236  0.6394  0.2718
11066TIP3   OH254688   3.963   6.856   2.343  0.5397 -0.1146  0.3844
11066TIP3    H154689   3.915   6.892   2.418  0.1299  2.1924 -0.9138
11066TIP3    H254690   3.894   6.828   2.283  0.8312  0.4550 -0.2220
11067TIP3   OH254691   6.809   6.671  15.645 -0.2977 -0.2527  0.0917
11067TIP3    H154692   6.731   6.715  15.678  0.5245  0.4984  1.0932
11067TIP3    H254693   6.847   6.628  15.722  1.3895  1.1108  0.0844
11068TIP3   OH254694   6.086   1.404   6.195  0.0504  0.0399 -0.2689
11068TIP3    H154695   6.178   1.395   6.171 -0.3853 -0.6155 -1.7751
11068TIP3    H254696   6.066   1.326   6.246  0.3283  0.2018  0.0926
11069TIP3   OH254697   5.999   4.285   3.085 -0.4038 -0.0566  0.0662
11069TIP3    H154698   5.955   4.279   3.000 -0.6169 -0.4342  0.2038
11069TIP3    H254699   6.018   4.379   3.095  0.0015 -0.0622 -0.5899
11070TIP3   OH254700   4.079   5.736   1.106 -0.1614 -0.0220 -0.5986
11070TIP3    H154701   4.088   5.821   1.150 -1.3338  0.1688 -0.7138
11070TIP3    H254702   3.988   5.711   1.120  0.7261 -2.4797  1.5852
11071TIP3   OH254703   3.735   2.969   3.480  0.6292  0.0115  0.4010
11071TIP3    H154704   3.713   2.913   3.406 -1.0064 -2.0857  2.3041
11071TIP3    H254705   3.770   3.049   3.441 -2.3260  0.0139 -2.7308
11072TIP3   OH254706   0.510   6.736   1.962 -0.1205 -0.1915 -0.0659
11072TIP3    H154707   0.549   6.765   2.044 -2.6309 -0.6636  1.3984
11072TIP3    H254708   0.458   6.811   1.932 -2.2432 -1.2090  0.8564
11073TIP3   OH254709   1.549   1.453  12.864 -0.4455  0.0468 -0.2644
11073TIP3    H154710   1.492   1.408  12.801  0.0050  0.1194 -0.7285
11073TIP3    H254711   1.539   1.546  12.843 -1.9974  0.2672  1.2091
11074TIP3   OH254712   2.231   0.978  15.541 -0.4656  0.0281  0.3560
11074TIP3    H154713   2.158   0.917  15.537  0.2783 -0.8655  0.0264
11074TIP3    H254714   2.292   0.946  15.474  0.5690  0.2926  1.1532
11075TIP3   OH254715   3.925   0.624   0.532  0.1344  0.0654 -0.4792
11075TIP3    H154716   3.836   0.648   0.505 -0.2821  1.6274  1.9419
11075TIP3    H254717   3.980   0.694   0.497 -0.1062  0.9171  0.7716
11076TIP3   OH254718   4.469   3.340  12.263 -0.0811 -0.4635  0.6532
11076TIP3    H154719   4.486   3.381  12.348 -1.2431  0.0751  0.6431
11076TIP3    H254720   4.406   3.398  12.220  0.7389 -0.5413 -0.7337
11077TIP3   OH254721   4.722   5.107   6.868 -0.3520 -0.0409  0.2387
11077TIP3    H154722   4.812   5.105   6.901  0.5138  5.4402 -0.9436
11077TIP3    H254723   4.727   5.066   6.782  1.1451  0.5803  0.0115
11078TIP3   OH254724   3.669   5.267  11.931 -0.3387 -0.1717 -0.8195
11078TIP3    H154725   3.647   5.332  11.998 -0.6611  2.6774 -3.4642
11078TIP3    H254726   3.755   5.234  11.958 -1.5448 -1.0974  2.2820
11079TIP3   OH254727   2.024   2.848   2.283 -0.2306 -0.5255  0.0844
11079TIP3    H154728   1.934   2.851   2.315 -0.2229 -1.7149  0.2695
11079TIP3    H254729   2.072   2.802   2.352  0.2851 -0.9158 -0.5245
11080TIP3   OH254730   2.347   3.678   0.993  0.0432  0.3523  0.5938
11080TIP3    H154731   2.319   3.717   1.076  2.0176  1.4481  0.8056
11080TIP3    H254732   2.366   3.753   0.937  1.4507 -0.3013  0.1381
11081TIP3   OH254733   4.940   2.824  16.467  0.6018  0.1522  0.0521
11081TIP3    H154734   4.926   2.859  16.379 -0.2454  0.9616  0.4875
11081TIP3    H254735   4.870   2.760  16.478  0.7651 -0.0178  0.0994
11082TIP3   OH254736   5.287   1.478   0.865 -0.0527 -0.5899 -0.1426
11082TIP3    H154737   5.335   1.528   0.932  0.5682 -0.7837 -0.4331
11082TIP3    H254738   5.277   1.540   0.792  1.3146 -1.0784 -0.7689
11083TIP3   OH254739   2.551   5.613   4.750  0.4248 -0.1162 -0.2687
11083TIP3    H154740   2.590   5.542   4.801 -0.9446 -0.1344  0.8424
11083TIP3    H254741   2.536   5.575   4.664 -0.8577 -1.4294  0.4789
11084TIP3   OH254742   2.456   3.987   4.909 -0.3904 -1.1411  0.1018
11084TIP3    H154743   2.427   3.897   4.894 -0.4633 -1.1506  0.3033
11084TIP3    H254744   2.389   4.041   4.866 -0.6331 -1.1677  0.4442
11085TIP3   OH254745   1.539   5.907  10.387  0.3877  0.5934 -0.2469
11085TIP3    H154746   1.447   5.922  10.367  0.5997  0.3151 -1.4799
11085TIP3    H254747   1.580   5.993  10.377  0.2599  0.7439  0.4253
11086TIP3   OH254748   6.403   0.098   2.698 -0.0336 -0.0351  0.3965
11086TIP3    H154749   6.422   0.178   2.649  0.6422 -0.7375 -0.5139
11086TIP3    H254750   6.328   0.121   2.752 -0.9984  0.6775 -1.1782
11087TIP3   OH254751   5.839   5.685  14.625 -0.2464 -0.1514 -0.3518
11087TIP3    H154752   5.836   5.647  14.537 -1.4661  0.4485 -0.5919
11087TIP3    H254753   5.844   5.779  14.610  1.1919 -0.1198  0.2356
11088TIP3   OH254754   0.038   5.755   1.924  0.2745 -0.0107 -0.2185
11088TIP3    H154755   0.054   5.850   1.924  0.4122 -0.0278 -0.6703
11088TIP3    H254756  -0.017   5.741   1.846  2.7024 -0.6749 -1.9282
11089TIP3   OH254757   0.322   3.761  16.473 -0.2849 -0.3043 -0.6685
11089TIP3    H154758   0.300   3.711  16.552 -3.7723  2.7395  0.5662
11089TIP3    H254759   0.278   3.713  16.402  0.2218 -1.3428 -0.3097
11090TIP3   OH254760   4.176   3.123   0.643  0.1413  0.1420 -0.5311
11090TIP3    H154761   4.189   3.087   0.730 -2.0688  0.0258 -0.1899
11090TIP3    H254762   4.173   3.047   0.585  1.8364  0.2304 -0.8023
11091TIP3   OH254763   3.802   1.064  11.311 -0.2152 -0.4049  0.4737
11091TIP3    H154764   3.803   1.101  11.400 -2.1818  1.9683 -0.3692
11091TIP3    H254765   3.828   1.137  11.255 -2.0456 -0.9235 -1.1279
11092TIP3   OH254766   2.606   6.258   0.883 -0.4982  0.1311  0.1940
11092TIP3    H154767   2.643   6.274   0.797  0.8704 -0.9727  0.5474
11092TIP3    H254768   2.512   6.251   0.868 -0.3589  0.7354 -1.0720
11093TIP3   OH254769   5.542   4.825  10.873 -0.0078 -0.0808  0.3153
11093TIP3    H154770   5.457   4.795  10.841 -0.2861 -2.0436  2.6122
11093TIP3    H254771   5.605   4.769  10.828 -0.0923 -0.1751  0.3138
11094TIP3   OH254772   0.170   6.459  11.772 -0.5490  0.3345  0.0704
11094TIP3    H154773   0.174   6.518  11.848 -1.2549  0.5565 -0.0541
11094TIP3    H254774   0.092   6.406  11.788 -0.9331  0.6560 -0.6894
11095TIP3   OH254775   1.956   2.284   1.288  0.0735 -0.3241  0.1122
11095TIP3    H154776   1.965   2.360   1.345  0.4760 -1.3442  1.4568
11095TIP3    H254777   2.034   2.286   1.232 -0.4543  0.8229 -0.6216
11096TIP3   OH254778   5.005   3.125   2.483  0.0581 -0.7998 -0.3243
11096TIP3    H154779   4.958   3.064   2.540  1.2391 -1.8386 -0.4055
11096TIP3    H254780   4.937   3.183   2.449 -0.6873 -0.1264  2.1077
11097TIP3   OH254781   5.670   4.421  11.143 -0.5276  0.1066 -0.0900
11097TIP3    H154782   5.743   4.378  11.188 -1.7318  0.0885  1.9741
11097TIP3    H254783   5.603   4.354  11.137 -0.6917  0.3543 -1.2346
11098TIP3   OH254784   5.324   3.085  15.112 -0.3880  0.4764 -0.5679
11098TIP3    H154785   5.399   3.041  15.151  0.3697  0.0919 -2.3611
11098TIP3    H254786   5.300   3.152  15.176  1.0832  0.2094  0.3231
11099TIP3   OH254787   5.126   4.536   4.366  0.5299  0.5898 -0.6797
11099TIP3    H154788   5.195   4.601   4.352 -0.3024  1.4789 -0.7445
11099TIP3    H254789   5.140   4.472   4.296  1.6782  0.3944 -0.2981
11100TIP3   OH254790   0.182   4.072   3.581  0.2584 -0.0452 -0.2698
11100TIP3    H154791   0.152   4.149   3.629  0.8274 -0.2040  0.3557
11100TIP3    H254792   0.141   3.998   3.624  2.7962 -0.4247  1.7307
11101TIP3   OH254793   1.057   0.692   4.113  0.4941 -0.1067 -0.3782
11101TIP3    H154794   1.084   0.745   4.188 -1.8484  0.5616  0.0616
11101TIP3    H254795   1.010   0.753   4.056 -1.8276 -1.5037 -0.1056
11102TIP3   OH254796   1.076   6.230  11.702  0.1979 -0.6440 -0.1557
11102TIP3    H154797   1.066   6.214  11.796 -0.4260 -0.3977 -0.1754
11102TIP3    H254798   1.107   6.320  11.696  0.2801 -0.6745 -0.1815
11103TIP3   OH254799   3.020   1.321  14.140  0.1933  0.0300  0.0812
11103TIP3    H154800   3.046   1.315  14.048 -1.5929 -1.4368 -0.3909
11103TIP3    H254801   2.963   1.245  14.153 -1.9384  1.7820  1.5895
11104TIP3   OH254802   2.233   3.540   5.552 -0.0629 -0.4973 -0.0713
11104TIP3    H154803   2.214   3.634   5.555  0.6309 -0.3357 -0.5935
11104TIP3    H254804   2.159   3.503   5.503  0.7492  0.0855 -1.8344
11105TIP3   OH254805   0.956   5.924  11.283 -0.1466 -0.2444  0.4365
11105TIP3    H154806   0.968   5.994  11.219  2.6222 -3.3156 -2.8610
11105TIP3    H254807   1.030   5.934  11.343  0.5640 -0.5594 -0.3579
11106TIP3   OH254808   6.726   2.792   0.852 -0.0312 -0.5946 -0.1777
11106TIP3    H154809   6.789   2.726   0.821  0.4657 -0.3368  0.2623
11106TIP3    H254810   6.708   2.846   0.775  0.6291 -0.4039 -0.2059
11107TIP3   OH254811   6.335   2.761   5.268 -0.6279 -0.1769 -0.0308
11107TIP3    H154812   6.309   2.688   5.210 -0.8511  0.5074 -0.8102
11107TIP3    H254813   6.255   2.813   5.277 -0.1822  0.5716 -0.3722
11108TIP3   OH254814   2.815   0.576  14.650  0.5104 -0.1827 -0.4511
11108TIP3    H154815   2.741   0.587  14.590 -0.2854  0.7767  0.6639
11108TIP3    H254816   2.811   0.485  14.677  1.0519 -0.7192 -2.0382
11109TIP3   OH254817   2.080   4.866   3.213  0.2310  0.0844  0.8604
11109TIP3    H154818   2.138   4.795   3.239 -0.4866 -0.0613  2.1410
11109TIP3    H254819   2.043   4.899   3.295 -2.4275 -0.6468  0.0532
11110TIP3   OH254820   4.575   5.855  10.576  0.1924  0.5704  0.4555
11110TIP3    H154821   4.532   5.931  10.538 -1.1624 -0.5487 -0.3796
11110TIP3    H254822   4.514   5.823  10.642  0.5724 -0.0027  0.5365
11111TIP3   OH254823   3.516   1.213  13.541  0.1857 -0.0496 -0.1995
11111TIP3    H154824   3.425   1.227  13.517 -0.1356 -0.7539  0.5760
11111TIP3    H254825   3.561   1.292  13.510 -0.4295 -0.3062 -1.8421
11112TIP3   OH254826   5.586   1.343  13.900 -0.4577  0.1066  0.0106
11112TIP3    H154827   5.504   1.294  13.906  0.0457 -0.9849 -1.5584
11112TIP3    H254828   5.649   1.281  13.865  0.7776  1.2474  0.1207
11113TIP3   OH254829   1.564   0.912   1.528 -0.3388 -0.2406 -0.4151
11113TIP3    H154830   1.584   0.979   1.462 -0.0404 -0.1971 -0.2856
11113TIP3    H254831   1.607   0.833   1.496  0.2736 -0.0844 -0.0087
11114TIP3   OH254832   2.549   0.877   2.109  0.5983 -0.8027 -0.1489
11114TIP3    H154833   2.491   0.953   2.110 -0.1003 -1.2843 -1.3157
11114TIP3    H254834   2.544   0.844   2.019  0.5520 -2.4647  0.4224
11115TIP3   OH254835   2.399   1.745   0.194  0.1232 -0.1919  0.0496
11115TIP3    H154836   2.486   1.705   0.187 -0.3913 -1.5102  0.8955
11115TIP3    H254837   2.345   1.697   0.131 -0.5646 -1.0684  1.2709
11116TIP3   OH254838   2.651   4.687  14.665 -0.7002 -0.0947 -0.1510
11116TIP3    H154839   2.638   4.643  14.580  0.7371  0.0022 -0.4432
11116TIP3    H254840   2.736   4.656  14.695 -0.2217  1.5256  0.2403
11117TIP3   OH254841   2.990   1.165   3.864  0.3254  0.0160 -0.0962
11117TIP3    H154842   2.899   1.150   3.890  0.0973  1.0248 -0.2565
11117TIP3    H254843   2.985   1.230   3.794  1.2339  1.3096  0.9667
11118TIP3   OH254844   4.848   4.368   0.385 -0.4205  0.4747 -0.5113
11118TIP3    H154845   4.869   4.392   0.475  0.2024  0.8865 -0.7602
11118TIP3    H254846   4.777   4.427   0.360  0.1496  1.1120 -0.6492
11119TIP3   OH254847   4.493   6.496   3.720  0.1847  0.2621  0.1214
11119TIP3    H154848   4.571   6.453   3.755 -0.0156 -0.3447 -0.1680
11119TIP3    H254849   4.424   6.430   3.726  0.5521 -0.5917 -3.1481
11120TIP3   OH254850   0.950   0.131   6.475 -0.3560  0.7025 -0.2694
11120TIP3    H154851   1.021   0.128   6.540  0.2414  0.0701 -0.9392
11120TIP3    H254852   0.906   0.214   6.492  0.5537  1.1120  0.1475
11121TIP3   OH254853   4.100   3.148  11.517  0.1339 -0.3360 -0.0717
11121TIP3    H154854   4.089   3.059  11.549 -1.0763 -0.5329 -0.9721
11121TIP3    H254855   4.172   3.184  11.569 -0.5186 -1.2485  1.5149
11122TIP3   OH254856   5.699   6.336   2.785  0.0399 -0.1644 -0.3940
11122TIP3    H154857   5.683   6.426   2.815  1.6732  0.0264 -0.0105
11122TIP3    H254858   5.623   6.287   2.816 -0.0178  0.7331  1.0011
11123TIP3   OH254859   4.624   0.462  17.140  0.0676  0.1602  0.2491
11123TIP3    H154860   4.636   0.470  17.046 -0.8045  0.5756  0.1722
11123TIP3    H254861   4.530   0.448  17.152  0.0898  0.6423  1.0897
11124TIP3   OH254862   4.670   1.280  16.784  0.0064  0.7066  0.1499
11124TIP3    H154863   4.747   1.324  16.748  0.9629  0.2165  1.4696
11124TIP3    H254864   4.610   1.270  16.710  0.4550  2.6727 -0.5489
11125TIP3   OH254865   5.119   3.743   3.503  0.5632  0.1431 -1.1910
11125TIP3    H154866   5.147   3.834   3.499 -0.4992  0.4992 -0.7949
11125TIP3    H254867   5.024   3.746   3.497  0.2186 -0.6482  2.0312
11126TIP3   OH254868   4.234   4.292  16.690 -0.1171  0.0974 -0.1341
11126TIP3    H154869   4.153   4.257  16.651 -0.8250 -0.4710  1.7401
11126TIP3    H254870   4.301   4.228  16.666 -0.3829  0.1352 -1.0144
11127TIP3   OH254871   4.327   0.322   2.378  0.6020 -0.4257  0.1426
11127TIP3    H154872   4.324   0.235   2.340  2.2897 -0.3588 -0.2163
11127TIP3    H254873   4.331   0.381   2.303 -2.8427  0.1988  0.2756
11128TIP3   OH254874   3.850   4.970  13.628 -0.8288 -0.1177 -0.5917
11128TIP3    H154875   3.902   4.898  13.663  1.2964  0.6271 -1.9851
11128TIP3    H254876   3.835   5.028  13.702 -1.9903 -1.6307  0.4016
11129TIP3   OH254877   2.760   4.113   5.452 -0.1363 -0.6784 -0.0894
11129TIP3    H154878   2.786   4.149   5.366 -2.3731 -1.2076 -1.0579
11129TIP3    H254879   2.836   4.129   5.508  0.4486  2.0182 -1.4788
11130TIP3   OH254880   0.465   1.321  12.494 -0.1082  0.2801  0.5403
11130TIP3    H154881   0.535   1.268  12.532  0.5907  0.6107 -0.2371
11130TIP3    H254882   0.397   1.259  12.470  1.1093 -0.4352 -1.2840
11131TIP3   OH254883   2.303   0.900   6.135  0.6132  0.7469  1.2108
11131TIP3    H154884   2.316   0.840   6.208 -2.1653  0.4628  1.5730
11131TIP3    H254885   2.221   0.945   6.155 -2.0754 -1.5606 -3.0550
11132TIP3   OH254886   0.879   0.351   5.305 -0.1363 -0.0382  0.2292
11132TIP3    H154887   0.896   0.443   5.328  0.4222 -0.5893  2.2404
11132TIP3    H254888   0.929   0.337   5.225 -2.5909  2.1606 -1.9032
11133TIP3   OH254889   1.433   5.216   0.876  0.6136  0.0963 -0.2662
11133TIP3    H154890   1.407   5.308   0.887  1.6574  0.3593  0.0870
11133TIP3    H254891   1.498   5.217   0.807  0.0940 -0.4934 -0.7792
11134TIP3   OH254892   2.729   4.340  16.587 -0.1497  0.4975 -0.3859
11134TIP3    H154893   2.676   4.265  16.563  0.1373 -0.4205  1.6119
11134TIP3    H254894   2.677   4.416  16.563 -0.3427 -0.2949 -2.6729
11135TIP3   OH254895   0.188   3.925  16.699 -0.2644  0.2403 -0.2011
11135TIP3    H154896   0.200   4.019  16.714  0.1287  0.2841 -0.7521
11135TIP3    H254897   0.264   3.884  16.741 -0.7393  0.1150  0.5525
11136TIP3   OH254898   0.759   0.132   3.330  0.1648  0.2077 -0.1109
11136TIP3    H154899   0.815   0.125   3.253  1.6519 -0.3795  0.9669
11136TIP3    H254900   0.811   0.182   3.394 -0.9001  0.4224  0.6222
11137TIP3   OH254901   1.518   2.673   5.853  0.6828  0.5648  0.0067
11137TIP3    H154902   1.466   2.599   5.885  1.6789  0.0561  0.4882
11137TIP3    H254903   1.453   2.733   5.816 -0.2069 -0.2394  0.2101
11138TIP3   OH254904   3.255   0.921  13.654 -0.0421  0.0571 -0.1233
11138TIP3    H154905   3.175   0.869  13.642  0.8491 -1.1047 -1.3673
11138TIP3    H254906   3.309   0.899  13.578  1.4174  0.9197  0.6287
11139TIP3   OH254907   1.809   5.701   0.243  0.2537  0.4764  0.2402
11139TIP3    H154908   1.870   5.729   0.311  1.9006  1.6408 -1.5922
11139TIP3    H254909   1.724   5.703   0.285  1.1858  1.2167  2.2434
11140TIP3   OH254910   5.122   2.477  17.134  0.2411  0.6447 -0.2933
11140TIP3    H154911   5.207   2.469  17.179 -0.8938 -3.9255  1.5530
11140TIP3    H254912   5.123   2.408  17.068 -1.8815  0.8514 -0.5980
11141TIP3   OH254913   3.227   2.058   4.925  0.1932 -0.2678  0.5011
11141TIP3    H154914   3.181   2.139   4.906  1.2541  0.1582 -0.4001
11141TIP3    H254915   3.313   2.086   4.957  0.9515 -0.9948 -0.7867
11142TIP3   OH254916   4.594   0.069  14.023  0.2854 -0.3826  0.0864
11142TIP3    H154917   4.678   0.114  14.029  0.0650 -0.1070  1.6426
11142TIP3    H254918   4.537   0.117  14.084 -0.4053 -1.7975  0.5874
11143TIP3   OH254919   4.407   4.626  10.877 -0.2629  0.3064  0.3172
11143TIP3    H154920   4.314   4.603  10.871 -0.7190  1.8372  1.1883
11143TIP3    H254921   4.412   4.689  10.948  1.0772  2.1383 -1.2940
11144TIP3   OH254922   6.662   0.876   5.961  0.0804  0.1424  0.2941
11144TIP3    H154923   6.684   0.853   5.870  0.4221  0.4084  0.3100
11144TIP3    H254924   6.727   0.941   5.986 -0.2020  0.2965  0.6314
11145TIP3   OH254925   1.540   6.703  12.128  0.2379  0.1714 -0.1083
11145TIP3    H154926   1.551   6.777  12.188 -0.7384  0.3960 -0.1942
11145TIP3    H254927   1.507   6.743  12.047  1.7836 -0.0862 -0.9139
11146TIP3   OH254928   4.158   3.807   5.603  0.1453 -0.6518 -0.3127
11146TIP3    H154929   4.151   3.902   5.592 -2.4024 -0.6618  0.5550
11146TIP3    H254930   4.114   3.770   5.527 -2.0787 -1.0128  1.0688
11147TIP3   OH254931   2.140   6.807   0.923  0.0772 -0.2001  0.3434
11147TIP3    H154932   2.074   6.749   0.884  1.6915 -1.3517 -0.8050
11147TIP3    H254933   2.144   6.881   0.863 -0.0966 -0.1706  0.3666
11148TIP3   OH254934   6.530   2.864   0.622 -0.1810 -0.0532 -0.4912
11148TIP3    H154935   6.474   2.894   0.551 -1.6308  1.2149  1.0986
11148TIP3    H254936   6.474   2.807   0.675  0.2669  0.5246  0.6499
11149TIP3   OH254937   0.496   0.735  14.173 -0.2148 -0.0747 -0.0325
11149TIP3    H154938   0.488   0.682  14.252  1.3106 -1.4191 -0.7340
11149TIP3    H254939   0.465   0.822  14.200  0.1811 -0.5112  2.0242
11150TIP3   OH254940   3.358   4.998  10.775 -0.1546  0.4144 -0.2277
11150TIP3    H154941   3.373   4.907  10.749 -0.9266  0.2226 -0.0328
11150TIP3    H254942   3.432   5.020  10.831 -0.1987 -0.2482  0.0998
11151TIP3   OH254943   4.673   0.530   5.572 -0.0031 -0.3236 -0.1152
11151TIP3    H154944   4.580   0.529   5.552  0.1658 -0.2772 -0.9386
11151TIP3    H254945   4.714   0.480   5.501  0.7076  0.6483 -0.4176
11152TIP3   OH254946   2.485   1.065  16.402 -0.5078 -0.0248  0.6176
11152TIP3    H154947   2.475   1.055  16.308  1.5528  0.7226  0.2565
11152TIP3    H254948   2.474   1.159  16.417  0.6635  0.0843  0.8750
11153TIP3   OH254949   0.273   1.764   0.259 -0.2049 -0.3725  0.2796
11153TIP3    H154950   0.238   1.751   0.170 -1.8352  1.3407  0.6204
11153TIP3    H254951   0.296   1.675   0.288 -0.3045 -1.0551 -1.5745
11154TIP3   OH254952   2.803   3.173  13.787 -0.2887  0.3853 -0.3136
11154TIP3    H154953   2.897   3.190  13.779  0.4063 -2.7117  0.1114
11154TIP3    H254954   2.796   3.107  13.856 -2.6191 -0.5844 -1.3653
11155TIP3   OH254955   3.898   1.626   3.025  0.2466 -0.6090  0.2017
11155TIP3    H154956   3.935   1.668   3.103  0.2240  0.3182 -0.2798
11155TIP3    H254957   3.973   1.612   2.968 -0.0377  0.8252 -0.5683
11156TIP3   OH254958   2.261   6.190   5.057  0.0309 -0.3866 -0.6391
11156TIP3    H154959   2.214   6.273   5.052  2.0109  0.9870  1.8496
11156TIP3    H254960   2.222   6.145   5.132  0.1270 -0.9807 -0.9383
11157TIP3   OH254961   4.323   2.334  16.740  0.7214  0.6126  0.5811
11157TIP3    H154962   4.375   2.389  16.680  0.1682  0.9388  0.3968
11157TIP3    H254963   4.323   2.248  16.698  1.2686  0.5594  0.6768
11158TIP3   OH254964   6.345   6.646  16.741  0.1161 -0.3145  0.1312
11158TIP3    H154965   6.291   6.711  16.697 -1.7516 -1.2087  0.9750
11158TIP3    H254966   6.286   6.572  16.756  0.5402 -0.0581  4.1395
11159TIP3   OH254967   5.228   1.185   4.478  0.2508 -0.2679  0.1041
11159TIP3    H154968   5.229   1.108   4.535 -0.6153 -0.0243  0.4571
11159TIP3    H254969   5.273   1.156   4.398  0.4960 -0.9387  0.4794
11160TIP3   OH254970   6.257   2.973  11.691 -0.4297  0.2933 -0.1042
11160TIP3    H154971   6.279   3.057  11.733  0.5446 -0.0948  0.1867
11160TIP3    H254972   6.180   2.942  11.739 -1.0249  1.1886 -0.4582
11161TIP3   OH254973   6.407   0.786  15.417  0.2824  0.0589  0.3490
11161TIP3    H154974   6.431   0.878  15.431  0.5312  0.2348 -1.1336
11161TIP3    H254975   6.327   0.775  15.470 -0.0572  1.2782  0.1408
11162TIP3   OH254976   1.413   5.622  11.012 -0.9810 -0.0623  0.2872
11162TIP3    H154977   1.416   5.707  10.969 -0.7638 -0.2168 -0.0077
11162TIP3    H254978   1.355   5.569  10.958 -1.5662  0.0650  0.7846
11163TIP3   OH254979   4.193   0.840   3.130  0.0447 -0.8168  0.4821
11163TIP3    H154980   4.125   0.776   3.152  0.3975 -0.8300  1.5595
11163TIP3    H254981   4.145   0.917   3.100 -0.4591 -0.7629  1.3982
11164TIP3   OH254982   0.767   1.709  13.677  0.4105  0.3037 -0.4994
11164TIP3    H154983   0.748   1.657  13.755 -2.1027 -0.5521 -1.5727
11164TIP3    H254984   0.863   1.713  13.674  0.6148 -0.9665  1.7418
11165TIP3   OH254985   3.720   2.181   5.193  0.0040  0.3399 -0.2765
11165TIP3    H154986   3.803   2.228   5.180 -0.2742  1.2992  1.1848
11165TIP3    H254987   3.653   2.249   5.188 -0.5006 -0.0630  0.6750
11166TIP3   OH254988   5.479   3.498   1.664  0.0231  0.2937  0.3868
11166TIP3    H154989   5.429   3.514   1.744 -0.0092 -1.9835  0.8879
11166TIP3    H254990   5.418   3.455   1.605 -0.1935  2.6551 -1.2660
11167TIP3   OH254991   6.491   5.919   5.030  0.2803  0.2635 -0.0957
11167TIP3    H154992   6.408   5.929   5.076  0.6252  0.7994  0.4219
11167TIP3    H254993   6.472   5.942   4.940 -0.6323 -1.7254 -0.4602
11168TIP3   OH254994   2.780   4.198  12.030 -0.3175  0.1659 -0.3095
11168TIP3    H154995   2.731   4.168  12.107  0.1358 -1.7579 -0.7198
11168TIP3    H254996   2.713   4.217  11.964 -0.5805 -1.5412 -0.5589
11169TIP3   OH254997   0.467   1.654   3.099 -0.3136  0.2716 -0.6324
11169TIP3    H154998   0.513   1.649   3.183  2.7211  1.7955 -2.0626
11169TIP3    H254999   0.374   1.651   3.123  0.3978 -2.1376  2.5184
11170TIP3   OH255000   1.484   5.526   4.688  0.4287  0.0655  0.3566
11170TIP3    H155001   1.427   5.521   4.611  1.1915  0.1874 -0.2285
11170TIP3    H255002   1.535   5.606   4.675  0.5100  0.1282  1.0343
11171TIP3   OH255003   5.012   5.152   6.877 -0.1163  0.0602  0.4153
11171TIP3    H155004   5.037   5.244   6.888  0.0180  0.0628  0.0920
11171TIP3    H255005   5.073   5.118   6.812  1.2683 -0.8322  2.0821
11172TIP3   OH255006   3.134   5.216  15.151  0.1949  0.7026  0.5602
11172TIP3    H155007   3.090   5.300  15.135  0.8419  0.8997 -0.2080
11172TIP3    H255008   3.227   5.234  15.136  0.1325 -0.7384 -2.2130
11173TIP3   OH255009   0.849   2.356  15.229 -0.2038 -0.3847  0.4202
11173TIP3    H155010   0.859   2.430  15.288 -0.5236  0.7192 -0.8513
11173TIP3    H255011   0.830   2.282  15.285  1.2799  0.2430  1.8366
11174TIP3   OH255012   3.575   4.265   5.850  0.3069  0.4462  0.3844
11174TIP3    H155013   3.661   4.228   5.833  1.0101  2.3337 -0.4335
11174TIP3    H255014   3.590   4.359   5.860 -1.7124  0.8991 -0.2641
11175TIP3   OH255015   2.651   4.982   2.695 -0.8687  0.0549 -1.0342
11175TIP3    H155016   2.703   5.051   2.736 -1.2255 -0.6135  0.6071
11175TIP3    H255017   2.571   5.025   2.667 -1.3639  0.2283  0.5551
11176TIP3   OH255018   3.332   0.874  13.120  0.4969 -0.1513  0.2420
11176TIP3    H155019   3.303   0.888  13.030 -0.4655  0.1962  0.5993
11176TIP3    H255020   3.414   0.824  13.111  2.0178  2.3507 -0.9361
11177TIP3   OH255021   1.716   6.144  13.664 -0.4177  0.5654 -0.1066
11177TIP3    H155022   1.625   6.114  13.669  0.3360 -2.5111 -1.9600
11177TIP3    H255023   1.762   6.090  13.728  0.4605  0.2514 -0.9806
11178TIP3   OH255024   5.436   2.083   5.277 -0.0148 -0.2933 -0.2117
11178TIP3    H155025   5.421   2.150   5.343  1.6506 -0.6266  0.5434
11178TIP3    H255026   5.439   2.001   5.327  0.4976 -0.6311 -0.7856
11179TIP3   OH255027   4.977   1.362   1.950  0.2781 -0.2498  0.2228
11179TIP3    H155028   5.038   1.402   2.013  1.5349  0.7543 -1.5418
11179TIP3    H255029   4.990   1.268   1.961  0.1237 -0.1315  1.7525
11180TIP3   OH255030   0.803   2.631  16.031  0.5105  0.0704  0.4801
11180TIP3    H155031   0.792   2.591  16.118  2.1183  0.5835  0.9630
11180TIP3    H255032   0.777   2.722  16.043  2.2934  0.5621  0.8908
11181TIP3   OH255033   0.062   1.034  15.763 -0.3007 -0.4391 -0.2126
11181TIP3    H155034   0.139   1.038  15.821 -0.5293  2.5731  0.0555
11181TIP3    H255035   0.086   0.970  15.696  1.9353 -0.5208  0.5686
11182TIP3   OH255036   2.979   6.576  11.081 -0.1883  0.2697 -0.2532
11182TIP3    H155037   2.991   6.579  10.986 -0.3208 -0.7501 -0.3138
11182TIP3    H255038   2.884   6.578  11.094 -0.1599  1.7781 -0.0628
11183TIP3   OH255039   5.418   1.441  16.528  0.5358  0.7673  0.0901
11183TIP3    H155040   5.459   1.522  16.559 -1.4035  1.6858  0.3782
11183TIP3    H255041   5.492   1.383  16.509  2.1969  3.4788 -2.6589
11184TIP3   OH255042   1.085   1.601  12.166 -0.4848  0.5410  0.2710
11184TIP3    H155043   1.154   1.538  12.145 -0.0854  0.4999  1.6321
11184TIP3    H255044   1.019   1.588  12.098 -0.0471 -0.7799  0.0786
11185TIP3   OH255045   4.309   1.117  12.203  0.2339 -0.4888 -0.0655
11185TIP3    H155046   4.302   1.027  12.171  0.3582 -0.6268  0.2854
11185TIP3    H255047   4.220   1.140  12.230  0.1763 -0.4599 -0.2811
11186TIP3   OH255048   3.555   1.467   0.952 -0.4935  0.0023 -0.3027
11186TIP3    H155049   3.628   1.415   0.919  0.3619  0.9035  0.0917
11186TIP3    H255050   3.565   1.552   0.908 -0.4872  0.5800  0.7705
11187TIP3   OH255051   6.400   6.563  11.033 -0.1745 -0.5128  0.4383
11187TIP3    H155052   6.406   6.476  10.993  0.2026  0.2206 -1.1833
11187TIP3    H255053   6.477   6.569  11.088 -0.2075 -1.2118  0.5723
11188TIP3   OH255054   3.385   4.707  10.808 -0.5032 -0.1962 -0.2610
11188TIP3    H155055   3.302   4.726  10.852  0.8307 -2.4360  3.7199
11188TIP3    H255056   3.377   4.616  10.781  0.0821  0.0814 -1.4182
11189TIP3   OH255057   1.760   5.316   2.770 -0.2279 -0.6663 -0.2656
11189TIP3    H155058   1.770   5.230   2.730 -2.5599 -1.0738 -0.1258
11189TIP3    H255059   1.751   5.297   2.864 -0.8170 -0.2822 -0.2434
11190TIP3   OH255060   3.016   6.393  15.197  0.1982 -0.3724 -0.4147
11190TIP3    H155061   2.943   6.449  15.226 -0.5112 -0.1561 -2.4403
11190TIP3    H255062   3.007   6.390  15.102  1.3208 -2.4718 -0.5090
11191TIP3   OH255063   1.641   5.845   1.627  0.4775  0.3020 -0.1985
11191TIP3    H155064   1.716   5.833   1.685  0.4190 -1.8125 -0.4906
11191TIP3    H255065   1.589   5.914   1.668  1.0552 -0.2990  1.6106
11192TIP3   OH255066   5.644   4.840   1.092 -0.1821  0.4206 -0.2324
11192TIP3    H155067   5.647   4.932   1.066  0.4604  0.0980 -1.3501
11192TIP3    H255068   5.554   4.812   1.073 -0.9095  1.2370  1.7199
11193TIP3   OH255069   1.262   6.587   1.128 -0.0515 -0.0028  0.6252
11193TIP3    H155070   1.184   6.568   1.180 -1.0517  1.2395 -0.3542
11193TIP3    H255071   1.255   6.680   1.107  0.9144 -0.2158 -0.7727
11194TIP3   OH255072   6.136   3.956   4.060  0.7363 -0.5475 -0.0150
11194TIP3    H155073   6.175   3.948   3.973  1.1385  0.8419  0.0082
11194TIP3    H255074   6.209   3.979   4.117  0.0658  1.2960  0.1740
11195TIP3   OH255075   3.874   1.159  15.447  0.1076  0.3828  0.1315
11195TIP3    H155076   3.856   1.222  15.517 -1.8249 -1.8939  1.8772
11195TIP3    H255077   3.812   1.182  15.378  0.1349  0.9951  0.3005
11196TIP3   OH255078   5.614   4.105  16.215 -0.4468 -0.5721  0.1837
11196TIP3    H155079   5.685   4.063  16.264  0.5354  0.4040 -0.3590
11196TIP3    H255080   5.590   4.041  16.148 -1.0810 -1.4915  1.2642
11197TIP3   OH255081   1.933   1.717   5.008  0.1028 -0.4209 -0.1366
11197TIP3    H155082   2.010   1.663   5.027  1.4584  1.5319  0.2730
11197TIP3    H255083   1.902   1.687   4.923  0.8376 -1.7547  0.0431
11198TIP3   OH255084   1.391   2.903  11.272  0.0260 -0.1933 -0.0471
11198TIP3    H155085   1.301   2.882  11.245 -0.3138  1.7184 -0.5549
11198TIP3    H255086   1.443   2.892  11.192  0.1480 -0.6991  0.0976
11199TIP3   OH255087   2.412   4.624  12.339 -0.1083 -0.6152  0.7857
11199TIP3    H155088   2.421   4.540  12.292 -0.3768 -0.4400  0.4133
11199TIP3    H255089   2.318   4.634  12.352 -0.6061  1.6034 -2.9174
11200TIP3   OH255090   1.452   0.533  17.118  0.2457  0.1460  0.4679
11200TIP3    H155091   1.493   0.447  17.123 -2.0747 -1.0032  3.1760
11200TIP3    H255092   1.487   0.580  17.194  1.6348  1.7521 -1.0907
11201TIP3   OH255093   6.336   6.666   1.669 -0.4632  0.0920  0.1074
11201TIP3    H155094   6.354   6.573   1.683 -1.1313 -0.3345 -1.5499
11201TIP3    H255095   6.248   6.668   1.631 -0.3857  1.3876 -0.0556
11202TIP3   OH255096   1.302   3.124   2.519 -0.6336  0.1997 -0.7777
11202TIP3    H155097   1.302   3.050   2.459  0.6032 -0.6282  0.1797
11202TIP3    H255098   1.243   3.098   2.590  0.7306 -0.4469  0.1713
11203TIP3   OH255099   4.156   2.614  12.854 -0.0417  0.3775 -0.1818
11203TIP3    H155100   4.175   2.525  12.823 -1.7837 -0.3714  0.7813
11203TIP3    H255101   4.232   2.636  12.908 -0.2210 -1.1205  0.7531
11204TIP3   OH255102   0.605   6.407  14.844 -0.1704 -0.1243  0.1445
11204TIP3    H155103   0.587   6.316  14.869  1.3967 -0.2531  0.9386
11204TIP3    H255104   0.700   6.409  14.828 -0.7099  0.4842 -3.7768
11205TIP3   OH255105   5.131   0.462  15.778  0.0726  0.1212 -0.1574
11205TIP3    H155106   5.042   0.467  15.812  0.5815  2.0908  1.0599
11205TIP3    H255107   5.180   0.417  15.846  0.4633  1.1762  0.2684
11206TIP3   OH255108   6.580   6.478  13.281 -0.3250 -0.0807  0.1343
11206TIP3    H155109   6.544   6.562  13.311 -0.4538 -0.0156 -0.1995
11206TIP3    H255110   6.518   6.447  13.215  0.1195 -0.0706 -0.2941
11207TIP3   OH255111   3.377   3.341   5.984 -0.3933 -0.5285 -1.1113
11207TIP3    H155112   3.326   3.422   5.990  0.7317  0.1149  0.5884
11207TIP3    H255113   3.316   3.272   6.010 -0.3364  0.2803  1.4108
11208TIP3   OH255114   3.767   3.751   4.543  0.5406 -0.4724  0.6240
11208TIP3    H155115   3.826   3.685   4.509 -0.7900 -1.9953  1.1505
11208TIP3    H255116   3.803   3.773   4.629  2.2947  1.2806 -0.4837
11209TIP3   OH255117   3.473   4.524   1.808  0.3190  0.0549 -0.3531
11209TIP3    H155118   3.493   4.570   1.726 -2.7407  0.6500 -0.8633
11209TIP3    H255119   3.470   4.593   1.874 -1.4618  0.2322 -0.5875
11210TIP3   OH255120   6.801   2.386   1.034  0.5356 -0.0134  0.5764
11210TIP3    H155121   6.850   2.306   1.052  0.1289 -0.8887 -1.7765
11210TIP3    H255122   6.846   2.426   0.959  0.6477  1.9354  1.6095
11211TIP3   OH255123   4.825   1.023   0.618  0.3400 -0.5711  0.2672
11211TIP3    H155124   4.789   0.968   0.549  0.0456 -0.3744  0.2632
11211TIP3    H255125   4.752   1.038   0.678  0.1874  0.5164 -0.1744
11212TIP3   OH255126   3.083   4.560   5.806 -0.1889  0.1388  0.3381
11212TIP3    H155127   3.084   4.466   5.826 -0.0377  0.2447  0.8523
11212TIP3    H255128   3.130   4.600   5.879 -0.2701  0.6189  0.1294
11213TIP3   OH255129   4.692   3.962   0.491  0.4355 -0.6087 -0.2754
11213TIP3    H155130   4.770   4.014   0.468  0.6319 -1.2620 -1.1161
11213TIP3    H255131   4.626   3.988   0.427 -0.4940  0.8840  1.1937
11214TIP3   OH255132   4.690   0.254   3.329  0.0338 -0.6938 -0.0778
11214TIP3    H155133   4.676   0.348   3.335  0.1877 -0.7236  0.9082
11214TIP3    H255134   4.616   0.215   3.375  1.0425 -0.9721  1.3821
11215TIP3   OH255135   4.904   4.725  11.719 -0.3692 -0.2059 -0.3310
11215TIP3    H155136   4.953   4.644  11.734 -0.1892 -0.4011 -1.8848
11215TIP3    H255137   4.818   4.708  11.759 -0.3714 -1.2135 -0.7337
11216TIP3   OH255138   4.183   0.738   5.924  0.3276 -0.2727  0.2249
11216TIP3    H155139   4.222   0.769   6.005  0.3095  0.1546  0.0713
11216TIP3    H255140   4.205   0.645   5.921  1.7710  0.0575 -0.1017
11217TIP3   OH255141   0.205   1.469   4.376  0.1927 -1.1052 -0.0700
11217TIP3    H155142   0.244   1.555   4.362 -0.2987 -0.8722 -0.0313
11217TIP3    H255143   0.178   1.440   4.289 -0.5920 -0.7507  0.0370
11218TIP3   OH255144   1.187   2.241   1.151 -0.1740 -0.0909 -0.2895
11218TIP3    H155145   1.226   2.156   1.135  0.3841  0.4830 -2.2445
11218TIP3    H255146   1.227   2.299   1.086 -3.3068  0.8198 -1.6250
11219TIP3   OH255147   3.947   5.844   3.075  0.3358 -0.0348  0.1083
11219TIP3    H155148   3.920   5.839   3.167 -1.5450 -0.3669 -0.4392
11219TIP3    H255149   4.038   5.812   3.075  1.0497  1.7274  2.1077
11220TIP3   OH255150   0.320   6.170  12.864 -0.5140 -0.3162  0.3845
11220TIP3    H155151   0.368   6.111  12.922  1.1877  0.5953 -0.0261
11220TIP3    H255152   0.237   6.186  12.909 -0.4294 -1.9031  1.1529
11221TIP3   OH255153   0.600   0.547  16.069 -0.2733  0.6935  0.4843
11221TIP3    H155154   0.624   0.606  15.997 -1.6137  0.4338 -0.2168
11221TIP3    H255155   0.585   0.463  16.026 -0.5750  0.4038  1.1425
11222TIP3   OH255156   5.603   5.097   3.978  0.1964  0.3095  0.3517
11222TIP3    H155157   5.534   5.130   4.036  0.0562  0.1388  0.2826
11222TIP3    H255158   5.563   5.023   3.932  0.7007 -0.3411  0.9431
11223TIP3   OH255159   5.159   1.724  10.780 -0.3283 -0.2527 -0.2741
11223TIP3    H155160   5.064   1.725  10.766 -0.1499 -1.1652 -1.8381
11223TIP3    H255161   5.196   1.713  10.692  1.2728  0.9418  0.2055
11224TIP3   OH255162   3.233   4.882   5.893  1.1018  0.0799  0.2800
11224TIP3    H155163   3.266   4.859   5.980 -0.4557 -0.2251  0.8369
11224TIP3    H255164   3.140   4.858   5.896  1.2733 -1.1328 -1.8995
11225TIP3   OH255165   3.264   0.969  12.064 -0.5871  0.3020 -0.3507
11225TIP3    H155166   3.264   0.886  12.017 -0.3023  0.7536 -1.1668
11225TIP3    H255167   3.257   0.944  12.156  0.3135 -0.6617 -0.5238
11226TIP3   OH255168   4.641   0.023  13.088 -0.1977 -0.4885 -0.1160
11226TIP3    H155169   4.677  -0.003  13.173  1.0784  1.4626  0.0120
11226TIP3    H255170   4.567   0.080  13.109  0.2907  0.2194 -0.2904
11227TIP3   OH255171   4.871   0.448  11.323  0.3477  0.2475 -0.4974
11227TIP3    H155172   4.934   0.432  11.252 -1.8336  0.7416 -2.6770
11227TIP3    H255173   4.924   0.446  11.403  3.1018  0.5513 -2.1822
11228TIP3   OH255174   5.419   3.614  12.152  0.3203  0.1095 -0.0171
11228TIP3    H155175   5.326   3.589  12.148  0.0039  1.3329 -0.9106
11228TIP3    H255176   5.462   3.539  12.192 -1.0247 -0.5791  0.2065
11229TIP3   OH255177   3.727   4.442  14.147 -0.3742  0.1859 -0.0572
11229TIP3    H155178   3.637   4.466  14.124 -0.2498  1.5466  0.7891
11229TIP3    H255179   3.770   4.526  14.165  0.7552 -0.5258  0.6348
11230TIP3   OH255180   1.358   3.325   1.671 -0.1482  0.0167 -0.3724
11230TIP3    H155181   1.388   3.317   1.761 -1.0675 -2.2085 -0.1980
11230TIP3    H255182   1.262   3.327   1.678 -0.2715 -1.3818 -1.3296
11231TIP3   OH255183   4.755   5.882   3.918  0.5797  0.2144 -0.3942
11231TIP3    H155184   4.710   5.807   3.958 -0.5080  0.6601 -0.7709
11231TIP3    H255185   4.766   5.857   3.826  2.6854 -0.6199  0.0220
11232TIP3   OH255186   1.546   2.577  16.243 -0.9604  0.3004 -0.3883
11232TIP3    H155187   1.563   2.645  16.308  0.7677  0.2313 -0.7144
11232TIP3    H255188   1.527   2.625  16.162 -1.8234  0.3737 -0.1597
11233TIP3   OH255189   3.560   1.799  15.413  0.2446 -0.1223  0.7034
11233TIP3    H155190   3.596   1.879  15.452 -0.2575 -0.1809  1.3112
11233TIP3    H255191   3.491   1.772  15.474 -0.6489 -0.1605 -0.2916
11234TIP3   OH255192   6.514   1.408  16.252  0.0335  0.0810 -0.4213
11234TIP3    H155193   6.548   1.493  16.224 -0.1034  0.1847 -0.2753
11234TIP3    H255194   6.559   1.345  16.196  1.0499  0.1531  0.2929
11235TIP3   OH255195   4.840   3.626  16.824 -0.3701  0.7354  0.8407
11235TIP3    H155196   4.910   3.690  16.831  0.5501 -0.1806  0.3000
11235TIP3    H255197   4.762   3.678  16.803  0.7865  1.5549 -2.0297
11236TIP3   OH255198   6.319   4.941  15.603 -0.1566 -0.8750  0.4022
11236TIP3    H155199   6.392   4.936  15.541 -0.0373  0.0905  0.4613
11236TIP3    H255200   6.358   4.919  15.687  0.0721 -0.3621  0.4328
11237TIP3   OH255201   0.848   1.289   2.439 -0.7890 -0.5771  0.0355
11237TIP3    H155202   0.807   1.271   2.524 -0.2614 -1.6961  0.0794
11237TIP3    H255203   0.905   1.364   2.455 -1.1941 -0.3650  0.5052
11238TIP3   OH255204   3.329   1.520   1.114 -0.4736 -0.2976 -0.0790
11238TIP3    H155205   3.263   1.545   1.050 -1.0926 -0.5972  0.4338
11238TIP3    H255206   3.408   1.503   1.061 -0.4547  1.2095 -0.5743
11239TIP3   OH255207   5.793   0.714   2.501 -0.0618  0.6839 -0.2056
11239TIP3    H155208   5.810   0.791   2.554 -1.7760  0.7989  0.2090
11239TIP3    H255209   5.881   0.681   2.479  0.7271  0.8630  2.3366
11240TIP3   OH255210   5.627   0.244  12.980  0.4397  0.3180  0.0929
11240TIP3    H155211   5.710   0.283  13.008  0.9036 -0.0237 -0.7491
11240TIP3    H255212   5.569   0.318  12.966  0.8137  0.6074  0.0527
11241TIP3   OH255213   4.284   2.260  14.798 -0.0195 -0.5605  0.4766
11241TIP3    H155214   4.256   2.202  14.870  0.7037  0.1830  1.3916
11241TIP3    H255215   4.359   2.214  14.759  1.2371  0.2046  1.8888
11242TIP3   OH255216   2.833   0.811  14.103 -0.6153  0.4072 -0.1508
11242TIP3    H155217   2.919   0.769  14.105 -0.9850 -0.4670 -1.2544
11242TIP3    H255218   2.779   0.757  14.161 -0.0745  1.8927  1.8567
11243TIP3   OH255219   1.869   4.500  17.081  0.1356  0.0665 -0.3316
11243TIP3    H155220   1.780   4.531  17.099  0.1119 -0.3561  0.3457
11243TIP3    H255221   1.897   4.548  17.004  0.1790  1.9114  0.7842
11244TIP3   OH255222   4.938   5.717   0.885  0.0523 -0.4016  0.3947
11244TIP3    H155223   5.030   5.701   0.905  0.1418  0.1887  0.4687
11244TIP3    H255224   4.934   5.809   0.859 -0.5398 -0.3725  0.5608
11245TIP3   OH255225   4.372   6.310   4.219 -0.3403 -0.1043 -0.1341
11245TIP3    H155226   4.354   6.400   4.190 -1.5097  0.1416  1.2513
11245TIP3    H255227   4.300   6.258   4.183 -1.4993  0.1109  1.7614
11246TIP3   OH255228   4.785   6.048  10.552  0.3949  0.3266 -0.1091
11246TIP3    H155229   4.734   5.967  10.547 -0.6052  1.0013 -2.0270
11246TIP3    H255230   4.735   6.110  10.499  2.7408  1.2992 -1.3103
11247TIP3   OH255231   1.015   0.720   2.074 -0.9062 -0.3564 -0.3195
11247TIP3    H155232   0.937   0.748   2.026 -0.9491 -0.9021 -0.5788
11247TIP3    H255233   0.990   0.723   2.166 -1.8036 -2.1654 -0.4649
11248TIP3   OH255234   5.850   3.009   8.676 -0.2826 -0.2619 -0.1032
11248TIP3    H155235   5.920   2.997   8.611 -0.9583 -1.5803 -0.6442
11248TIP3    H255236   5.892   2.991   8.760  0.5402  1.1927 -0.1712
11249TIP3   OH255237   4.184   0.919   5.745  0.1370 -0.5295 -0.4547
11249TIP3    H155238   4.264   0.964   5.772 -0.9834 -0.0585  2.5766
11249TIP3    H255239   4.179   0.843   5.803 -1.6509 -0.4408 -0.4330
11250TIP3   OH255240   3.417   6.514  15.276  0.3095  0.0549  0.0369
11250TIP3    H155241   3.378   6.555  15.199  1.1059 -0.7595 -0.8327
11250TIP3    H255242   3.362   6.436  15.291  0.2811  0.0986  0.1572
11251TIP3   OH255243   2.562   0.867   5.535 -0.3584  0.6400 -0.2069
11251TIP3    H155244   2.636   0.887   5.592 -0.6121 -0.1964  0.4346
11251TIP3    H255245   2.522   0.789   5.574  1.6332 -2.3149 -3.5436
11252TIP3   OH255246   2.435   4.709   3.300 -0.2302  0.2538  0.3190
11252TIP3    H155247   2.442   4.804   3.308  1.2129  0.2641 -0.6720
11252TIP3    H255248   2.369   4.684   3.365 -1.0301  1.9806  0.2148
11253TIP3   OH255249   3.772   1.201   2.383  0.1126  0.1071 -0.0212
11253TIP3    H155250   3.712   1.201   2.457 -1.9979  0.3671 -1.6161
11253TIP3    H255251   3.792   1.293   2.367  0.8507  0.0307  0.4116
11254TIP3   OH255252   0.423   3.133  12.964 -0.3928  0.0274 -0.2699
11254TIP3    H155253   0.418   3.055  13.020  1.7745 -0.3087 -0.4550
11254TIP3    H255254   0.336   3.171  12.968 -1.3730 -2.1069  0.2710
11255TIP3   OH255255   4.903   6.365   0.948 -0.1971  0.1853 -0.1393
11255TIP3    H155256   4.989   6.362   0.989 -0.7460 -0.4745  1.0297
11255TIP3    H255257   4.905   6.297   0.881 -0.2268 -0.7717  0.7981
11256TIP3   OH255258   1.687   0.075  12.227  0.2093  0.2548 -0.1252
11256TIP3    H155259   1.619   0.136  12.199 -0.5986 -0.7333 -0.3440
11256TIP3    H255260   1.735   0.054  12.147  0.2532  0.3005 -0.1112
11257TIP3   OH255261   3.562   3.520  15.778 -0.0846 -0.1681 -0.2397
11257TIP3    H155262   3.546   3.555  15.691 -0.2987  0.1277 -0.0835
11257TIP3    H255263   3.485   3.466  15.796  0.8845 -1.9109 -1.0626
11258TIP3   OH255264   1.944   5.960  14.257  0.0888  0.1732 -0.2428
11258TIP3    H155265   1.997   5.907  14.316  0.7253 -0.7688 -1.6118
11258TIP3    H255266   2.002   6.031  14.229  0.0596  0.1543 -0.3553
11259TIP3   OH255267   1.723   2.222  12.564 -0.2161 -0.0495  0.2731
11259TIP3    H155268   1.777   2.159  12.517 -0.6690 -1.0305  1.0288
11259TIP3    H255269   1.635   2.212  12.526  0.3954  2.9267 -2.3453
11260TIP3   OH255270   3.602   6.650   0.521  0.4060 -0.0978 -0.4143
11260TIP3    H155271   3.689   6.665   0.483  0.1657  0.3139 -0.8006
11260TIP3    H255272   3.558   6.734   0.515 -0.7161 -0.7529 -2.0016
11261TIP3   OH255273   6.337   5.950  17.120  0.0347  0.3293 -0.2705
11261TIP3    H155274   6.411   5.900  17.156  0.1111  0.7023  0.0992
11261TIP3    H255275   6.300   5.995  17.196  1.0529  2.2551 -0.8460
11262TIP3   OH255276   6.779   5.602   2.435  0.1243  0.4623 -0.2368
11262TIP3    H155277   6.832   5.631   2.360  1.6116  1.9370  1.2867
11262TIP3    H255278   6.779   5.677   2.494 -0.1857 -0.9601  1.6716
11263TIP3   OH255279   1.052   1.088   5.660 -0.0280 -0.0409  0.6472
11263TIP3    H155280   0.977   1.136   5.696  0.0690  1.0117 -0.4868
11263TIP3    H255281   1.094   1.150   5.601 -0.7239 -1.9601 -2.0308
11264TIP3   OH255282   3.030   1.847   0.834  0.0251  0.6599  0.6863
11264TIP3    H155283   2.958   1.823   0.775 -2.8268  3.0883  2.8372
11264TIP3    H255284   3.101   1.873   0.776 -1.5832  0.1832 -1.6471
11265TIP3   OH255285   1.239   0.639  11.263 -0.2561 -0.1822  0.4175
11265TIP3    H155286   1.279   0.563  11.305 -0.0405 -0.4197 -0.2048
11265TIP3    H255287   1.301   0.665  11.195 -0.0699  0.8971  0.9817
11266TIP3   OH255288   2.256   2.937   4.773 -0.6271  0.0468  0.3244
11266TIP3    H155289   2.203   2.893   4.706 -1.5336  1.7850 -0.1499
11266TIP3    H255290   2.346   2.918   4.747 -0.9596  0.7658 -1.4754
11267TIP3   OH255291   4.312   0.006   6.401 -0.8160  0.0968  1.1907
11267TIP3    H155292   4.358  -0.073   6.431  1.8896  1.6661  1.5088
11267TIP3    H255293   4.238   0.015   6.461  0.4284 -0.7116  2.9306
11268TIP3   OH255294   0.701   0.505  13.263 -0.0621 -0.5506 -0.1766
11268TIP3    H155295   0.697   0.524  13.357 -1.2520 -1.7815  0.0539
11268TIP3    H255296   0.610   0.490  13.237  0.1991  0.1853 -1.6399
11269TIP3   OH255297   3.890   6.657   0.437  0.1908 -0.3663 -0.1026
11269TIP3    H155298   3.921   6.569   0.459  0.9511  0.0858  0.7174
11269TIP3    H255299   3.967   6.713   0.451 -0.5239  0.5485  0.2722
11270TIP3   OH255300   3.573   1.555   2.297  0.0718 -0.1050  0.1290
11270TIP3    H155301   3.518   1.623   2.257  0.3094 -0.8813 -1.5747
11270TIP3    H255302   3.637   1.603   2.350  1.0104  1.0969 -2.0048
11271TIP3   OH255303   6.361   2.239   1.460  0.5529 -0.2809  0.0966
11271TIP3    H155304   6.357   2.144   1.469 -2.2266 -0.4184 -1.4713
11271TIP3    H255305   6.442   2.256   1.413  0.6111 -1.9722 -0.4530
11272TIP3   OH255306   2.251   0.121   2.337  0.3053  0.0963  0.6352
11272TIP3    H155307   2.236   0.216   2.338  0.2413  0.1514 -1.1502
11272TIP3    H255308   2.297   0.106   2.254 -0.2650 -1.5136  0.5821
11273TIP3   OH255309   3.267   3.239   5.675  0.3100 -0.1122 -0.1382
11273TIP3    H155310   3.247   3.333   5.672  0.4925 -0.0821 -2.0695
11273TIP3    H255311   3.341   3.229   5.614 -0.4842 -1.6612 -0.9074
11274TIP3   OH255312   0.107   6.131  14.581  0.4415 -0.5631  0.1162
11274TIP3    H155313   0.120   6.107  14.673  1.0981 -0.8072 -0.0333
11274TIP3    H255314   0.018   6.102  14.561  0.3960 -0.7658  0.5902
11275TIP3   OH255315   2.838   2.557  15.120  0.6076  0.2725 -0.3414
11275TIP3    H155316   2.828   2.556  15.025  0.9082 -3.2682 -0.4744
11275TIP3    H255317   2.759   2.600  15.152 -0.4902 -0.2677 -2.1438
11276TIP3   OH255318   1.036   6.770  13.679 -0.3590 -0.3962  0.4107
11276TIP3    H155319   1.071   6.701  13.623 -1.7273 -1.8266  1.2347
11276TIP3    H255320   0.944   6.778  13.654 -1.2908 -1.7630  3.0058
11277TIP3   OH255321   0.239   2.049  12.209 -0.6008  0.3947  1.1269
11277TIP3    H155322   0.280   2.105  12.142 -1.2026 -0.3254  0.1248
11277TIP3    H255323   0.273   1.962  12.190 -0.2430  0.2813  2.2183
11278TIP3   OH255324   4.284   2.605  12.367  0.1362  0.2674  0.0037
11278TIP3    H155325   4.245   2.656  12.296 -1.9801 -0.8519  0.3012
11278TIP3    H255326   4.262   2.514  12.346  3.1613 -0.5460 -0.1084
11279TIP3   OH255327   1.810   1.622  10.677  0.4965  0.2482 -0.0872
11279TIP3    H155328   1.857   1.664  10.605  2.2070 -0.0961  0.7929
11279TIP3    H255329   1.866   1.550  10.705  0.5581  1.1802  2.4745
11280TIP3   OH255330   1.823   4.681  14.771  0.3808  0.3461  0.0703
11280TIP3    H155331   1.762   4.698  14.843  1.6491  2.4618  0.7466
11280TIP3    H255332   1.862   4.597  14.792 -2.9545 -1.6323 -0.9412
11281TIP3   OH255333   6.413   2.399   4.853  0.0661 -0.3908  0.1509
11281TIP3    H155334   6.343   2.348   4.894  0.5368 -0.9154  0.3037
11281TIP3    H255335   6.371   2.443   4.779 -0.4749 -0.5252  0.3753
11282TIP3   OH255336   3.745   0.629   4.977  0.2310 -0.2462 -0.2804
11282TIP3    H155337   3.696   0.711   4.992  0.3761 -0.2498  0.2135
11282TIP3    H255338   3.760   0.628   4.882  0.0120  0.1787 -0.3241
11283TIP3   OH255339   3.207   1.830  14.403 -0.6857  0.2498  0.4867
11283TIP3    H155340   3.158   1.829  14.321  2.0950 -1.5523 -1.3482
11283TIP3    H255341   3.299   1.832  14.375  0.3605  0.5258  3.6085
11284TIP3   OH255342   3.682   0.176  13.027  0.0131  0.7489  0.5915
11284TIP3    H155343   3.614   0.157  13.092 -1.5589  0.6609 -0.9998
11284TIP3    H255344   3.743   0.234  13.073 -0.4765 -0.0988  2.4366
11285TIP3   OH255345   3.014   1.470  10.712  0.4056 -0.1042  0.0281
11285TIP3    H155346   3.076   1.524  10.761  1.8286 -2.1010  0.5534
11285TIP3    H255347   2.954   1.437  10.779 -0.3201  0.6003 -0.2579
11286TIP3   OH255348   2.766   1.861  12.924 -0.2489  0.1755  0.4788
11286TIP3    H155349   2.711   1.812  12.864 -1.7389  1.1500  0.9949
11286TIP3    H255350   2.849   1.814  12.924 -1.2316 -1.6509  0.0869
11287TIP3   OH255351   5.064   5.779   3.938  0.0517 -0.6736 -0.3267
11287TIP3    H155352   4.978   5.763   3.976  1.0789 -1.4446  1.8541
11287TIP3    H255353   5.069   5.874   3.930 -0.6761 -0.5617  0.3881
11288TIP3   OH255354   2.827   6.252  13.926  1.0494  0.4649 -0.2731
11288TIP3    H155355   2.815   6.280  13.835  0.0291  0.5877 -0.1172
11288TIP3    H255356   2.822   6.333  13.977  0.4154  0.2671 -0.0132
11289TIP3   OH255357   0.266   1.740  13.632  0.3689 -0.4195  0.1930
11289TIP3    H155358   0.360   1.749  13.646  0.6883  0.6935 -2.2024
11289TIP3    H255359   0.234   1.830  13.625 -0.1197 -0.7075 -2.9410
11290TIP3   OH255360   4.487   4.367  12.029 -0.5458 -0.0491 -0.4817
11290TIP3    H155361   4.554   4.349  12.095 -0.1364 -1.4916 -1.2454
11290TIP3    H255362   4.405   4.370  12.078  0.0468  2.0388  0.5117
11291TIP3   OH255363   6.098   3.130   0.206 -0.0508  0.4032  0.2518
11291TIP3    H155364   6.006   3.125   0.231  0.0329  1.4006  0.7912
11291TIP3    H255365   6.097   3.154   0.113 -0.3374  1.2161  0.4594
11292TIP3   OH255366   1.704   6.539   4.860  0.2413  0.3356  0.3892
11292TIP3    H155367   1.787   6.497   4.838 -1.6418 -3.4714 -0.3697
11292TIP3    H255368   1.689   6.514   4.952 -1.0265 -1.0822 -0.1498
11293TIP3   OH255369   5.221   6.449  11.150 -0.2904  0.0765  0.1372
11293TIP3    H155370   5.260   6.531  11.121  0.8203 -0.4032  0.2342
11293TIP3    H255371   5.276   6.381  11.113 -0.6195 -0.6127  0.8686
11294TIP3   OH255372   4.518   0.032   3.413  0.2882 -0.1472 -0.1555
11294TIP3    H155373   4.483  -0.054   3.388  0.7287 -0.4483  0.2478
11294TIP3    H255374   4.500   0.039   3.506  0.7900 -0.0592 -0.0634
11295TIP3   OH255375   2.334   3.911  16.024  0.7399  0.6809  0.0152
11295TIP3    H155376   2.287   3.911  16.108  0.8395  1.7316  0.0836
11295TIP3    H255377   2.426   3.918  16.049  0.8635 -0.2946 -0.1502
11296TIP3   OH255378   2.011   1.133   3.035  0.3361 -0.4138  0.0849
11296TIP3    H155379   2.022   1.111   2.943 -0.7054  0.3555 -0.2346
11296TIP3    H255380   1.919   1.115   3.053  0.6763 -1.2051  1.1633
11297TIP3   OH255381   0.400   2.115  16.828  0.4079  0.6065  0.0605
11297TIP3    H155382   0.477   2.110  16.771  2.1065  0.4367  2.2380
11297TIP3    H255383   0.406   2.037  16.884 -0.1425  1.7047  1.7146
11298TIP3   OH255384   6.211   0.688  12.423 -0.5062 -0.5264 -0.5444
11298TIP3    H155385   6.181   0.635  12.350 -1.5438 -0.6253 -0.0755
11298TIP3    H255386   6.231   0.625  12.493 -1.9302 -0.3293  0.0790
11299TIP3   OH255387   2.551   4.434  14.087  0.2383  0.0669  0.1578
11299TIP3    H155388   2.490   4.381  14.139 -0.3173  1.4637  0.9767
11299TIP3    H255389   2.501   4.511  14.061  1.6393  1.2710  0.8762
11300TIP3   OH255390   0.285   5.859   3.267 -0.0531  0.4417 -0.1775
11300TIP3    H155391   0.208   5.887   3.317 -0.6316  0.8213 -1.2508
11300TIP3    H255392   0.277   5.905   3.184  2.5175  2.2675  0.4600
11301TIP3   OH255393   5.009   1.412  12.836 -0.0675  0.2427 -0.1517
11301TIP3    H155394   5.079   1.350  12.813 -0.2249  0.0070 -0.0043
11301TIP3    H255395   5.053   1.478  12.890  0.3555  0.9448 -1.3412
11302TIP3   OH255396   0.934   0.747  11.873 -0.1931  0.2262 -0.3978
11302TIP3    H155397   0.857   0.694  11.851  0.1880 -1.4315  1.8323
11302TIP3    H255398   1.008   0.696  11.839  0.0783  0.2464  0.1578
11303TIP3   OH255399   5.475   0.444  10.725 -0.5115 -0.2264 -0.2430
11303TIP3    H155400   5.498   0.535  10.742  0.1450 -0.0654 -1.8002
11303TIP3    H255401   5.394   0.448  10.674 -0.0853 -0.4627 -0.9556
11304TIP3   OH255402   3.108   5.282   5.198 -0.5796  0.5946 -0.1143
11304TIP3    H155403   3.114   5.264   5.104 -0.1871 -0.2656  0.0621
11304TIP3    H255404   3.151   5.366   5.210 -1.1720  1.0047 -0.7857
11305TIP3   OH255405   2.486   1.995   0.015  0.2796 -0.0602  0.0403
11305TIP3    H155406   2.538   1.932  -0.035  0.7776  0.4240 -0.0691
11305TIP3    H255407   2.432   1.942   0.073  0.1476 -0.6083 -0.5770
11306TIP3   OH255408   5.223   5.759   0.952 -0.1099 -0.4827 -0.7482
11306TIP3    H155409   5.218   5.663   0.948 -2.2858 -0.4932  0.6492
11306TIP3    H255410   5.267   5.777   1.035  1.8228 -0.2390 -1.7910
11307TIP3   OH255411   6.431   2.727  15.760 -0.1308  0.7089  0.3906
11307TIP3    H155412   6.488   2.673  15.813  1.0458 -0.2204 -1.6888
11307TIP3    H255413   6.369   2.765  15.822  1.0831 -0.3633  2.3638
11308TIP3   OH255414   4.055   0.039   4.469  0.7102 -0.4183 -0.1453
11308TIP3    H155415   3.997  -0.013   4.412 -1.3229 -0.8767  2.1250
11308TIP3    H255416   4.066   0.122   4.423  1.1717 -1.5796 -2.2716
11309TIP3   OH255417   4.689   6.344  13.368 -0.5356 -0.3642 -0.0363
11309TIP3    H155418   4.700   6.287  13.292 -0.1312 -0.4275  0.0680
11309TIP3    H255419   4.777   6.373  13.389 -0.6561 -0.2857  0.3658
11310TIP3   OH255420   2.736   2.771  12.515 -0.0853 -0.5418 -0.2564
11310TIP3    H155421   2.659   2.742  12.467 -0.1077 -0.4187 -0.2950
11310TIP3    H255422   2.781   2.690  12.540 -0.1667 -0.6104 -0.3310
11311TIP3   OH255423   2.567   6.317  11.439 -0.0029 -0.5230  0.3458
11311TIP3    H155424   2.518   6.266  11.374  0.6159 -1.0946  0.3164
11311TIP3    H255425   2.502   6.377  11.476 -0.4284 -0.3925 -0.5909
11312TIP3   OH255426   5.734   0.409   4.406 -0.1287  0.6795  0.1432
11312TIP3    H155427   5.785   0.354   4.466 -2.0458 -0.8999  0.3947
11312TIP3    H255428   5.800   0.451   4.351  1.4401 -2.1198 -0.2827
11313TIP3   OH255429   6.755   1.107  15.418  0.4175 -0.2629 -0.0351
11313TIP3    H155430   6.669   1.092  15.459  0.8573 -1.7791  0.4004
11313TIP3    H255431   6.738   1.174  15.352 -1.0726 -0.4096  0.1559
11314TIP3   OH255432   2.526   2.629   1.331 -0.3142 -0.3460 -0.1766
11314TIP3    H155433   2.596   2.626   1.396 -2.4161  1.5222  2.3920
11314TIP3    H255434   2.497   2.538   1.322  0.7003 -0.7786  0.7121
11315TIP3   OH255435   1.178   6.494  10.961 -0.3741  0.1060 -0.0440
11315TIP3    H155436   1.229   6.423  10.921  1.1563  1.5809 -0.8368
11315TIP3    H255437   1.112   6.516  10.895 -2.6056 -2.2579  1.2519
11316TIP3   OH255438   4.379   3.430  11.822  0.1738  0.3321 -0.3885
11316TIP3    H155439   4.360   3.517  11.788 -1.2049 -0.1531 -0.9168
11316TIP3    H255440   4.468   3.437  11.857  0.0065  2.0059 -0.2026
11317TIP3   OH255441   4.103   6.467  17.022  0.6376 -0.0424 -0.0345
11317TIP3    H155442   4.122   6.540  17.082 -0.0218  2.1962 -2.3656
11317TIP3    H255443   4.030   6.421  17.064 -0.0366  1.6436  0.7672
11318TIP3   OH255444   3.414   5.593   0.608  0.3944 -0.3700  0.0889
11318TIP3    H155445   3.420   5.657   0.536  1.7194 -0.7068 -0.1258
11318TIP3    H255446   3.477   5.525   0.585  1.8824  0.1866  2.2153
11319TIP3   OH255447   5.152   0.231  16.195 -0.4749  0.3935 -0.6942
11319TIP3    H155448   5.116   0.260  16.279  0.1987  0.8349 -0.5532
11319TIP3    H255449   5.219   0.166  16.218  0.1597  0.9812 -0.8444
11320TIP3   OH255450   2.478   2.232  12.638  0.1977  0.2126 -0.2221
11320TIP3    H155451   2.554   2.186  12.602 -0.3608 -0.4130 -0.6100
11320TIP3    H255452   2.513   2.317  12.665  0.5331  0.9648 -2.7763
11321TIP3   OH255453   2.759   2.568   0.980 -0.8500 -0.6471 -0.2481
11321TIP3    H155454   2.669   2.539   0.991 -0.5088 -2.2587 -1.3895
11321TIP3    H255455   2.793   2.516   0.907 -0.0756  2.4974 -2.3287
11322TIP3   OH255456   4.442   1.659  14.583  0.6569 -0.0389  0.7053
11322TIP3    H155457   4.404   1.629  14.666  0.5535 -0.0804  0.6428
11322TIP3    H255458   4.372   1.648  14.519  1.0788 -1.0617  0.3941
11323TIP3   OH255459   1.448   1.225   0.627 -0.1765  0.0035  0.4397
11323TIP3    H155460   1.398   1.228   0.708 -0.4122  0.1097  0.2909
11323TIP3    H255461   1.448   1.315   0.595  0.2206  0.0298  0.5040
11324TIP3   OH255462   4.277   2.251  13.892  0.6779  0.3262 -0.4182
11324TIP3    H155463   4.188   2.233  13.862  0.4606 -1.0895  0.9462
11324TIP3    H255464   4.312   2.312  13.828 -1.2506  0.8593 -1.0203
11325TIP3   OH255465   6.850   3.527   2.275 -0.2771  0.6576  0.7053
11325TIP3    H155466   6.834   3.438   2.244 -1.4046  0.7499  1.0016
11325TIP3    H255467   6.927   3.556   2.226 -0.2900 -0.2450  0.1382
11326TIP3   OH255468   6.405   2.920  10.415 -0.4201  0.2503 -0.6366
11326TIP3    H155469   6.445   2.929  10.328  0.6771  2.1209  0.0119
11326TIP3    H255470   6.381   3.010  10.440 -2.2160 -0.4441  0.3403
11327TIP3   OH255471   4.743   3.476   2.953  0.8644 -0.3694  0.5164
11327TIP3    H155472   4.813   3.427   2.911  1.0780 -1.0717  1.6566
11327TIP3    H255473   4.725   3.548   2.893  3.6862  0.7977  0.9119
11328TIP3   OH255474   5.942   0.370   0.371 -0.2250  0.9910 -0.0966
11328TIP3    H155475   5.885   0.446   0.363 -0.7341  0.5287 -1.1503
11328TIP3    H255476   6.028   0.400   0.343  0.1850  1.7895  1.8508
11329TIP3   OH255477   4.798   0.017  10.814 -0.2549  0.1908  0.1514
11329TIP3    H155478   4.749   0.094  10.845 -1.7723 -0.7405  0.1875
11329TIP3    H255479   4.763   0.000  10.727  0.0295 -0.4939  0.1647
11330TIP3   OH255480   5.902   5.181  15.889  0.0771 -0.1125 -0.7225
11330TIP3    H155481   5.824   5.179  15.833  0.3297 -0.0297 -1.0826
11330TIP3    H255482   5.890   5.109  15.950 -1.7524  1.6932  1.2312
11331TIP3   OH255483   0.480   4.987   2.592  0.2879 -0.1365  0.4646
11331TIP3    H155484   0.534   4.924   2.638 -0.5880 -1.2007  0.0801
11331TIP3    H255485   0.507   4.980   2.500  1.6367  1.5687  0.6825
11332TIP3   OH255486   3.667   0.531   2.069 -0.3704 -0.4244 -0.0377
11332TIP3    H155487   3.633   0.620   2.062  0.3387 -0.2143 -0.9754
11332TIP3    H255488   3.744   0.539   2.125 -0.2636 -0.4375 -0.1832
11333TIP3   OH255489   0.887   5.513   4.707  0.1342 -0.1469  0.4301
11333TIP3    H155490   0.831   5.533   4.632  1.3867 -1.6732 -0.9793
11333TIP3    H255491   0.912   5.598   4.741  0.8271  0.6715 -1.9096
11334TIP3   OH255492   3.857   6.503  14.487  0.0993  0.2960 -0.1676
11334TIP3    H155493   3.867   6.489  14.392  0.2066  2.0111 -0.4495
11334TIP3    H255494   3.780   6.451  14.511  0.4400 -0.6634 -1.0640
11335TIP3   OH255495   5.291   2.416  11.881 -0.1589  0.3770  0.3785
11335TIP3    H155496   5.295   2.357  11.806 -0.2135  2.3804 -1.2785
11335TIP3    H255497   5.380   2.419  11.915 -0.2741 -1.0891  0.9003
11336TIP3   OH255498   0.980   0.738  12.410 -0.3896  0.2191  0.1195
11336TIP3    H155499   1.010   0.816  12.363  0.1662 -0.5798 -0.8828
11336TIP3    H255500   0.889   0.727  12.384 -1.1010  1.6574  1.8234
11337TIP3   OH255501   3.596   5.085  12.231 -0.3756 -0.0965 -0.0205
11337TIP3    H155502   3.543   5.162  12.251 -0.1377  0.0334  0.1171
11337TIP3    H255503   3.588   5.029  12.308  0.7004  0.4931  0.5441
11338TIP3   OH255504   3.918   0.009  16.011 -0.0930  0.7632 -0.4993
11338TIP3    H155505   3.915   0.104  16.007 -0.4218  0.7498 -0.6443
11338TIP3    H255506   3.827  -0.018  16.018 -0.0418  0.4433 -0.9520
11339TIP3   OH255507   5.422   3.118   4.789  0.3773  0.3049 -0.1310
11339TIP3    H155508   5.445   3.025   4.794 -0.0521  0.2180  0.3343
11339TIP3    H255509   5.363   3.124   4.714 -1.4708 -0.2197  1.2189
11340TIP3   OH255510   5.173   4.068   4.146 -0.0333  0.2652 -0.6640
11340TIP3    H155511   5.171   4.043   4.053 -0.4180 -1.3904 -0.2501
11340TIP3    H255512   5.089   4.111   4.161  1.0977  3.0010 -1.6661
11341TIP3   OH255513   1.501   3.091   4.674 -0.0193  0.5999  0.1014
11341TIP3    H155514   1.422   3.112   4.624 -1.1169 -0.5374  1.2760
11341TIP3    H255515   1.543   3.175   4.688 -1.6582  1.4180  0.4392
11342TIP3   OH255516   5.980   5.827  15.414  0.0473  0.1871  0.0296
11342TIP3    H155517   6.069   5.859  15.402 -0.1996  0.9134  0.1129
11342TIP3    H255518   5.976   5.747  15.361  0.6336  0.3559 -0.2726
11343TIP3   OH255519   3.162   2.814   1.233  0.3017 -0.0611  0.0401
11343TIP3    H155520   3.099   2.759   1.186  0.3231  0.6619 -0.8404
11343TIP3    H255521   3.141   2.903   1.207  3.0602  0.1026 -2.0298
11344TIP3   OH255522   0.103   5.403  14.624 -0.2906 -0.1445  0.4653
11344TIP3    H155523   0.099   5.435  14.714 -0.2523  0.0085  0.4129
11344TIP3    H255524   0.081   5.310  14.631  3.7439 -1.2303  1.2205
11345TIP3   OH255525   2.235   5.316   4.282  0.0098  0.5013 -0.1805
11345TIP3    H155526   2.303   5.310   4.215  0.1687 -0.7977  0.0581
11345TIP3    H255527   2.196   5.402   4.270  0.8426  0.7560 -1.1585
11346TIP3   OH255528   6.352   4.176   5.720 -0.4079 -0.5616  0.1665
11346TIP3    H155529   6.430   4.227   5.739  0.3444 -0.5140 -2.5283
11346TIP3    H255530   6.368   4.140   5.632 -2.6541 -2.0491  0.2742
11347TIP3   OH255531   1.085   1.661   0.504  0.6835  0.3793 -0.1689
11347TIP3    H155532   1.103   1.736   0.446  2.8139 -0.1150 -0.2462
11347TIP3    H255533   1.165   1.608   0.499  0.4041 -0.3590  2.1977
11348TIP3   OH255534   2.562   0.445  15.655  0.7295  0.1664  0.6553
11348TIP3    H155535   2.614   0.502  15.712  0.8865  0.9625 -0.2534
11348TIP3    H255536   2.472   0.455  15.685  0.9561 -0.4302  1.5807
11349TIP3   OH255537   4.428   4.818  15.629 -0.1226 -0.0008  0.2403
11349TIP3    H155538   4.520   4.847  15.633 -0.3029  0.4970  1.5469
11349TIP3    H255539   4.381   4.882  15.684 -0.9405 -1.3316  1.1484
11350TIP3   OH255540   6.464   3.342   5.673 -0.0415  0.1024 -0.0063
11350TIP3    H155541   6.459   3.291   5.592  0.1864 -0.3685  0.2751
11350TIP3    H255542   6.433   3.429   5.648 -1.5653 -0.4705 -0.2358
11351TIP3   OH255543   2.646   6.040   2.432 -0.2319  0.4847  0.1008
11351TIP3    H155544   2.638   6.016   2.339  1.1443 -0.1747  0.1327
11351TIP3    H255545   2.555   6.051   2.461 -0.7796 -0.8930 -0.9200
11352TIP3   OH255546   1.834   3.416  13.757 -0.1197 -0.2217 -0.0391
11352TIP3    H155547   1.858   3.500  13.797 -0.6367 -0.0738 -0.0314
11352TIP3    H255548   1.908   3.394  13.701 -0.1567  0.4390 -0.3554
11353TIP3   OH255549   2.631   4.038   5.174  0.1488 -0.9583  0.0402
11353TIP3    H155550   2.660   3.961   5.223  1.0910 -1.2847 -0.9703
11353TIP3    H255551   2.585   4.002   5.098  0.9484 -0.5582 -0.6567
11354TIP3   OH255552   2.382   4.591  16.215 -0.2300  0.2364 -0.6341
11354TIP3    H155553   2.366   4.625  16.303 -0.1431 -1.1221 -0.0727
11354TIP3    H255554   2.298   4.603  16.169 -0.8404 -0.6636  0.1997
11355TIP3   OH255555   5.467   5.742   3.929 -0.0513  0.1160  0.3149
11355TIP3    H155556   5.442   5.772   4.016 -1.1538 -1.9279  0.7600
11355TIP3    H255557   5.563   5.735   3.933  0.1187  2.0546  0.6251
11356TIP3   OH255558   3.762   0.554   2.356  0.7183 -0.2998  0.3593
11356TIP3    H155559   3.723   0.544   2.443  3.0911 -2.2308  1.3583
11356TIP3    H255560   3.816   0.632   2.363 -0.3192  0.4596  0.0652
11357TIP3   OH255561   3.315   2.662  16.559  0.1718 -0.0856  0.0280
11357TIP3    H155562   3.345   2.573  16.542  1.6048  0.1266  1.1333
11357TIP3    H255563   3.395   2.715  16.556 -0.0850  0.6066  2.7228
11358TIP3   OH255564   1.818   6.108   4.976  0.2476  0.7708  0.3299
11358TIP3    H155565   1.887   6.103   4.910 -0.2025 -2.5090 -0.0397
11358TIP3    H255566   1.866   6.117   5.059  1.2063 -1.0642  0.0447
11359TIP3   OH255567   6.014   4.661   5.646  0.0902  0.6479 -0.2154
11359TIP3    H155568   5.943   4.621   5.696  0.1031 -0.0033 -0.7176
11359TIP3    H255569   6.093   4.642   5.696  0.3772 -1.7691 -1.4670
11360TIP3   OH255570   3.278   5.359  13.195 -0.5392 -0.3293 -0.3055
11360TIP3    H155571   3.247   5.295  13.259  1.0859 -1.4106 -0.5623
11360TIP3    H255572   3.373   5.360  13.205 -0.4916  1.8844 -0.4805
11361TIP3   OH255573   6.210   1.482  13.399 -0.2298  0.3816 -0.3856
11361TIP3    H155574   6.263   1.535  13.339  0.1288 -1.8794 -2.2130
11361TIP3    H255575   6.244   1.504  13.486  0.6063  2.2981 -1.1286
11362TIP3   OH255576   2.895   4.003  13.255 -0.1822  0.1506 -0.1384
11362TIP3    H155577   2.889   4.095  13.231  1.0642  0.6839  1.3534
11362TIP3    H255578   2.936   4.004  13.342 -1.0194 -1.7709  0.3320
11363TIP3   OH255579   6.710   3.567   0.394  0.0540 -0.5125  0.1537
11363TIP3    H155580   6.786   3.621   0.369  0.7752 -1.8223 -0.5799
11363TIP3    H255581   6.701   3.581   0.488 -0.3227  1.5397 -0.1307
11364TIP3   OH255582   6.175   1.959   3.608 -0.0824  0.3846 -1.1127
11364TIP3    H155583   6.099   1.981   3.554 -0.5697 -2.6595 -1.8886
11364TIP3    H255584   6.231   1.908   3.550  0.1601 -1.6197  0.7473
11365TIP3   OH255585   2.740   0.376  14.356  0.8156 -0.0554  1.1626
11365TIP3    H155586   2.675   0.426  14.405  0.9876  2.0021 -0.5578
11365TIP3    H255587   2.713   0.285  14.365 -2.2465  0.6908  0.6647
11366TIP3   OH255588   3.251   2.294  16.373 -0.2351 -0.6231  0.2618
11366TIP3    H155589   3.303   2.322  16.298  0.1680  0.1414  0.8028
11366TIP3    H255590   3.309   2.234  16.421 -1.9650 -4.6602 -2.2206
11367TIP3   OH255591   0.926   2.864   5.582  0.3894  0.1020  0.0583
11367TIP3    H155592   0.838   2.901   5.573  1.1869  2.3478  0.6578
11367TIP3    H255593   0.912   2.773   5.606 -1.7580  0.3619  0.0061
11368TIP3   OH255594   6.003   0.243  13.100  0.0699 -0.0916  0.1436
11368TIP3    H155595   5.950   0.271  13.025 -1.4269 -1.2874  0.6885
11368TIP3    H255596   6.082   0.296  13.095 -0.2215  0.2288 -1.9767
11369TIP3   OH255597   3.438   5.380  11.728 -0.1850  0.0779 -0.0065
11369TIP3    H155598   3.448   5.285  11.720  0.5490  0.1553 -0.0274
11369TIP3    H255599   3.409   5.393  11.819  0.7474 -0.0928  0.3236
11370TIP3   OH255600   3.599   1.811  13.561 -0.4719  1.0699 -0.3868
11370TIP3    H155601   3.508   1.818  13.589 -1.2842  0.4283 -2.6703
11370TIP3    H255602   3.650   1.814  13.643 -2.4846  1.8333  0.9053
11371TIP3   OH255603   5.057   5.671   2.288 -0.3322 -0.3631  0.4600
11371TIP3    H155604   4.985   5.710   2.338 -0.3953  0.5276 -0.3018
11371TIP3    H255605   5.020   5.651   2.203  0.0842 -0.7721  0.3677
11372TIP3   OH255606   6.690   1.299   1.346 -0.1877  0.4181  0.1067
11372TIP3    H155607   6.721   1.211   1.325 -1.3665  0.0428 -0.1526
11372TIP3    H255608   6.698   1.305   1.441  0.6767  0.3501  0.0480
11373TIP3   OH255609   1.921   4.793   5.085 -0.2049  0.4043 -0.3227
11373TIP3    H155610   2.007   4.764   5.115 -0.1681 -0.0937 -0.9029
11373TIP3    H255611   1.935   4.882   5.054  0.2313  0.1239 -0.9501
11374TIP3   OH255612   4.526   4.991   4.347 -0.0956 -0.4960  0.2553
11374TIP3    H155613   4.593   4.923   4.353  0.8157  0.3046 -0.5182
11374TIP3    H255614   4.568   5.069   4.383 -0.5303  0.0703 -0.4436
11375TIP3   OH255615   2.197   2.586  15.896  0.3606  0.4902 -0.4422
11375TIP3    H155616   2.220   2.494  15.888  1.0989  0.6411 -0.1091
11375TIP3    H255617   2.187   2.602  15.990  2.6770  1.3026 -0.2802
11376TIP3   OH255618   1.016   3.189  13.208 -0.1524 -0.2234  0.3339
11376TIP3    H155619   0.967   3.115  13.244 -0.0720 -0.0524  0.8046
11376TIP3    H255620   1.023   3.251  13.281 -0.8453  0.5722 -0.2616
11377TIP3   OH255621   1.198   1.444  12.399  0.0901  0.2886 -0.3414
11377TIP3    H155622   1.120   1.407  12.440  0.7616 -1.9742 -0.9582
11377TIP3    H255623   1.206   1.532  12.438 -2.4711  0.4329  0.0587
11378TIP3   OH255624   5.280   1.820  12.129  0.0868 -0.7264 -0.8666
11378TIP3    H155625   5.205   1.813  12.070  0.5537  0.0325 -1.5668
11378TIP3    H255626   5.267   1.749  12.193 -2.5834  0.9487  0.6185
11379TIP3   OH255627   2.812   1.846  10.807  0.0872 -0.0427  0.0667
11379TIP3    H155628   2.812   1.942  10.805 -0.6117 -0.0190 -2.2786
11379TIP3    H255629   2.853   1.821  10.724 -2.5621 -1.6847 -0.8690
11380TIP3   OH255630   4.946   5.585  13.695 -0.0533  0.3893 -0.2707
11380TIP3    H155631   4.883   5.656  13.700  0.2227  0.6101  0.1978
11380TIP3    H255632   4.895   5.506  13.714 -0.3403  0.4719 -0.6953
11381TIP3   OH255633   4.421   6.536  11.333 -0.7893  0.0629  0.7804
11381TIP3    H155634   4.510   6.502  11.336 -0.7441  0.1302  0.2775
11381TIP3    H255635   4.369   6.466  11.294 -1.1692 -0.4104  2.0963
11382TIP3   OH255636   2.812   2.574   5.215  0.7208 -0.7278  0.1935
11382TIP3    H155637   2.847   2.663   5.228  1.1128 -0.7765 -0.4937
11382TIP3    H255638   2.890   2.518   5.213  0.5557 -0.9329 -0.5920
11383TIP3   OH255639   0.669   3.503   2.754  0.0070 -0.1112  0.2010
11383TIP3    H155640   0.603   3.451   2.708  0.3427 -1.2113  0.8931
11383TIP3    H255641   0.619   3.553   2.819 -0.1608 -1.0558  0.8291
11384TIP3   OH255642   4.517   2.965   5.070 -0.4076  0.4760  0.4485
11384TIP3    H155643   4.613   2.957   5.068 -0.2517  1.9673 -0.5948
11384TIP3    H255644   4.485   2.876   5.079  1.0858 -0.1313  0.0478
11385TIP3   OH255645   3.988   6.094   1.999 -0.4354 -0.4157  0.0494
11385TIP3    H155646   3.977   6.008   2.038 -0.3685 -1.0819 -1.3385
11385TIP3    H255647   3.961   6.083   1.908 -0.6016  1.0796 -0.1106
11386TIP3   OH255648   6.232   1.882  11.513 -0.5530  0.0589  0.1830
11386TIP3    H155649   6.248   1.972  11.486  0.0813 -0.2687 -0.5721
11386TIP3    H255650   6.145   1.861  11.480 -1.5505  1.0127  2.0575
11387TIP3   OH255651   3.834   0.789   2.226 -0.0562 -0.6270  0.0808
11387TIP3    H155652   3.876   0.875   2.220  1.7285 -1.5517 -2.6042
11387TIP3    H255653   3.742   0.807   2.207  0.2594  0.7111 -0.3094
11388TIP3   OH255654   3.252   4.375  14.307  0.6358  0.5903  0.2976
11388TIP3    H155655   3.180   4.335  14.258  0.4757  0.7581  0.3932
11388TIP3    H255656   3.312   4.303  14.324  0.8584  0.5999 -0.4431
11389TIP3   OH255657   6.292   2.268  13.684  0.4316  0.0933  0.4507
11389TIP3    H155658   6.236   2.305  13.752  0.6404  0.2975  0.5143
11389TIP3    H255659   6.240   2.273  13.604  0.5450  0.7542  0.4104
11390TIP3   OH255660   6.646   2.866   1.499 -0.5940  0.4943 -0.0354
11390TIP3    H155661   6.581   2.839   1.435 -0.1433 -0.0860 -0.2601
11390TIP3    H255662   6.722   2.811   1.480 -0.2250  0.7897  0.5642
11391TIP3   OH255663   4.085   3.806  12.220 -0.1138  0.1683  0.0853
11391TIP3    H155664   4.072   3.776  12.310 -1.4561  0.0910 -0.1178
11391TIP3    H255665   4.175   3.838  12.218  0.0661 -0.2127  1.3413
11392TIP3   OH255666   1.255   3.685   3.578 -1.0116  0.2742 -0.1843
11392TIP3    H155667   1.229   3.755   3.638 -0.8724  0.2520 -0.0988
11392TIP3    H255668   1.336   3.717   3.538 -0.1441 -0.4719  0.9287
11393TIP3   OH255669   5.338   6.656   5.635 -0.1929 -0.6908 -0.1728
11393TIP3    H155670   5.268   6.718   5.658  0.2294  0.1926 -1.2008
11393TIP3    H255671   5.296   6.595   5.574 -0.7189 -1.6960  1.1525
11394TIP3   OH255672   5.915   4.341   1.566  0.4311  0.7205  0.1264
11394TIP3    H155673   5.873   4.358   1.650  0.8185  0.1389  0.4422
11394TIP3    H255674   5.869   4.398   1.505 -2.2551 -1.3302  0.0513
11395TIP3   OH255675   5.777   5.291   0.309  0.0143  0.7676  0.5141
11395TIP3    H155676   5.703   5.350   0.316 -1.3128 -0.8318  0.4786
11395TIP3    H255677   5.764   5.227   0.378 -0.0251 -0.9999 -1.0451
11396TIP3   OH255678   1.818   0.177   4.001 -0.3782 -1.0454  0.0322
11396TIP3    H155679   1.850   0.094   4.037  1.4488 -0.4441 -0.0930
11396TIP3    H255680   1.831   0.169   3.907  0.6135 -0.3243  0.0899
11397TIP3   OH255681   2.853   4.117   1.655  0.3646 -0.1019  0.6329
11397TIP3    H155682   2.937   4.071   1.654  1.2927  1.4728  1.5424
11397TIP3    H255683   2.874   4.205   1.624 -1.2934 -0.1516 -0.7966
11398TIP3   OH255684   4.874   3.853  12.206  0.4231  0.2045 -0.2069
11398TIP3    H155685   4.812   3.878  12.138 -2.0090  0.1413  1.8181
11398TIP3    H255686   4.913   3.935  12.235 -0.6339  0.5813  0.1857
11399TIP3   OH255687   5.115   2.201   4.261 -0.4734  0.2377  0.1712
11399TIP3    H155688   5.176   2.175   4.191 -2.2079 -1.0791 -0.9393
11399TIP3    H255689   5.171   2.222   4.335  1.3296 -0.7834 -0.8344
11400TIP3   OH255690   3.980   6.115  10.962  0.0823  0.4929  0.5939
11400TIP3    H155691   3.956   6.182  10.898 -4.8473 -1.3682  0.0039
11400TIP3    H255692   4.029   6.050  10.911  1.6745  1.8707  0.3022
11401TIP3   OH255693   1.286   3.689  13.941  0.2229  0.0284 -0.5171
11401TIP3    H155694   1.354   3.621  13.934 -0.6747 -0.8094 -1.4210
11401TIP3    H255695   1.204   3.641  13.932 -0.4335  1.2968 -1.5448
11402TIP3   OH255696   0.380   1.241   3.524 -0.0467  0.0870  0.3287
11402TIP3    H155697   0.468   1.217   3.496 -0.6430 -2.4399  0.3793
11402TIP3    H255698   0.340   1.280   3.447  0.7927  0.3039 -0.0017
11403TIP3   OH255699   1.368   3.350  12.871  0.4840  0.1322  0.1595
11403TIP3    H155700   1.445   3.311  12.913  0.0060 -0.8723  0.1213
11403TIP3    H255701   1.301   3.282  12.874  0.1046  0.4082 -1.2867
11404TIP3   OH255702   3.564   5.329   0.607 -0.1417 -0.0598 -0.2759
11404TIP3    H155703   3.521   5.340   0.522  1.4283  0.1941 -1.0691
11404TIP3    H255704   3.533   5.244   0.638 -0.0888 -0.5608 -1.5118
11405TIP3   OH255705   0.787   0.866   5.055  0.0395 -0.2733 -0.2483
11405TIP3    H155706   0.752   0.950   5.027  0.5053 -0.5835 -1.8718
11405TIP3    H255707   0.866   0.888   5.104  0.3690  0.2356 -0.9900
11406TIP3   OH255708   3.759   0.290  12.361  0.0836  0.0389  0.1021
11406TIP3    H155709   3.785   0.292  12.453 -1.2475 -0.4985  0.5183
11406TIP3    H255710   3.669   0.324  12.361 -0.9411 -2.4161 -0.5855
11407TIP3   OH255711   5.173   4.275  11.795 -0.4533 -0.1023 -0.9261
11407TIP3    H155712   5.101   4.335  11.775 -0.5454 -0.3734 -1.4172
11407TIP3    H255713   5.190   4.229  11.713  0.4266  0.1120 -0.8674
11408TIP3   OH255714   2.975   4.614  15.651 -0.1514  0.2275  0.4652
11408TIP3    H155715   2.972   4.521  15.675  0.2186  0.3118  0.8560
11408TIP3    H255716   3.000   4.658  15.732 -0.5147  0.6884  0.3285
11409TIP3   OH255717   5.484   6.441   1.372 -0.1357  0.4459 -0.1588
11409TIP3    H155718   5.575   6.421   1.350 -0.3135  0.6489 -1.1213
11409TIP3    H255719   5.449   6.483   1.294 -0.8444  1.0818  0.4784
11410TIP3   OH255720   3.185   2.746  12.322  0.2777  0.1287 -0.1438
11410TIP3    H155721   3.117   2.812  12.339  0.5203  0.3884 -0.1603
11410TIP3    H255722   3.137   2.668  12.296  0.0057  0.5847 -1.0764
11411TIP3   OH255723   3.124   0.786  15.622 -0.0204  0.0406 -0.1796
11411TIP3    H155724   3.145   0.760  15.711 -0.5289 -0.7855 -0.2853
11411TIP3    H255725   3.177   0.727  15.567 -0.8634 -0.5117 -0.4236
11412TIP3   OH255726   2.824   3.802  15.099 -0.1974 -0.2140  0.1744
11412TIP3    H155727   2.807   3.888  15.137 -1.3320 -1.1630  1.9916
11412TIP3    H255728   2.791   3.807  15.010 -1.2609  0.9278  0.6096
11413TIP3   OH255729   2.685   4.625   3.322  0.1641  0.0066  0.1354
11413TIP3    H155730   2.711   4.690   3.258 -1.0129  0.0541 -0.3124
11413TIP3    H255731   2.591   4.637   3.333 -0.5105 -2.8744 -1.4612
11414TIP3   OH255732   5.188   3.703   4.661 -0.0263 -0.3590  0.0497
11414TIP3    H155733   5.210   3.622   4.615 -0.4049 -0.4623  0.0422
11414TIP3    H255734   5.102   3.728   4.626  0.2728  0.2726 -0.2436
11415TIP3   OH255735   5.220   3.037   3.085 -0.0182 -0.4452 -0.3519
11415TIP3    H155736   5.300   3.065   3.129  0.3743  1.3413 -2.0569
11415TIP3    H255737   5.248   3.010   2.997 -1.3598  1.4033 -1.4194
11416TIP3   OH255738   1.959   6.647  14.449  0.1825 -0.0037  0.1188
11416TIP3    H155739   1.989   6.586  14.382  0.9400 -0.2264  0.6448
11416TIP3    H255740   2.005   6.620  14.529 -0.6284  0.3179  0.7106
11417TIP3   OH255741   6.018   2.267  11.096 -0.2853  0.3747  0.2285
11417TIP3    H155742   6.097   2.303  11.054 -0.0886 -1.2252 -0.8893
11417TIP3    H255743   6.038   2.174  11.107 -1.3997  0.2627  1.4707
11418TIP3   OH255744   0.545   2.093  11.483 -0.7364 -0.1757 -0.0448
11418TIP3    H155745   0.541   2.001  11.509 -2.3146 -0.0106  0.3493
11418TIP3    H255746   0.492   2.139  11.548  1.3980  1.2853  0.7684
11419TIP3   OH255747   0.141   0.277  13.550 -0.5168 -0.2858 -0.1659
11419TIP3    H155748   0.178   0.212  13.491  0.1449  0.0773 -0.1489
11419TIP3    H255749   0.112   0.348  13.494  3.4982  1.8105  0.0993
11420TIP3   OH255750   2.056   5.377   3.858 -0.4578 -0.2528 -0.2063
11420TIP3    H155751   2.051   5.430   3.937 -0.8429 -0.6390  0.0361
11420TIP3    H255752   2.148   5.348   3.854 -0.9612 -2.3361  1.5337
11421TIP3   OH255753   3.992   5.154   0.066  0.0686 -0.0490  0.0060
11421TIP3    H155754   3.956   5.226   0.013 -1.6503 -1.3214 -0.6571
11421TIP3    H255755   4.078   5.138   0.029 -1.5493 -1.7781 -3.5150
11422TIP3   OH255756   3.154   4.827   0.959 -0.0022  0.0273  0.1631
11422TIP3    H155757   3.082   4.775   0.922 -1.2274  1.0639  1.0115
11422TIP3    H255758   3.132   4.917   0.936  0.4883  0.4549  1.3133
11423TIP3   OH255759   2.579   6.700  11.156  0.2140 -0.5846  0.3708
11423TIP3    H155760   2.616   6.788  11.163  0.2378 -0.6890  1.7635
11423TIP3    H255761   2.631   6.657  11.088  1.4376 -0.1214  0.9958
11424TIP3   OH255762   4.653   4.793   6.790  0.1174 -0.6979  0.1855
11424TIP3    H155763   4.670   4.706   6.824  0.0148 -0.1990  1.5629
11424TIP3    H255764   4.724   4.809   6.728  0.9245 -1.2137  0.9638
11425TIP3   OH255765   1.180   5.855   6.208 -0.5933 -0.3665 -0.2234
11425TIP3    H155766   1.169   5.896   6.122  1.2417 -0.8543 -0.7374
11425TIP3    H255767   1.097   5.810   6.225 -0.2903 -2.0481 -2.7400
11426TIP3   OH255768   0.421   2.464   4.551  0.6025 -0.2284  0.1085
11426TIP3    H155769   0.412   2.417   4.468 -0.7989  1.7243 -0.9222
11426TIP3    H255770   0.395   2.554   4.530 -1.1304  0.0367  2.9678
11427TIP3   OH255771   2.453   4.331   4.053 -0.4637 -0.1392 -0.0089
11427TIP3    H155772   2.450   4.403   4.116 -2.9582 -1.6998  1.8439
11427TIP3    H255773   2.455   4.374   3.967  1.8499  2.0617  1.0299
11428TIP3   OH255774   2.429   6.638   1.794  0.0112  0.4571  0.4192
11428TIP3    H155775   2.519   6.670   1.788  0.8885 -2.0562 -2.4647
11428TIP3    H255776   2.378   6.700   1.741  0.8167 -0.1674 -1.1587
11429TIP3   OH255777   4.496   5.236   3.946 -0.4304  0.3841  0.4711
11429TIP3    H155778   4.469   5.326   3.963  0.1361  0.6838 -0.2198
11429TIP3    H255779   4.425   5.183   3.984 -1.1681  1.1282  0.1643
11430TIP3   OH255780   1.028   5.230  13.206  0.2933 -0.5649  0.1507
11430TIP3    H155781   0.980   5.229  13.289  0.0827 -1.0559  0.0236
11430TIP3    H255782   0.969   5.189  13.143  0.3245  0.1063 -0.3204
11431TIP3   OH255783   5.014   6.031  12.401 -0.1063 -0.1553  0.1143
11431TIP3    H155784   4.949   6.026  12.331  0.3390 -0.8195 -0.2708
11431TIP3    H255785   5.067   6.108  12.380 -2.1710  1.8246  1.7134
11432TIP3   OH255786   5.493   2.497   3.698 -0.4055  0.1293  0.1633
11432TIP3    H155787   5.401   2.521   3.688 -0.6763 -0.8464  0.1641
11432TIP3    H255788   5.532   2.569   3.747 -0.6745  1.5663 -1.6265
11433TIP3   OH255789   2.632   1.462   1.071  0.1058  0.0513  0.4617
11433TIP3    H155790   2.724   1.467   1.097  0.3640  0.6973 -0.5057
11433TIP3    H255791   2.631   1.492   0.980 -0.9695 -0.5928  0.2382
11434TIP3   OH255792   0.423   1.016  16.335  0.3637 -0.6741  0.2700
11434TIP3    H155793   0.508   1.050  16.361  0.6694  0.4447 -1.9821
11434TIP3    H255794   0.365   1.092  16.337 -1.0383 -1.6771  3.2064
11435TIP3   OH255795   4.514   6.630  12.566  0.6801 -0.7095  0.4716
11435TIP3    H155796   4.464   6.672  12.496  0.6750  0.0026  0.8893
11435TIP3    H255797   4.454   6.566  12.604 -0.0579  0.3770  1.1933
11436TIP3   OH255798   4.015   3.730   5.085 -0.5047 -0.2953 -0.5805
11436TIP3    H155799   3.923   3.740   5.109 -0.5121 -1.1144 -0.2413
11436TIP3    H255800   4.061   3.723   5.169 -0.1948 -0.4277 -0.7576
11437TIP3   OH255801   4.812   4.702  13.266 -0.2432 -0.1445  0.3793
11437TIP3    H155802   4.785   4.769  13.330  1.8133  1.1560 -0.0264
11437TIP3    H255803   4.837   4.752  13.188  3.7227 -1.0476  0.8752
11438TIP3   OH255804   3.549   3.791   1.586  1.2893  0.1851 -0.5125
11438TIP3    H155805   3.528   3.855   1.517  2.3906 -0.1635 -1.1874
11438TIP3    H255806   3.538   3.840   1.668 -0.4849  0.4883 -0.8714
11439TIP3   OH255807   3.803   1.658  15.543 -0.3100 -0.1294  0.5033
11439TIP3    H155808   3.868   1.728  15.543  1.2058 -1.4604 -1.0858
11439TIP3    H255809   3.733   1.690  15.488  0.4431  0.1039 -0.3408
11440TIP3   OH255810   2.076   6.700   3.725 -0.3486  0.0420 -0.1439
11440TIP3    H155811   1.981   6.685   3.723 -0.0064 -2.5378 -0.3248
11440TIP3    H255812   2.091   6.767   3.658 -1.9063 -0.3753 -0.9684
11441TIP3   OH255813   5.041   5.552   4.904 -0.4068  0.4560  0.2318
11441TIP3    H155814   5.099   5.492   4.951  0.8889  2.2005  0.9617
11441TIP3    H255815   5.070   5.546   4.813  0.6918  0.9999  0.5251
11442TIP3   OH255816   1.621   3.540   1.321 -0.2329  0.1702 -0.1109
11442TIP3    H155817   1.598   3.633   1.310 -1.9936 -0.0027  1.7104
11442TIP3    H255818   1.613   3.524   1.415  1.1739 -1.5792 -0.2455
11443TIP3   OH255819   0.147   2.134  16.674 -0.4030 -0.8269  0.0364
11443TIP3    H155820   0.183   2.170  16.594 -0.4765 -0.1782  0.2883
11443TIP3    H255821   0.222   2.100  16.722 -0.3868 -1.4367 -0.4109
11444TIP3   OH255822   3.811   3.739  14.116 -0.0476 -0.5095  0.3304
11444TIP3    H155823   3.900   3.716  14.089 -0.5545 -3.5324  0.8417
11444TIP3    H255824   3.797   3.691  14.197 -2.1623 -0.1937  0.2138
11445TIP3   OH255825   4.967   0.675   0.045  0.2653  0.5869 -0.1412
11445TIP3    H155826   4.939   0.644  -0.041 -1.6403  0.5878  0.4254
11445TIP3    H255827   4.920   0.757   0.057 -0.9426 -0.3004  1.6159
11446TIP3   OH255828   2.587   0.699   2.508 -0.4218 -0.3544  0.8903
11446TIP3    H155829   2.596   0.727   2.599  0.2548 -0.5681  0.8937
11446TIP3    H255830   2.634   0.616   2.503 -0.7299 -0.5078  0.4201
11447TIP3   OH255831   3.703   5.835  14.195  0.0557 -0.2835  0.2647
11447TIP3    H155832   3.645   5.908  14.215 -0.4376 -0.0171 -1.9235
11447TIP3    H255833   3.759   5.867  14.125  1.0700 -1.4219  0.5173
11448TIP3   OH255834   2.604   0.237   3.259 -0.3233  0.1050 -0.4850
11448TIP3    H155835   2.587   0.275   3.346 -0.4245 -1.7260  0.3474
11448TIP3    H255836   2.567   0.149   3.264  1.6939 -0.8737 -1.6072
11449TIP3   OH255837   3.388   0.950   1.628 -0.1501  0.4257  0.9736
11449TIP3    H155838   3.346   0.865   1.613 -0.9981  1.0669 -0.5237
11449TIP3    H255839   3.326   0.999   1.681  0.8753 -0.2567  2.9253
11450TIP3   OH255840   3.319   3.610   5.993  0.3507  0.1343 -0.3655
11450TIP3    H155841   3.386   3.677   5.982  0.6332  0.2254  1.4627
11450TIP3    H255842   3.236   3.655   5.980  0.5756  0.6482 -0.0434
11451TIP3   OH255843   1.572   0.107   5.857 -0.2069  0.3821  1.2317
11451TIP3    H155844   1.576   0.019   5.820  0.8142  0.4064  1.2404
11451TIP3    H255845   1.605   0.163   5.786  1.2872  0.4884  1.9710
11452TIP3   OH255846   1.780   2.290   4.671 -0.3880 -0.3724 -0.0842
11452TIP3    H155847   1.823   2.242   4.742 -0.8881 -0.6866  0.0050
11452TIP3    H255848   1.783   2.382   4.699 -0.6626 -0.5059  0.3779
11453TIP3   OH255849   3.976   2.818  12.923  0.4825 -0.3709 -0.7869
11453TIP3    H155850   4.056   2.771  12.898 -0.4497 -0.6376 -3.4920
11453TIP3    H255851   3.926   2.755  12.975  3.0008  0.6020  3.3225
11454TIP3   OH255852   1.885   4.322   3.710  0.1109  0.7349 -0.2264
11454TIP3    H155853   1.798   4.351   3.683  0.3313  0.0755 -1.7517
11454TIP3    H255854   1.935   4.403   3.720 -1.4751  1.4660  4.0953
11455TIP3   OH255855   1.278   3.917  16.461  0.4644 -0.1047 -0.2456
11455TIP3    H155856   1.187   3.944  16.471  0.7419  0.8036 -0.0093
11455TIP3    H255857   1.316   3.983  16.402  0.5429 -1.4771 -1.8032
11456TIP3   OH255858   2.468   3.931   2.358 -0.4003  0.5944 -0.2737
11456TIP3    H155859   2.415   3.952   2.280 -2.1995 -0.0716  0.6987
11456TIP3    H255860   2.456   4.006   2.416 -0.5305  0.3122  0.0681
11457TIP3   OH255861   3.537   5.076   2.508 -0.0014  0.5207  0.5284
11457TIP3    H155862   3.515   5.002   2.452 -0.2283  0.4861  0.6624
11457TIP3    H255863   3.510   5.049   2.596  0.8243  0.3713  0.7429
11458TIP3   OH255864   4.276   3.020   0.270 -0.3244 -0.1405  0.2002
11458TIP3    H155865   4.364   2.985   0.254  0.6791  1.4490  1.8081
11458TIP3    H255866   4.244   2.971   0.345 -0.7661 -0.6137 -0.2911
11459TIP3   OH255867   1.631   1.264  12.513  0.7940  0.0176 -0.2309
11459TIP3    H155868   1.665   1.333  12.457  0.1737  1.0190  0.5837
11459TIP3    H255869   1.703   1.244  12.573  1.4673 -1.0739 -1.3493
11460TIP3   OH255870   6.224   1.362  10.681 -0.2665 -0.0583 -0.1721
11460TIP3    H155871   6.181   1.446  10.667 -0.6139 -0.5438 -2.4214
11460TIP3    H255872   6.156   1.305  10.717 -0.6702 -0.0053 -0.8488
11461TIP3   OH255873   4.559   4.126  15.010  0.3302  0.2471  0.0577
11461TIP3    H155874   4.565   4.221  14.998  1.2546 -0.0373 -2.2312
11461TIP3    H255875   4.469   4.104  14.985 -0.1207  0.5856  1.3333
11462TIP3   OH255876   0.122   4.959  11.503  0.3709 -0.3744  0.2360
11462TIP3    H155877   0.032   4.977  11.476  0.6056  0.4125 -0.0640
11462TIP3    H255878   0.125   4.864  11.516 -0.6059 -0.3596  0.6513
11463TIP3   OH255879   5.230   1.004   1.450 -0.9644  0.3744  0.2774
11463TIP3    H155880   5.314   0.985   1.492 -0.1889  0.2332 -1.2469
11463TIP3    H255881   5.168   1.012   1.522 -0.5746 -3.8195  1.3311
11464TIP3   OH255882   1.051   5.915  12.626 -0.5860  0.3048 -1.0346
11464TIP3    H155883   1.113   5.907  12.553  0.4153  0.9388 -0.2928
11464TIP3    H255884   1.082   5.851  12.690  0.2666  1.6786 -0.0210
11465TIP3   OH255885   6.343   2.498  14.977 -0.3381 -0.2402 -0.3813
11465TIP3    H155886   6.301   2.438  14.915  2.3765 -0.7440 -1.8813
11465TIP3    H255887   6.345   2.582  14.931  0.6390 -0.3305 -0.5234
11466TIP3   OH255888   5.937   1.821  15.985  0.1397  0.0767 -0.4544
11466TIP3    H155889   6.023   1.841  15.949  0.1479  0.0185 -0.4678
11466TIP3    H255890   5.908   1.744  15.936 -0.7276  1.1901 -1.7510
11467TIP3   OH255891   1.746   2.542  13.191 -0.0673 -0.0890  0.0594
11467TIP3    H155892   1.715   2.614  13.135  1.0698 -0.8402 -1.6299
11467TIP3    H255893   1.692   2.467  13.165 -3.0673  0.5406  3.6036
11468TIP3   OH255894   5.606   4.778  14.483 -0.0718  0.0374  0.5692
11468TIP3    H155895   5.539   4.766  14.416 -0.1748 -0.9720  0.8420
11468TIP3    H255896   5.659   4.699  14.479  0.1654  0.1409  1.4005
11469TIP3   OH255897   4.514   0.718   4.751 -0.6006  0.4968  0.1469
11469TIP3    H155898   4.445   0.684   4.694 -0.3233 -1.0146  0.6666
11469TIP3    H255899   4.596   0.694   4.706 -0.3243 -2.3244  1.9541
11470TIP3   OH255900   2.899   0.549   1.299  0.5473  0.2290 -0.5209
11470TIP3    H155901   2.949   0.483   1.250  0.1448 -0.4459 -0.0484
11470TIP3    H255902   2.910   0.630   1.249  1.7742  0.0072 -0.6345
11471TIP3   OH255903   4.891   1.875   1.454 -0.1351  0.0093  0.3185
11471TIP3    H155904   4.827   1.881   1.525 -1.0886 -2.5093 -0.2245
11471TIP3    H255905   4.954   1.810   1.484  0.2155 -0.0945 -0.6015
11472TIP3   OH255906   2.630   1.821  16.596  0.2080  0.3563  1.3164
11472TIP3    H155907   2.653   1.733  16.625 -0.7945  0.6227  3.0016
11472TIP3    H255908   2.711   1.872  16.607  0.4223 -0.0437  1.6062
11473TIP3   OH255909   0.737   2.363  10.882 -0.0362  0.1946 -0.0838
11473TIP3    H155910   0.754   2.433  10.819  2.1596  0.9647  1.2142
11473TIP3    H255911   0.798   2.293  10.858 -2.3206 -1.4489 -1.4652
11474TIP3   OH255912   5.938   1.415   2.126  0.0312 -0.3312 -0.2290
11474TIP3    H155913   5.973   1.428   2.214 -2.6173 -0.1866  0.9161
11474TIP3    H255914   5.995   1.350   2.086  1.8391  0.2634  1.2612
11475TIP3   OH255915   6.365   2.588  16.983 -0.2041  0.2006 -0.9262
11475TIP3    H155916   6.381   2.678  17.011  1.2925 -0.4125  0.3362
11475TIP3    H255917   6.276   2.569  17.010  0.6837  0.1213  2.3070
11476TIP3   OH255918   3.404   0.341   2.809  0.4164 -0.1659  0.1929
11476TIP3    H155919   3.405   0.360   2.715  1.4302 -0.6351  0.1024
11476TIP3    H255920   3.468   0.401   2.847 -0.8974  0.9178  0.7905
11477TIP3   OH255921   1.032   1.062  15.921 -0.3459 -0.2216  0.7094
11477TIP3    H155922   1.032   1.015  15.837  1.0395 -3.7822  2.4910
11477TIP3    H255923   1.119   1.101  15.927 -1.0184  1.5381 -0.1412
11478TIP3   OH255924   6.801   1.435   5.300  0.3346 -0.0066  0.1465
11478TIP3    H155925   6.823   1.505   5.362  0.5989 -1.3827  1.6843
11478TIP3    H255926   6.854   1.361   5.328  0.3475 -0.7362 -1.6759
11479TIP3   OH255927   0.759   5.847   5.471 -0.2051  0.0501 -0.1423
11479TIP3    H155928   0.844   5.857   5.427  0.2769  0.4520  0.8606
11479TIP3    H255929   0.706   5.797   5.409  1.0636 -1.0460 -0.3862
11480TIP3   OH255930   0.454   0.282   4.341 -0.3354  0.3257 -0.1161
11480TIP3    H155931   0.543   0.263   4.310 -0.9588 -1.4602 -0.9296
11480TIP3    H255932   0.447   0.378   4.336  1.3851  0.4664 -0.4511
11481TIP3   OH255933   2.226   2.859  16.379 -0.4240 -0.3578  0.9196
11481TIP3    H155934   2.190   2.789  16.434  1.6319 -1.1707  1.3336
11481TIP3    H255935   2.286   2.906  16.437  1.8761 -1.2843 -0.5509
11482TIP3   OH255936   2.497   0.714  16.708 -0.1461  0.3611  0.1250
11482TIP3    H155937   2.588   0.741  16.719  0.3166 -1.0913  0.0176
11482TIP3    H255938   2.489   0.692  16.615 -0.4167 -0.1647  0.2665
11483TIP3   OH255939   0.306   1.345   2.998 -0.0885 -0.2785  0.3708
11483TIP3    H155940   0.243   1.409   2.964 -1.3462 -2.1460 -1.0967
11483TIP3    H255941   0.275   1.325   3.086  0.3772  1.1355  0.8874
11484TIP3   OH255942   2.419   5.099   2.789  1.0001  0.4877 -0.1510
11484TIP3    H155943   2.344   5.144   2.751  1.5508  0.5702 -1.1713
11484TIP3    H255944   2.403   5.102   2.884 -1.0018 -0.7858 -0.3838
11485TIP3   OH255945   0.657   2.699   0.391  0.4442  0.8379  0.0352
11485TIP3    H155946   0.715   2.624   0.374 -0.0179  0.2898  0.7754
11485TIP3    H255947   0.591   2.694   0.322  0.4711  0.6169  0.0231
11486TIP3   OH255948   0.990   3.852   2.237  0.1879  0.3548  0.0930
11486TIP3    H155949   1.060   3.913   2.260 -0.6047  1.4139 -0.1867
11486TIP3    H255950   0.919   3.873   2.299  0.7373 -1.9744  1.6238
11487TIP3   OH255951   2.725   3.378   4.767 -0.3147  0.3694 -0.3273
11487TIP3    H155952   2.727   3.409   4.857 -0.4145  3.0228 -1.1717
11487TIP3    H255953   2.637   3.343   4.756 -0.5494  0.7092  0.3907
11488TIP3   OH255954   1.190   3.904   3.807  0.1471  0.5463 -0.1942
11488TIP3    H155955   1.100   3.870   3.807  0.0245  0.8672  0.0008
11488TIP3    H255956   1.201   3.942   3.894 -0.0613  1.8907 -0.7259
11489TIP3   OH255957   6.732   6.082  11.943  0.0268 -0.2598  0.4987
11489TIP3    H155958   6.803   6.096  12.006  0.0196 -1.5566  0.8298
11489TIP3    H255959   6.741   5.990  11.917 -2.2213 -0.8430  1.4641
11490TIP3   OH255960   0.648   3.110  11.040 -0.1434 -0.4889 -0.8237
11490TIP3    H155961   0.701   3.121  10.961 -1.5043 -2.2542 -2.0621
11490TIP3    H255962   0.648   3.197  11.081  2.6437 -0.1369 -1.3909
11491TIP3   OH255963   1.933   0.676   5.388 -0.1351 -0.1125 -0.6581
11491TIP3    H155964   2.002   0.614   5.364 -0.2381 -0.0597 -1.1086
11491TIP3    H255965   1.854   0.622   5.396 -0.0008 -0.2062  0.0769
11492TIP3   OH255966   2.750   4.460  10.223 -0.1110  0.2190  0.5451
11492TIP3    H155967   2.795   4.375  10.218 -0.8208 -0.1251 -0.2521
11492TIP3    H255968   2.821   4.524  10.225  0.4688 -0.4089  2.3826
11493TIP3   OH255969   0.003   0.368  13.838 -0.2965 -0.0956  0.2093
11493TIP3    H155970   0.074   0.412  13.885 -0.1048 -1.2992  1.0804
11493TIP3    H255971   0.038   0.353  13.751 -0.2771  1.2306 -0.0374
11494TIP3   OH255972   3.133   3.117  12.933 -0.8318 -0.3245 -0.6581
11494TIP3    H155973   3.220   3.157  12.930 -1.4370  1.0428 -1.0336
11494TIP3    H255974   3.115   3.093  12.842  0.1504 -2.9791 -0.2327
11495TIP3   OH255975   2.218   3.212  12.112  0.1931 -0.0011  0.2567
11495TIP3    H155976   2.184   3.301  12.103 -0.6713 -0.5439 -3.3729
11495TIP3    H255977   2.154   3.167  12.165 -0.7955  0.9020 -0.1332
11496TIP3   OH255978   2.036   6.737  16.967 -0.2559 -0.0451 -0.3416
11496TIP3    H155979   2.109   6.730  17.029 -1.6038  0.3431  1.3855
11496TIP3    H255980   2.076   6.762  16.884  1.7376 -1.5530  0.1085
11497TIP3   OH255981   5.230   3.775  14.892  0.1239 -0.5697 -0.0973
11497TIP3    H155982   5.145   3.733  14.907  0.8246 -1.4589  1.5982
11497TIP3    H255983   5.270   3.781  14.978  1.6932  0.0672 -0.8273
11498TIP3   OH255984   0.916   4.810  12.828 -0.0258  0.1699 -0.3262
11498TIP3    H155985   0.977   4.737  12.845  0.4355  0.7307  0.5155
11498TIP3    H255986   0.971   4.877  12.788 -0.3864  0.1820 -0.8091
11499TIP3   OH255987   4.651   6.286  11.765  0.3801 -0.0054 -0.3056
11499TIP3    H155988   4.579   6.222  11.764 -0.5499  0.9648  0.8050
11499TIP3    H255989   4.703   6.265  11.687 -0.6814 -1.2182 -0.7296
11500TIP3   OH255990   2.471   1.952   0.843  0.0102  0.2278 -0.0665
11500TIP3    H155991   2.504   1.862   0.849 -1.3350 -0.2332  0.8929
11500TIP3    H255992   2.546   2.003   0.814  0.5111 -1.3771 -1.8068
11501TIP3   OH255993   6.195   4.421   5.753  0.4176 -0.1861  0.2985
11501TIP3    H155994   6.158   4.342   5.713 -0.1753  1.2488 -2.1284
11501TIP3    H255995   6.258   4.454   5.689  0.7289  1.2902  1.3179
11502TIP3   OH255996   0.905   3.358  15.308  0.0883 -0.0867  0.3140
11502TIP3    H155997   0.845   3.424  15.342  1.3179  0.6660  1.0907
11502TIP3    H255998   0.939   3.395  15.227 -0.4342 -0.4919 -0.1006
11503TIP3   OH255999   5.083   2.328   3.093 -0.0841 -0.2778 -0.3768
11503TIP3    H156000   5.057   2.401   3.149 -0.6422  0.6633 -1.7886
11503TIP3    H256001   5.124   2.370   3.017 -0.0886 -1.4511 -1.0543
11504TIP3   OH256002   6.293   4.893  11.699  0.2264 -0.0625  0.5322
11504TIP3    H156003   6.358   4.827  11.676 -1.1532 -1.1348 -0.4636
11504TIP3    H256004   6.238   4.850  11.765 -0.1283  0.4434  0.5699
11505TIP3   OH256005   4.212   5.914  14.367  0.1568  0.1654  0.2122
11505TIP3    H156006   4.195   5.879  14.454 -1.2929 -0.2574 -0.2033
11505TIP3    H256007   4.220   5.837  14.311  1.1945  0.4280 -0.0317
11506TIP3   OH256008   2.263   6.658  15.083  0.4272  0.2761  0.2417
11506TIP3    H156009   2.212   6.606  15.146  0.7425 -0.5896 -0.1962
11506TIP3    H256010   2.239   6.622  14.998 -0.6091  1.9715 -0.2351
11507TIP3   OH256011   1.451   6.812   1.118  0.0514  0.6809  0.4139
11507TIP3    H156012   1.446   6.846   1.208  0.4718  0.1043  0.6603
11507TIP3    H256013   1.482   6.722   1.128 -0.1573  0.5220 -0.2957
11508TIP3   OH256014   4.737   4.690   0.068  0.2172  0.2452 -0.5119
11508TIP3    H156015   4.812   4.677   0.126 -0.4227 -1.1624  0.0491
11508TIP3    H256016   4.670   4.630   0.101 -2.2189  3.3726  0.7395
11509TIP3   OH256017   2.121   5.713   0.067  0.1556  0.2165 -0.4292
11509TIP3    H156018   2.132   5.764   0.148 -0.8150 -1.4917  0.8514
11509TIP3    H256019   2.046   5.753   0.024 -0.9373 -0.3976  0.8273
11510TIP3   OH256020   6.361   5.109  14.994 -0.0233 -0.6076  0.0352
11510TIP3    H156021   6.301   5.134  15.064 -1.7214 -0.9845 -1.2213
11510TIP3    H256022   6.304   5.078  14.923  1.4280  1.5911 -2.2925
11511TIP3   OH256023   6.401   4.661  12.444 -0.0049  0.5709  0.1218
11511TIP3    H156024   6.489   4.624  12.431 -0.5765 -0.5105 -0.9169
11511TIP3    H256025   6.361   4.604  12.510 -0.2450  0.4693 -0.1087
11512TIP3   OH256026   6.681   6.073   5.307 -0.5607  0.1544  0.2007
11512TIP3    H156027   6.667   6.060   5.401 -0.1030 -0.7669  0.1492
11512TIP3    H256028   6.609   6.131   5.281 -0.7461  0.3574  1.0958
11513TIP3   OH256029   4.418   2.101  14.628  0.2935  0.1276 -0.0461
11513TIP3    H156030   4.427   2.145  14.544 -1.4720 -0.5449 -0.6252
11513TIP3    H256031   4.479   2.028  14.623 -0.0288 -0.0958 -0.8783
11514TIP3   OH256032   3.560   1.944   0.530  0.4714  0.3192  0.2389
11514TIP3    H156033   3.574   2.036   0.552 -1.4465  0.6258  0.3457
11514TIP3    H256034   3.468   1.939   0.505  1.0825 -1.1487 -2.0547
11515TIP3   OH256035   3.259   6.666  14.630  0.6237 -0.3475  0.1753
11515TIP3    H156036   3.231   6.602  14.564  2.4295 -0.9519 -0.0614
11515TIP3    H256037   3.326   6.718  14.586 -0.4263  1.3711  0.5481
11516TIP3   OH256038   5.779   3.995   0.896  0.1306  0.9574  0.4221
11516TIP3    H156039   5.835   3.928   0.935  0.0750  2.2432  2.9360
11516TIP3    H256040   5.703   4.000   0.955  0.4752  3.6859  0.7879
11517TIP3   OH256041   6.435   4.587   2.842  0.2497 -0.5992  0.2082
11517TIP3    H156042   6.395   4.571   2.757 -0.5908  0.6947  0.3315
11517TIP3    H256043   6.454   4.681   2.843  1.6248 -0.8613  0.8800
11518TIP3   OH256044   5.568   2.508  15.966 -0.2387 -0.1395  0.5625
11518TIP3    H156045   5.594   2.595  15.996 -0.9123  0.5978 -0.8752
11518TIP3    H256046   5.573   2.453  16.044 -1.9932  1.6658  2.0678
11519TIP3   OH256047   3.202   1.183   0.930 -0.4211  0.4563  0.1935
11519TIP3    H156048   3.128   1.226   0.887 -1.5015 -1.6269 -0.1913
11519TIP3    H256049   3.171   1.164   1.018 -0.6887 -1.1337 -0.2132
11520TIP3   OH256050   0.177   5.753   3.836  0.1236  0.0159  0.8145
11520TIP3    H156051   0.119   5.692   3.882  0.5131 -0.4599  0.6934
11520TIP3    H256052   0.168   5.729   3.743  0.8033 -0.3269  0.8308
11521TIP3   OH256053   3.819   4.473  12.849  0.1872  0.2359  0.0756
11521TIP3    H156054   3.790   4.511  12.932  0.3201 -1.4794  0.9502
11521TIP3    H256055   3.739   4.462  12.798 -0.3617 -1.6345  1.2634
11522TIP3   OH256056   0.317   5.637  11.269  0.3920 -0.1476  0.0565
11522TIP3    H156057   0.304   5.610  11.178  1.5768 -0.2341 -0.1037
11522TIP3    H256058   0.229   5.657  11.301  0.0605  1.1350 -1.4943
11523TIP3   OH256059   4.423   4.446   2.000  0.0738 -0.5785 -0.5259
11523TIP3    H156060   4.512   4.417   1.983  0.1048 -0.3230 -0.8141
11523TIP3    H256061   4.423   4.539   1.975  0.1815 -0.1105  1.0465
11524TIP3   OH256062   1.858   4.462  15.170 -0.3585 -0.2329  0.3752
11524TIP3    H156063   1.863   4.423  15.083 -1.9555  0.3270  0.0029
11524TIP3    H256064   1.948   4.486  15.191  0.1308 -0.9251 -0.8632
11525TIP3   OH256065   6.791   4.319   3.586  0.6642 -0.1559 -0.4646
11525TIP3    H156066   6.725   4.307   3.517 -0.6182  0.0395  0.6718
11525TIP3    H256067   6.794   4.414   3.598 -0.1024 -0.2536  0.6278
11526TIP3   OH256068   3.805   3.549  16.438  0.0245  0.4547  0.1027
11526TIP3    H156069   3.762   3.556  16.353  1.1520  0.5462 -0.4832
11526TIP3    H256070   3.806   3.455  16.456 -0.9780  0.4989  0.4320
11527TIP3   OH256071   4.668   5.986   0.864  0.1625 -0.1708  0.6330
11527TIP3    H156072   4.576   6.014   0.861  0.6404  1.5477 -1.7482
11527TIP3    H256073   4.671   5.909   0.807  0.4912  1.1804 -1.3055
11528TIP3   OH256074   1.285   5.673   5.254 -0.3481 -0.6023 -0.1299
11528TIP3    H156075   1.219   5.605   5.262 -1.2582 -0.0306 -2.0741
11528TIP3    H256076   1.315   5.667   5.163 -1.5553  2.4870 -0.8773
11529TIP3   OH256077   1.399   1.137  12.479 -0.6565 -0.0434  0.3247
11529TIP3    H156078   1.381   1.080  12.404 -1.5179  0.6395 -0.0111
11529TIP3    H256079   1.449   1.210  12.441  0.0185 -0.3333  0.6575
11530TIP3   OH256080   4.976   3.465  15.405 -0.2941  0.4007 -0.0238
11530TIP3    H156081   5.003   3.549  15.445  0.7250 -0.3915  1.0305
11530TIP3    H256082   4.978   3.403  15.478 -1.3065 -0.4988 -0.7401
11531TIP3   OH256083   6.547   5.010  10.851 -0.1396  0.5128 -0.4003
11531TIP3    H156084   6.543   4.918  10.877 -0.7992  1.0272  1.5392
11531TIP3    H256085   6.456   5.039  10.852  0.1272  1.3717 -0.2243
11532TIP3   OH256086   5.256   2.983  17.041 -0.0011  0.4848  0.1854
11532TIP3    H156087   5.287   3.036  16.968 -0.2483 -0.0016 -0.2836
11532TIP3    H256088   5.309   2.903  17.036  1.5655  1.3324  1.9012
11533TIP3   OH256089   4.955   4.261   5.166 -0.7056  0.2968  0.2193
11533TIP3    H156090   4.999   4.336   5.125  2.6736 -0.3149  2.3152
11533TIP3    H256091   4.890   4.300   5.224 -1.4200  1.3816 -1.2210
11534TIP3   OH256092   4.065   1.749   4.770  0.4978 -0.1286  0.2393
11534TIP3    H156093   4.063   1.689   4.844  1.8185 -0.7863 -0.2125
11534TIP3    H256094   4.008   1.708   4.704  1.8995 -1.2813 -0.3140
11535TIP3   OH256095   2.239   2.739  12.882 -0.1238  0.2100  0.4483
11535TIP3    H156096   2.283   2.785  12.953 -0.5996  1.7010 -0.1937
11535TIP3    H256097   2.166   2.796  12.857  0.5524  0.1853 -1.8518
11536TIP3   OH256098   0.554   6.205  11.445 -0.4073 -0.1786 -0.0956
11536TIP3    H156099   0.556   6.159  11.361 -1.6172 -0.7132  0.1370
11536TIP3    H256100   0.643   6.238  11.457 -0.6728  1.6950 -2.5495
11537TIP3   OH256101   0.572   3.287   3.791  0.1445 -0.1503 -0.2999
11537TIP3    H156102   0.634   3.294   3.863  0.8030 -1.9012 -0.6590
11537TIP3    H256103   0.537   3.375   3.782  1.8763  0.6738  0.5218
11538TIP3   OH256104   0.180   3.040   5.564  0.1909  0.1170 -0.1430
11538TIP3    H156105   0.163   2.960   5.515  1.9680  0.7954 -1.9977
11538TIP3    H256106   0.094   3.074   5.584 -0.6000 -1.2969 -0.9496
11539TIP3   OH256107   5.155   0.077  10.561 -0.2921 -0.2805  0.4360
11539TIP3    H156108   5.150  -0.003  10.615  0.8995 -0.4418  0.3325
11539TIP3    H256109   5.095   0.061  10.489 -0.1416 -1.0480  0.4738
11540TIP3   OH256110   0.944   3.076  15.219  0.4710  0.0566 -0.3252
11540TIP3    H156111   0.954   3.162  15.259  0.3194 -0.1610  0.1852
11540TIP3    H256112   0.924   3.095  15.127 -0.6928  0.5905  0.0204
11541TIP3   OH256113   3.464   0.593  11.664 -0.1002 -0.2971  0.0431
11541TIP3    H156114   3.518   0.625  11.592 -0.1643 -1.3161 -0.4686
11541TIP3    H256115   3.385   0.559  11.622 -2.1810  3.0017  0.8834
11542TIP3   OH256116   5.409   0.847  13.955  0.2615  0.5214 -0.2178
11542TIP3    H156117   5.340   0.870  14.018  0.0201  0.6366 -0.5169
11542TIP3    H256118   5.481   0.907  13.975  1.0420 -0.8702  1.3523
11543TIP3   OH256119   4.072   3.637  14.017 -0.5266  0.0544  0.3095
11543TIP3    H156120   4.051   3.618  13.926  0.9091 -0.2532  0.0165
11543TIP3    H256121   4.141   3.704  14.012  1.7573 -2.1117  1.0238
11544TIP3   OH256122   1.715   0.143  16.434  0.6523  0.1313  0.7677
11544TIP3    H156123   1.627   0.109  16.417  1.0641 -0.2973 -0.7434
11544TIP3    H256124   1.755   0.079  16.492  0.2671 -0.1544  0.7222
11545TIP3   OH256125   5.790   1.952   5.860 -0.0215 -0.0698 -0.0952
11545TIP3    H156126   5.874   1.980   5.824 -0.5446  1.3811 -0.2474
11545TIP3    H256127   5.804   1.949   5.955  0.7190 -1.7327 -0.2080
11546TIP3   OH256128   6.605   2.094   2.982  0.3802  0.2485 -0.0256
11546TIP3    H156129   6.649   2.114   2.899  1.8827 -2.4311  0.0139
11546TIP3    H256130   6.534   2.158   2.987  1.7160  2.0864 -2.1629
11547TIP3   OH256131   3.340   2.056  13.444  0.2021  0.0621 -0.2265
11547TIP3    H156132   3.290   2.032  13.366  0.4216  1.5688 -0.8815
11547TIP3    H256133   3.338   1.979  13.500 -0.3552 -0.8914 -1.5299
11548TIP3   OH256134   1.436   1.872  12.343  0.5479 -0.1694  0.3951
11548TIP3    H156135   1.471   1.923  12.271  0.7009 -0.9394 -0.0890
11548TIP3    H256136   1.344   1.860  12.322 -0.2770  2.4587  2.0173
11549TIP3   OH256137   5.028   6.542   3.333 -0.7587 -0.0075 -0.1460
11549TIP3    H156138   5.076   6.625   3.335 -0.9020  0.0657  1.0989
11549TIP3    H256139   5.094   6.477   3.359 -1.2318  0.0578  1.2995
11550TIP3   OH256140   1.652   4.444  13.919 -0.1678  0.3095  0.4871
11550TIP3    H156141   1.709   4.521  13.916 -0.7417  0.7047 -1.2561
11550TIP3    H256142   1.711   4.370  13.910  0.0926  0.7311 -1.7579
11551TIP3   OH256143   0.196   4.679   0.766  0.5721  0.2828  0.4909
11551TIP3    H156144   0.263   4.626   0.810 -0.0552 -1.2357 -0.3236
11551TIP3    H256145   0.113   4.643   0.797  0.0640  2.4401  1.8484
11552TIP3   OH256146   3.813   1.020   4.631 -0.2337 -0.0175 -0.5560
11552TIP3    H156147   3.824   0.932   4.667  1.4030  0.6483  0.7161
11552TIP3    H256148   3.719   1.038   4.639 -0.1233 -0.3154  2.5415
11553TIP3   OH256149   6.512   5.468  14.701 -0.1033  0.2413 -0.2005
11553TIP3    H156150   6.562   5.388  14.719  0.8431  0.4472 -1.6778
11553TIP3    H256151   6.490   5.503  14.787 -1.3409 -2.0625  0.5194
11554TIP3   OH256152   5.830   1.575   3.604 -0.2105  0.0285  0.0556
11554TIP3    H156153   5.791   1.659   3.627  0.9488  1.0778 -1.5566
11554TIP3    H256154   5.924   1.591   3.606  0.0090 -0.7432 -1.8441
11555TIP3   OH256155   5.102   4.988  11.917  0.4381  0.0918 -0.6724
11555TIP3    H156156   5.054   5.020  11.993 -1.4777 -2.8875 -0.4466
11555TIP3    H256157   5.162   4.923  11.953  1.1049  0.2439 -1.4949
11556TIP3   OH256158   1.847   2.511  15.324  0.0104  0.1787  0.3971
11556TIP3    H156159   1.766   2.561  15.319 -0.6839 -0.9979 -0.5013
11556TIP3    H256160   1.904   2.549  15.257 -0.0107  0.6217  0.6301
11557TIP3   OH256161   3.801   5.089  15.399  0.0162  0.0695  0.2070
11557TIP3    H156162   3.871   5.024  15.396 -1.4202 -1.5324 -1.9108
11557TIP3    H256163   3.797   5.123  15.309 -1.7964  0.2086  0.2997
11558TIP3   OH256164   3.614   3.485  15.062  0.4018  0.7048 -0.5865
11558TIP3    H156165   3.615   3.553  14.995 -0.3893  0.9256 -0.3876
11558TIP3    H256166   3.565   3.413  15.021  0.6996  0.4884 -0.5685
11559TIP3   OH256167   3.684   4.504  14.482 -0.2470 -0.0727 -0.0661
11559TIP3    H156168   3.597   4.522  14.445 -0.2769  0.5751  0.3016
11559TIP3    H256169   3.688   4.557  14.561  0.8860  0.7476 -0.6425
11560TIP3   OH256170   5.369   3.817   5.417  0.1525  0.7680  0.0423
11560TIP3    H156171   5.405   3.846   5.333  0.6462 -1.2078 -0.4740
11560TIP3    H256172   5.274   3.816   5.403  0.2929 -1.4927 -1.2424
11561TIP3   OH256173   1.365   3.584  15.716 -0.4135 -0.3752 -0.0157
11561TIP3    H156174   1.310   3.590  15.639  0.1759  0.3779 -0.3998
11561TIP3    H256175   1.395   3.674  15.731  0.6211 -0.7437  0.2375
11562TIP3   OH256176   3.567   6.039  16.581  0.1957  0.4857  0.1042
11562TIP3    H156177   3.622   6.029  16.659 -1.1877 -1.9149  0.8623
11562TIP3    H256178   3.501   6.104  16.607  0.8725  1.1557  0.2069
11563TIP3   OH256179   6.115   2.761  11.259 -0.0999 -0.3711 -0.4204
11563TIP3    H156180   6.180   2.720  11.201  1.9029 -1.4314  2.3796
11563TIP3    H256181   6.167   2.806  11.325 -2.1305 -1.6250  2.2281
11564TIP3   OH256182   4.385   2.720  14.283 -1.0779  0.7617  0.2156
11564TIP3    H156183   4.439   2.799  14.283 -0.2126  0.2077 -1.2771
11564TIP3    H256184   4.312   2.741  14.224 -0.7533  0.4052 -0.3234
11565TIP3   OH256185   2.503   3.568  15.581 -0.4278 -0.3058  0.9199
11565TIP3    H156186   2.585   3.540  15.621 -0.5360 -0.1545  1.2592
11565TIP3    H256187   2.437   3.508  15.616 -0.7058  0.5189  1.8734
11566TIP3   OH256188   6.350   2.506   1.866 -0.1616 -0.1634 -0.0877
11566TIP3    H156189   6.442   2.501   1.889 -0.6457  1.1091  2.4120
11566TIP3    H256190   6.348   2.486   1.772  2.5535 -0.7404 -0.1094
11567TIP3   OH256191   4.127   5.234  13.025 -0.2051 -0.3841 -0.3575
11567TIP3    H156192   4.150   5.152  12.981  2.1135  1.1277 -2.2502
11567TIP3    H256193   4.083   5.286  12.957  1.4478  1.1766 -0.3120
11568TIP3   OH256194   0.001   6.549   0.188  0.3004  0.1646  0.7670
11568TIP3    H156195   0.090   6.527   0.163  0.0810  0.0554  0.0543
11568TIP3    H256196  -0.038   6.587   0.109  0.0974  1.3739  1.4355
11569TIP3   OH256197   4.954   6.627  12.469 -0.2951  0.0364  0.0749
11569TIP3    H156198   4.894   6.658  12.402 -0.5536  0.5325  0.5340
11569TIP3    H256199   4.926   6.670  12.550 -0.9118 -1.6725  0.8204
11570TIP3   OH256200   6.322   4.992   1.850 -0.7203 -0.3592  0.1940
11570TIP3    H156201   6.399   4.969   1.903 -0.8492  1.4335  1.2512
11570TIP3    H256202   6.308   4.916   1.794  1.2368 -1.1234  0.6512
11571TIP3   OH256203   3.583   6.288  12.474 -0.2373  0.1392 -0.4662
11571TIP3    H156204   3.643   6.280  12.399 -1.7730  1.1532 -1.8661
11571TIP3    H256205   3.590   6.380  12.500 -0.3890  0.0027  0.0555
11572TIP3   OH256206   6.206   4.506   0.532 -0.7073 -0.2157 -0.0547
11572TIP3    H156207   6.281   4.498   0.472  1.0116 -0.0861  1.9771
11572TIP3    H256208   6.156   4.580   0.497  0.3906  0.0404 -1.1632
11573TIP3   OH256209   5.875   4.635  14.305 -0.4670 -0.6243 -0.5002
11573TIP3    H156210   5.961   4.614  14.269 -0.2960  0.1480 -0.5640
11573TIP3    H256211   5.846   4.711  14.254  1.0987  2.5439  2.8397
11574TIP3   OH256212   2.683   1.354  11.302 -0.1445  0.5447 -0.4293
11574TIP3    H156213   2.611   1.379  11.243 -0.3270  0.9597 -0.0292
11574TIP3    H256214   2.751   1.418  11.284 -0.1349  0.5673 -0.3080
11575TIP3   OH256215   6.852   6.202  13.442  0.1904 -0.8643 -0.8594
11575TIP3    H156216   6.812   6.142  13.379 -3.6875  0.3648  0.1131
11575TIP3    H256217   6.889   6.272  13.388 -1.6587 -0.6197 -1.9068
11576TIP3   OH256218   3.029   0.528  14.287 -0.0668 -0.7489  0.3245
11576TIP3    H156219   2.968   0.555  14.356  0.9637 -0.2641  1.0642
11576TIP3    H256220   3.020   0.594  14.219 -0.1304 -0.5028  0.5716
11577TIP3   OH256221   5.568   5.683   5.257  0.0402  0.9201 -0.0344
11577TIP3    H156222   5.605   5.766   5.288 -0.9564  1.5198 -0.3928
11577TIP3    H256223   5.598   5.618   5.321  1.7880  1.3415 -0.3750
11578TIP3   OH256224   0.204   3.188   1.599 -0.0940 -0.4423  1.1626
11578TIP3    H156225   0.233   3.241   1.525 -0.5455  0.6495  1.7494
11578TIP3    H256226   0.276   3.126   1.614  0.2185 -0.3398  0.1458
11579TIP3   OH256227   1.921   6.048  16.381  0.0456  0.1620 -0.1295
11579TIP3    H156228   1.971   5.971  16.356 -1.2407 -0.3776 -1.1601
11579TIP3    H256229   1.838   6.013  16.415 -0.3480  1.0765 -0.1246
11580TIP3   OH256230   2.220   1.124   0.444  0.1865  0.0998  0.2234
11580TIP3    H156231   2.257   1.055   0.499  0.1772 -0.8056 -0.8637
11580TIP3    H256232   2.241   1.205   0.490  0.7647 -0.5862  1.2114
11581TIP3   OH256233   5.266   4.723   2.616 -0.4097  0.0898  0.5182
11581TIP3    H156234   5.250   4.768   2.699  2.1183 -0.4420  1.3588
11581TIP3    H256235   5.266   4.793   2.551 -1.7985  0.5885  1.0148
11582TIP3   OH256236   0.220   4.514   1.249  0.4564  0.3224  0.7153
11582TIP3    H156237   0.132   4.528   1.286 -0.1880  1.1059 -1.0089
11582TIP3    H256238   0.272   4.587   1.283  0.8509 -0.8666  2.8172
11583TIP3   OH256239   1.439   5.702   5.010  0.6297  0.3961  0.1264
11583TIP3    H156240   1.503   5.632   4.998  1.5055  1.4835 -2.1406
11583TIP3    H256241   1.385   5.699   4.931 -1.4437  0.2399  1.4831
11584TIP3   OH256242   6.828   2.904   6.384 -0.3780  0.0842  0.1183
11584TIP3    H156243   6.773   2.936   6.313  1.0979  0.6245 -0.8408
11584TIP3    H256244   6.768   2.861   6.445 -1.7717  0.2669 -1.0920
11585TIP3   OH256245   2.980   4.838   2.045  0.4562  0.0835  0.5317
11585TIP3    H156246   2.926   4.917   2.038  1.3867  0.6540 -0.8000
11585TIP3    H256247   2.928   4.770   2.003  0.7726  0.6549 -0.8554
11586TIP3   OH256248   0.687   4.716   1.637  0.5729  0.4730  0.6142
11586TIP3    H156249   0.697   4.794   1.693  0.4031  0.2517  0.9570
11586TIP3    H256250   0.776   4.693   1.613  0.6381  0.6647  0.6676
11587TIP3   OH256251   0.871   0.908  13.216  0.6344 -0.0895  0.3319
11587TIP3    H156252   0.904   0.936  13.301  1.1798  1.3237 -0.3131
11587TIP3    H256253   0.906   0.972  13.154  0.0175 -0.9214 -0.9256
11588TIP3   OH256254   1.326   1.918  16.881 -0.2770  0.3323 -0.3528
11588TIP3    H156255   1.366   1.983  16.824 -1.3919  0.3491 -1.1360
11588TIP3    H256256   1.391   1.905  16.951  0.8502  0.7375 -1.2918
11589TIP3   OH256257   5.777   4.955   1.524 -0.2203  0.3614 -0.4108
11589TIP3    H156258   5.800   5.046   1.507 -0.6104  0.3187 -1.2198
11589TIP3    H256259   5.693   4.959   1.571 -0.8218  0.4057 -1.4516
11590TIP3   OH256260   2.731   2.913   2.340 -0.2967 -0.3373 -0.0850
11590TIP3    H156261   2.638   2.891   2.334 -0.1855 -0.3841 -2.2541
11590TIP3    H256262   2.777   2.831   2.321  0.2323 -0.3635  1.1710
11591TIP3   OH256263   2.564   5.063  12.122 -0.1735  0.2464  0.2634
11591TIP3    H156264   2.537   5.152  12.147 -0.4851  0.0215  0.7201
11591TIP3    H256265   2.620   5.077  12.045 -0.7531  0.7907 -0.0677
11592TIP3   OH256266   1.979   0.067   3.255 -0.5193 -0.3865 -0.0686
11592TIP3    H156267   1.957   0.160   3.265 -0.9774 -0.6152  1.1828
11592TIP3    H256268   2.073   0.063   3.271 -0.2868 -0.0074 -1.2048
11593TIP3   OH256269   3.623   3.971  12.135 -0.4692 -0.0197 -0.7938
11593TIP3    H156270   3.603   3.926  12.217  1.8937  1.9676  1.0398
11593TIP3    H256271   3.627   3.901  12.069 -1.1168 -1.8642  1.0182
11594TIP3   OH256272   4.786   4.047  13.582 -0.1434  0.4107 -0.2269
11594TIP3    H156273   4.846   4.065  13.655  0.1177  3.3860 -1.0359
11594TIP3    H256274   4.831   4.083  13.505 -2.9246  2.9145 -0.8497
11595TIP3   OH256275   0.638   5.746  12.831  0.1505 -0.4923 -0.3598
11595TIP3    H156276   0.585   5.689  12.776 -1.4992 -0.0008  0.6452
11595TIP3    H256277   0.653   5.696  12.911 -3.9812  1.3536  1.8980
11596TIP3   OH256278   4.132   1.924  16.061  0.2756  0.3510  0.8653
11596TIP3    H156279   4.047   1.913  16.018  0.6199  0.9700  0.0175
11596TIP3    H256280   4.186   1.854  16.025  1.0266  1.7710 -0.9302
11597TIP3   OH256281   1.277   5.165   1.522  0.7934  0.0619 -0.7792
11597TIP3    H156282   1.325   5.122   1.593 -1.3038 -2.0126 -0.5045
11597TIP3    H256283   1.223   5.231   1.566  0.4546 -0.3307 -0.6062
11598TIP3   OH256284   6.828   5.536  10.975 -0.7553 -0.0222  0.1092
11598TIP3    H156285   6.785   5.534  11.060  0.1951 -0.2397  0.6069
11598TIP3    H256286   6.839   5.629  10.956 -0.3114  0.0287  0.5823
11599TIP3   OH256287   5.506   1.248  14.694 -0.1322  0.1467 -0.1097
11599TIP3    H156288   5.514   1.260  14.788  0.9788 -0.6072 -0.0928
11599TIP3    H256289   5.469   1.160  14.684 -0.4934  0.3249 -0.3816
11600TIP3   OH256290   4.316   3.081   2.645  0.6191 -0.9773  0.5506
11600TIP3    H156291   4.288   3.115   2.729 -0.1470 -1.4783  0.5037
11600TIP3    H256292   4.320   3.157   2.588  2.0267 -0.4899  1.2579
11601TIP3   OH256293   3.769   5.546  14.748  0.4153 -0.2600 -0.5154
11601TIP3    H156294   3.705   5.603  14.706  0.4710 -0.4724 -0.8949
11601TIP3    H256295   3.735   5.533  14.836  0.3703  0.3046 -0.4438
11602TIP3   OH256296   3.671   6.542  12.644 -0.6966 -0.2379 -0.1505
11602TIP3    H156297   3.757   6.548  12.686 -0.1485  2.0965 -1.4580
11602TIP3    H256298   3.609   6.566  12.712 -0.1129  0.2122  0.2289
11603TIP3   OH256299   0.737   2.427   0.304  0.2125  0.4082  0.3655
11603TIP3    H156300   0.739   2.412   0.210  1.2432  0.9505  0.2913
11603TIP3    H256301   0.822   2.396   0.336 -1.1593 -2.4297  1.5626
11604TIP3   OH256302   6.243   2.337  16.098  0.0739 -0.3982 -0.4062
11604TIP3    H156303   6.177   2.311  16.162 -0.5329  0.4065 -0.6928
11604TIP3    H256304   6.324   2.345  16.149 -0.2238 -0.5995  0.1014
11605TIP3   OH256305   5.366   4.106   0.501 -0.5738  0.0517 -0.0641
11605TIP3    H156306   5.416   4.179   0.537  0.8192 -1.2969  0.8425
11605TIP3    H256307   5.400   4.095   0.412 -1.3726  1.0198 -0.4941
11606TIP3   OH256308   2.544   5.475   5.265 -0.0008 -0.5447 -0.1968
11606TIP3    H156309   2.619   5.508   5.216  0.3430 -0.6729  0.2449
11606TIP3    H256310   2.490   5.432   5.198  0.1243 -0.1236 -0.5764
11607TIP3   OH256311   4.490   3.656   3.888  0.5285 -0.5771 -0.4054
11607TIP3    H156312   4.436   3.691   3.958 -0.2102  2.3133 -2.2440
11607TIP3    H256313   4.580   3.668   3.919  0.2382  1.3620 -0.1979
11608TIP3   OH256314   1.718   5.154   1.726  0.1875  0.1983 -0.7707
11608TIP3    H156315   1.793   5.096   1.740  1.7543  2.3836  0.5040
11608TIP3    H256316   1.656   5.101   1.677  1.2122 -2.7627  0.8646
11609TIP3   OH256317   4.587   2.936   3.147 -0.7334 -0.3843  0.4124
11609TIP3    H156318   4.608   3.025   3.175  3.1721 -1.1566  0.4987
11609TIP3    H256319   4.633   2.925   3.064  0.0607 -2.6992  1.0670
11610TIP3   OH256320   6.280   2.493  15.717 -0.0584 -0.1006 -0.3521
11610TIP3    H156321   6.367   2.459  15.738 -0.1515 -1.2754 -1.6795
11610TIP3    H256322   6.279   2.581  15.753  2.3474  0.6312 -1.8205
11611TIP3   OH256323   1.198   1.213   2.476 -0.1333 -0.5787  0.1557
11611TIP3    H156324   1.147   1.280   2.431 -1.5834 -1.3112  0.6570
11611TIP3    H256325   1.249   1.170   2.407  1.1358  1.2580 -0.1173
11612TIP3   OH256326   3.732   1.796   5.220  0.3840 -0.0395  0.9932
11612TIP3    H156327   3.810   1.839   5.186 -0.2159 -0.3076 -0.8491
11612TIP3    H256328   3.665   1.864   5.219 -0.2949 -0.6654 -0.9228
11613TIP3   OH256329   3.563   1.134  12.518  0.1766  0.1952  0.5627
11613TIP3    H156330   3.589   1.214  12.472  1.2730 -1.2075 -1.4493
11613TIP3    H256331   3.550   1.070  12.448 -0.1196 -1.5433  2.1265
11614TIP3   OH256332   3.462   2.993   5.743  0.1280  0.1808  1.1582
11614TIP3    H156333   3.433   3.002   5.653  0.7154  0.2033  0.9700
11614TIP3    H256334   3.444   2.901   5.765 -1.9834  0.6555  1.7252
11615TIP3   OH256335   4.490   2.051  16.140 -0.5083  0.1198  0.6104
11615TIP3    H156336   4.522   2.033  16.228  0.6796 -0.7505  0.0330
11615TIP3    H256337   4.546   2.122  16.108 -2.6743  2.3686  1.4735
11616TIP3   OH256338   0.114   0.524   4.672  0.0526 -0.1911  0.2561
11616TIP3    H156339   0.074   0.566   4.596  0.0879 -0.1778  0.2445
11616TIP3    H256340   0.048   0.463   4.704  0.1492 -0.4074  0.0425
11617TIP3   OH256341   1.510   5.308   3.943 -0.3223  0.8254  0.1163
11617TIP3    H156342   1.427   5.353   3.932  0.6367  3.6754  3.0183
11617TIP3    H256343   1.572   5.357   3.889 -0.1851 -0.2830 -0.7641
11618TIP3   OH256344   0.849   3.451   4.323 -0.1748  0.3613  0.4726
11618TIP3    H156345   0.760   3.416   4.313 -0.0023 -0.3085  1.2053
11618TIP3    H256346   0.906   3.379   4.298  0.1827  1.3213 -1.6630
11619TIP3   OH256347   1.918   4.454   2.288 -0.6222  0.6623  0.6211
11619TIP3    H156348   1.937   4.371   2.331 -1.0307  0.8821  1.2394
11619TIP3    H256349   1.931   4.436   2.195  0.5351  0.2564  0.8512
11620TIP3   OH256350   3.537   0.027  16.281 -0.1167  0.3073 -0.4037
11620TIP3    H156351   3.456   0.078  16.278  0.5928  1.4133 -1.3461
11620TIP3    H256352   3.599   0.083  16.327 -0.2362 -1.1193  1.6176
11621TIP3   OH256353   0.850   6.320   5.130  0.5397 -0.2672 -0.2152
11621TIP3    H156354   0.912   6.262   5.085  0.7191  0.2015 -0.5905
11621TIP3    H256355   0.773   6.266   5.145  1.0321 -0.8649  0.2605
11622TIP3   OH256356   1.540   3.571  12.382 -0.0689 -0.1023  0.1452
11622TIP3    H156357   1.490   3.508  12.435 -0.0083 -0.2651  0.0091
11622TIP3    H256358   1.537   3.535  12.293  0.6158 -0.3142  0.2076
11623TIP3   OH256359   6.424   6.202   3.528 -0.0266  0.5131  0.0500
11623TIP3    H156360   6.362   6.244   3.468 -0.6880 -0.0756  0.3116
11623TIP3    H256361   6.510   6.219   3.489 -0.4789 -0.4530 -1.4518
11624TIP3   OH256362   4.307   6.448  15.459 -0.5998 -0.2548 -0.2016
11624TIP3    H156363   4.253   6.515  15.503 -1.4333 -1.2108  0.2732
11624TIP3    H256364   4.338   6.491  15.380  0.6261  1.3994  1.0966
11625TIP3   OH256365   3.666   3.364   5.475 -0.2205 -0.5444  0.0024
11625TIP3    H156366   3.570   3.363   5.472 -0.2124 -0.3527 -0.5043
11625TIP3    H256367   3.690   3.282   5.518 -0.6961  1.1020  3.7611
11626TIP3   OH256368   4.600   6.018   2.940  0.1113  0.5961 -0.5989
11626TIP3    H156369   4.546   6.006   2.862 -0.9856  0.4577  0.1680
11626TIP3    H256370   4.538   6.030   3.011  1.1052  1.1018  0.2059
11627TIP3   OH256371   5.623   5.813  13.568  0.1308  0.2536 -0.9987
11627TIP3    H156372   5.689   5.874  13.538  0.7397  0.9377  1.5358
11627TIP3    H256373   5.549   5.868  13.594  0.0491 -0.1925 -0.2534
11628TIP3   OH256374   3.436   4.255   0.406 -0.2592  0.6504  0.0817
11628TIP3    H156375   3.482   4.264   0.490 -1.5187  0.2150  0.8443
11628TIP3    H256376   3.504   4.270   0.340  1.6158 -2.4267  1.0880
11629TIP3   OH256377   1.508   0.955   3.206  0.2294  0.0069  0.2478
11629TIP3    H156378   1.461   1.007   3.271  0.8842 -1.5844  2.0703
11629TIP3    H256379   1.505   0.866   3.240  3.0147 -0.4463 -0.4686
11630TIP3   OH256380   1.305   6.116  12.714  0.6543 -0.1089  0.7811
11630TIP3    H156381   1.313   6.124  12.810  0.8727 -0.4766  0.7926
11630TIP3    H256382   1.294   6.207  12.684 -0.5599 -0.0819  1.2514
11631TIP3   OH256383   5.626   4.385   3.577  0.4467  0.0590  0.0598
11631TIP3    H156384   5.569   4.460   3.593 -2.3135 -1.4484 -1.9483
11631TIP3    H256385   5.627   4.338   3.660  1.6979  1.8941  1.1517
11632TIP3   OH256386   2.524   0.883  13.421  0.0691 -0.3140  0.5820
11632TIP3    H156387   2.571   0.961  13.389 -1.3954  1.1370  1.7750
11632TIP3    H256388   2.492   0.909  13.507 -0.5810 -2.2368  0.9681
11633TIP3   OH256389   6.633   0.554  13.848 -0.0339  0.9086 -1.1681
11633TIP3    H156390   6.608   0.548  13.940  0.5032  0.4288 -1.0460
11633TIP3    H256391   6.693   0.481  13.835 -1.0984  0.1809 -2.2268
11634TIP3   OH256392   2.440   0.538   3.443  0.7859 -0.2069 -0.3335
11634TIP3    H156393   2.474   0.563   3.357  1.0043 -1.8414 -0.7485
11634TIP3    H256394   2.493   0.463   3.469 -0.5182 -0.9089  0.3834
11635TIP3   OH256395   6.060   0.108   2.186 -0.4552 -0.2752  0.6021
11635TIP3    H156396   6.040   0.153   2.104 -0.0822 -0.6572  0.2910
11635TIP3    H256397   6.005   0.151   2.252 -2.7434 -1.6621 -0.2950
11636TIP3   OH256398   6.041   3.757   5.458  0.0326 -0.3565 -0.2045
11636TIP3    H156399   6.098   3.708   5.400  1.5246  0.8507  0.1796
11636TIP3    H256400   5.990   3.814   5.400 -1.3193 -1.9043 -0.6015
11637TIP3   OH256401   2.296   1.383   2.533  0.4992 -0.0080  0.3804
11637TIP3    H156402   2.267   1.368   2.442  2.9420 -1.1034 -0.3033
11637TIP3    H256403   2.378   1.334   2.540  0.0917 -0.4198  3.3901
11638TIP3   OH256404   1.471   6.161  15.565  0.5142 -0.4835 -0.0792
11638TIP3    H156405   1.504   6.074  15.584  0.8008 -0.1931  0.8354
11638TIP3    H256406   1.518   6.218  15.626 -0.3806  0.1760  0.0181
11639TIP3   OH256407   3.907   1.148   0.968 -0.5412  0.1805 -0.5758
11639TIP3    H156408   3.973   1.172   1.033  0.8069  0.3603 -1.9784
11639TIP3    H256409   3.888   1.056   0.986 -0.1184  0.2011  0.0059
11640TIP3   OH256410   5.592   1.372  10.638  0.0406  0.2729 -0.2012
11640TIP3    H156411   5.595   1.277  10.633 -0.9025  0.2540 -0.7178
11640TIP3    H256412   5.563   1.400  10.551 -0.3366  0.9814  0.1427
11641TIP3   OH256413   1.258   2.913  12.418  0.3260 -0.1440 -0.1003
11641TIP3    H156414   1.242   2.822  12.393  1.7428 -0.1136 -1.2313
11641TIP3    H256415   1.352   2.918  12.434  0.0447  0.7827  1.5206
11642TIP3   OH256416   2.163   4.401   2.380 -0.0174 -0.6142  0.3556
11642TIP3    H156417   2.115   4.474   2.341  0.1935 -1.1487 -0.9936
11642TIP3    H256418   2.198   4.435   2.462 -1.7410  0.1245  0.8179
11643TIP3   OH256419   3.516   0.547  16.555 -0.3638 -0.4643  0.2441
11643TIP3    H156420   3.554   0.582  16.636 -0.8255  1.1272 -0.1777
11643TIP3    H256421   3.515   0.452  16.567  4.5029 -0.7926 -0.0306
11644TIP3   OH256422   6.498   3.848   0.208 -0.2067  0.0121  0.5152
11644TIP3    H156423   6.548   3.872   0.286  1.7571 -2.0429  0.0078
11644TIP3    H256424   6.427   3.794   0.242  0.6060 -0.8301  0.9315
11645TIP3   OH256425   0.081   1.517  10.872 -0.1301 -0.1928 -1.0140
11645TIP3    H156426   0.044   1.510  10.960  1.4683  0.1934 -0.2680
11645TIP3    H256427   0.010   1.491  10.814 -0.6047 -2.5548  0.4737
11646TIP3   OH256428   0.640   2.148  15.609  0.4292  0.6470 -0.2368
11646TIP3    H156429   0.676   2.128  15.695 -0.1783 -1.4262 -0.4042
11646TIP3    H256430   0.568   2.209  15.625  0.4790  0.4719  0.6883
11647TIP3   OH256431   4.165   0.647   0.178  0.8189  0.0176  0.2335
11647TIP3    H156432   4.250   0.623   0.143  0.8572  1.0444 -0.4335
11647TIP3    H256433   4.176   0.738   0.207 -0.3453  0.5707 -0.9578
11648TIP3   OH256434   2.125   3.243  15.402  0.6472  0.7477  0.0819
11648TIP3    H156435   2.048   3.186  15.404  1.0680  0.0845 -1.5543
11648TIP3    H256436   2.196   3.187  15.372  1.3994  1.7944 -0.1478
11649TIP3   OH256437   3.214   5.289  12.552  0.1345 -0.0267  0.0306
11649TIP3    H156438   3.254   5.305  12.467  0.2378  0.3760  0.1494
11649TIP3    H256439   3.167   5.206  12.542  0.9932 -0.5041 -0.1091
11650TIP3   OH256440   6.350   3.764   3.526 -0.4330  0.5437  0.3443
11650TIP3    H156441   6.258   3.763   3.552 -0.1567  0.3107  1.3839
11650TIP3    H256442   6.392   3.701   3.585  0.2270 -0.0981 -0.7795
11651TIP3   OH256443   0.651   0.524  10.518 -0.4338  0.5272 -0.1352
11651TIP3    H156444   0.717   0.470  10.473  0.5787  1.9871 -0.4674
11651TIP3    H256445   0.568   0.500  10.476 -0.1588 -1.4071  0.3488
11652TIP3   OH256446   6.654   0.677  13.267  0.4260  0.1171  0.6007
11652TIP3    H156447   6.719   0.662  13.199 -0.1627  0.8751 -0.1460
11652TIP3    H256448   6.698   0.732  13.331  0.1377  1.7978 -0.5787
11653TIP3   OH256449   0.796   1.267   0.312  0.0226  0.1990 -0.4288
11653TIP3    H156450   0.875   1.215   0.304  0.6362  0.7883  1.3004
11653TIP3    H256451   0.741   1.218   0.373  0.8549  1.7668  1.6924
11654TIP3   OH256452   4.596   3.511   5.434  0.0478 -0.9540 -0.1162
11654TIP3    H156453   4.570   3.500   5.526 -0.2715 -0.1991 -0.1102
11654TIP3    H256454   4.635   3.427   5.410 -1.4154 -1.7500  0.2019
11655TIP3   OH256455   4.126   1.848   1.257 -0.0819 -0.0030 -0.4699
11655TIP3    H156456   4.203   1.901   1.278 -1.2051  1.7344 -0.5111
11655TIP3    H256457   4.069   1.907   1.209 -0.7039 -1.7885 -2.0272
11656TIP3   OH256458   3.130   4.450   1.036  0.1998  0.7181 -0.1251
11656TIP3    H156459   3.053   4.501   1.061  0.1937  0.5245  0.2604
11656TIP3    H256460   3.149   4.396   1.113 -0.9328 -1.2576 -1.1553
11657TIP3   OH256461   4.759   2.975  11.005  0.1547  0.2260  0.5517
11657TIP3    H156462   4.727   2.899  10.957  0.0224 -0.8289  2.2219
11657TIP3    H256463   4.854   2.965  11.007  0.1101 -0.1321  1.1163
11658TIP3   OH256464   2.334   2.504  14.835  0.0226 -0.6634 -0.3605
11658TIP3    H156465   2.269   2.530  14.900 -0.3854 -2.0364 -0.1890
11658TIP3    H256466   2.410   2.479  14.886  0.6236  0.6514 -0.5496
11659TIP3   OH256467   2.534   1.233   1.467 -0.5682 -0.0424 -0.1317
11659TIP3    H156468   2.570   1.321   1.459  0.8512 -0.4367  1.3303
11659TIP3    H256469   2.440   1.243   1.450 -1.0455  2.3141  3.1255
11660TIP3   OH256470   3.850   6.544  15.495  0.4507 -0.4748 -0.5569
11660TIP3    H156471   3.794   6.469  15.476 -1.8699  0.9792  0.1402
11660TIP3    H256472   3.850   6.594  15.413 -0.6278  0.3171 -0.0973
11661TIP3   OH256473   3.793   0.666  15.826 -0.0657 -0.4651  0.6369
11661TIP3    H156474   3.792   0.761  15.819  0.8284 -0.2321  2.7837
11661TIP3    H256475   3.794   0.649  15.920 -1.6491 -2.6531  0.3327
11662TIP3   OH256476   2.124   6.432  13.849 -0.2071 -0.5191  0.4332
11662TIP3    H156477   2.210   6.408  13.815 -0.9651 -0.9988 -1.2548
11662TIP3    H256478   2.101   6.359  13.907 -0.3980 -1.5093 -0.8413
11663TIP3   OH256479   4.415   2.239  15.279 -0.1021  0.1193  0.2290
11663TIP3    H156480   4.423   2.221  15.373  1.1465 -1.2492 -0.1161
11663TIP3    H256481   4.446   2.159  15.236  1.2520  1.4182 -1.3592
11664TIP3   OH256482   6.185   6.534   0.466 -0.3742 -0.3925  0.0452
11664TIP3    H156483   6.128   6.458   0.481 -0.8541  0.1565  1.0649
11664TIP3    H256484   6.126   6.609   0.468 -0.0234 -0.0176 -1.7212
11665TIP3   OH256485   4.150   4.162  12.481  0.6366 -0.5219  0.2316
11665TIP3    H156486   4.090   4.098  12.520 -0.5669  0.2873 -0.2186
11665TIP3    H256487   4.113   4.247  12.507  0.3717  0.0233 -1.8068
11666TIP3   OH256488   6.435   3.723   4.545 -0.0018  0.0500  0.3475
11666TIP3    H156489   6.489   3.667   4.601 -1.3906 -1.5504  0.1285
11666TIP3    H256490   6.418   3.801   4.599  1.2174 -0.0961  0.9800
11667TIP3   OH256491   6.572   2.300  14.712 -0.1858 -0.0828  0.4025
11667TIP3    H156492   6.661   2.328  14.733 -0.4628  0.2641  1.1227
11667TIP3    H256493   6.537   2.370  14.657  0.0639 -0.3466 -0.1118
11668TIP3   OH256494   1.973   1.896   3.369 -0.6864  0.3656 -0.2124
11668TIP3    H156495   2.057   1.941   3.372  0.4260 -1.6161  1.9088
11668TIP3    H256496   1.943   1.908   3.279  0.9474  2.6951 -0.5309
11669TIP3   OH256497   5.269   3.859   2.370 -0.2768 -0.5198  0.5236
11669TIP3    H156498   5.291   3.856   2.277 -0.2886 -0.9771  0.5354
11669TIP3    H256499   5.350   3.833   2.414 -0.5678 -1.2903  0.6034
11670TIP3   OH256500   5.764   2.965  15.470 -0.0035 -0.1206  0.3240
11670TIP3    H156501   5.800   3.000  15.389 -0.9961 -1.1880 -0.6266
11670TIP3    H256502   5.729   3.041  15.516  0.9135  0.5482 -0.0449
11671TIP3   OH256503   2.213   5.932   5.245 -0.1820  0.0047 -0.3227
11671TIP3    H156504   2.285   5.872   5.267  0.4935  1.5203  2.0973
11671TIP3    H256505   2.136   5.876   5.237  0.6378 -1.3243  0.6441
11672TIP3   OH256506   2.311   3.179  15.813 -0.4481  0.0409  0.0271
11672TIP3    H156507   2.251   3.198  15.886  1.0010 -0.9089  1.5234
11672TIP3    H256508   2.282   3.094  15.780 -0.0764 -0.3139  0.6035
11673TIP3   OH256509   3.303   5.006   4.105 -0.5591 -0.5687  0.4994
11673TIP3    H156510   3.211   5.021   4.085 -0.2951 -0.5287 -0.7635
11673TIP3    H256511   3.302   4.936   4.170 -1.4912 -0.2940  0.7934
11674TIP3   OH256512   4.855   4.800  12.006 -0.2148 -0.4084  0.0049
11674TIP3    H156513   4.886   4.720  11.964 -1.5127 -1.4351  0.9014
11674TIP3    H256514   4.775   4.823  11.958  0.6735  0.9487 -0.8843
11675TIP3   OH256515   3.756   3.617   5.194 -0.2649 -0.3318  0.0437
11675TIP3    H156516   3.689   3.641   5.259 -1.7196 -1.6406 -0.8820
11675TIP3    H256517   3.713   3.550   5.141  1.9278 -1.4446 -0.4056
11676TIP3   OH256518   3.869   0.844  14.048  0.1649  0.1982  0.0161
11676TIP3    H156519   3.866   0.828  14.142  1.0938 -2.8640 -0.3556
11676TIP3    H256520   3.945   0.794  14.017  0.4358  1.8359 -2.2749
11677TIP3   OH256521   1.110   6.657   6.573  0.5278  0.1459  0.2745
11677TIP3    H156522   1.052   6.729   6.597  0.4152 -0.5410  2.2365
11677TIP3    H256523   1.147   6.683   6.489 -1.2242  1.4396 -0.1498
11678TIP3   OH256524   2.227   2.744   5.491 -0.3280 -0.4191  0.4732
11678TIP3    H156525   2.309   2.763   5.445  1.0633 -0.5671  2.7395
11678TIP3    H256526   2.189   2.830   5.508 -1.6690 -0.4027 -2.2000
11679TIP3   OH256527   3.642   5.585  17.065 -0.3188  0.3597  0.4310
11679TIP3    H156528   3.601   5.503  17.036 -1.8847  1.1224  0.3911
11679TIP3    H256529   3.675   5.625  16.985 -2.2058  1.1438 -0.0287
11680TIP3   OH256530   2.083   6.570  13.216  0.1771  0.2933  0.1886
11680TIP3    H156531   2.043   6.616  13.143  0.4272 -1.8057 -1.3389
11680TIP3    H256532   2.161   6.529  13.180  2.0835  1.7082  2.3854
11681TIP3   OH256533   0.938   2.965  16.317  0.1644  0.0316  0.3443
11681TIP3    H156534   0.901   3.039  16.268 -1.0153 -1.6788 -1.5047
11681TIP3    H256535   0.861   2.913  16.341  1.1081 -1.8693 -0.6070
11682TIP3   OH256536   5.366   1.052   4.275  0.8463  0.0670 -0.1969
11682TIP3    H156537   5.433   0.985   4.286  0.6612 -0.1803 -0.5599
11682TIP3    H256538   5.400   1.109   4.205  1.5654  1.0639  0.9311
11683TIP3   OH256539   3.474   3.914   3.613 -0.3605  0.3323 -0.3732
11683TIP3    H156540   3.563   3.944   3.633 -0.1927 -1.7334  2.6664
11683TIP3    H256541   3.486   3.844   3.549 -0.0851  1.6560 -1.8203
11684TIP3   OH256542   4.845   5.108  16.812  0.1206  0.3219  0.0319
11684TIP3    H156543   4.898   5.188  16.810 -0.5484  0.7788  0.0684
11684TIP3    H256544   4.850   5.079  16.903  0.6996  0.0844 -0.0682
11685TIP3   OH256545   5.839   6.483  15.847 -0.0611 -0.0575  0.5700
11685TIP3    H156546   5.753   6.516  15.822 -0.8039 -0.6318  2.1862
11685TIP3    H256547   5.848   6.400  15.802 -1.2735 -0.9730  1.9098
11686TIP3   OH256548   0.758   3.465  14.027  0.1113 -0.1899  0.3161
11686TIP3    H156549   0.763   3.461  14.123  0.3918 -0.3086  0.2995
11686TIP3    H256550   0.689   3.528  14.009  0.3185  0.1227  0.6007
11687TIP3   OH256551   1.431   5.316   5.565 -0.0678 -0.4122 -0.7133
11687TIP3    H156552   1.425   5.355   5.478 -1.6223 -0.6983 -0.7671
11687TIP3    H256553   1.354   5.348   5.611 -0.3777 -1.9026 -0.1371
11688TIP3   OH256554   0.362   3.177  11.478  0.5211  0.0623  0.5248
11688TIP3    H156555   0.390   3.207  11.565  0.9589  1.7702 -0.1586
11688TIP3    H256556   0.405   3.092  11.468  0.4427 -0.1874  1.9672
11689TIP3   OH256557   3.579   4.297   1.723 -0.4931  0.7849  0.2892
11689TIP3    H156558   3.643   4.345   1.669 -1.7850  2.5869  0.2627
11689TIP3    H256559   3.525   4.366   1.762 -2.0741 -0.6516  0.7377
11690TIP3   OH256560   3.561   3.978  11.656  0.3920 -0.3355 -0.0422
11690TIP3    H156561   3.608   3.935  11.585 -0.7853  0.0784 -1.1350
11690TIP3    H256562   3.616   4.053  11.679  0.8560 -0.5521 -0.4228
11691TIP3   OH256563   2.986   2.907  14.855  0.1820 -0.1840 -0.2546
11691TIP3    H156564   2.936   2.857  14.790  0.8265  1.4147 -2.0981
11691TIP3    H256565   2.993   2.995  14.816  2.2925  0.3000  1.0879
11692TIP3   OH256566   5.335   2.129  16.165 -0.1018 -0.4692 -0.1678
11692TIP3    H156567   5.399   2.058  16.171  0.6404  0.0563 -1.4584
11692TIP3    H256568   5.250   2.086  16.167  0.3273 -1.6464 -3.0368
11693TIP3   OH256569   2.380   1.471   4.993 -0.2559  0.3082 -0.0729
11693TIP3    H156570   2.459   1.509   5.032  0.5740 -0.6797 -0.7231
11693TIP3    H256571   2.413   1.421   4.918 -1.6344  0.8896 -1.1067
11694TIP3   OH256572   4.606   1.930   2.339  0.3718  0.1717  0.3986
11694TIP3    H156573   4.516   1.945   2.366  0.7548  0.7399  1.4165
11694TIP3    H256574   4.600   1.867   2.267 -0.7886 -0.2398  0.8389
11695TIP3   OH256575   2.363   2.693   3.669  0.0246 -0.2952  0.3197
11695TIP3    H156576   2.318   2.679   3.585  0.6348 -1.7405  0.2055
11695TIP3    H256577   2.454   2.710   3.644  0.0342  0.1692  0.6612
11696TIP3   OH256578   0.640   2.348   2.643 -0.7455 -0.4077  0.1983
11696TIP3    H156579   0.616   2.379   2.556 -1.4394 -1.5042 -0.0233
11696TIP3    H256580   0.646   2.427   2.697  0.5616  0.3759 -1.0345
11697TIP3   OH256581   3.808   2.137   2.369  0.1974  0.2853  0.0919
11697TIP3    H156582   3.812   2.095   2.284 -0.6125 -0.0839  0.2265
11697TIP3    H256583   3.837   2.227   2.353  4.2024 -0.7853  0.1838
11698TIP3   OH256584   0.312   1.065  15.930 -0.3575 -0.4432 -0.0957
11698TIP3    H156585   0.406   1.082  15.925 -0.5179  0.1790 -1.5077
11698TIP3    H256586   0.290   1.081  16.021  0.6786  0.7549 -0.0173
11699TIP3   OH256587   0.062   5.851   3.494 -0.1030 -0.2783  0.1399
11699TIP3    H156588   0.096   5.761   3.492  0.3388 -0.0938 -1.1708
11699TIP3    H256589   0.123   5.898   3.551 -0.3419 -0.8014  0.8420
11700TIP3   OH256590   3.223   0.420   5.052 -0.1328 -0.1851  0.3818
11700TIP3    H156591   3.172   0.495   5.083 -0.3212  0.2378 -0.8968
11700TIP3    H256592   3.300   0.460   5.012  1.0888 -0.8023  2.0037
11701TIP3   OH256593   2.170   3.760   6.046 -0.0496 -0.1935 -0.2812
11701TIP3    H156594   2.161   3.823   5.975  0.5618  0.3504  0.1051
11701TIP3    H256595   2.258   3.775   6.080 -0.7324  0.3656  1.3325
11702TIP3   OH256596   6.501   4.492   5.583  0.4911 -0.0667  0.4578
11702TIP3    H156597   6.532   4.405   5.557 -0.1557 -0.2497  0.2896
11702TIP3    H256598   6.572   4.527   5.637  1.0463 -0.4302 -0.0234
11703TIP3   OH256599   5.861   3.204   6.216 -0.5409 -0.0343  0.6301
11703TIP3    H156600   5.943   3.195   6.264 -0.9599  0.8205  1.5486
11703TIP3    H256601   5.878   3.273   6.151 -0.2108 -0.6382  0.0645
11704TIP3   OH256602   0.616   3.602   6.259  0.2279  0.5365  0.5193
11704TIP3    H156603   0.531   3.601   6.304  0.3056 -1.7644  0.7130
11704TIP3    H256604   0.641   3.694   6.259 -2.2708  1.3002  0.4218
11705TIP3   OH256605   3.775   2.782   2.189  0.7068 -0.8134 -0.0611
11705TIP3    H156606   3.754   2.762   2.280  0.5921 -0.6274 -0.0446
11705TIP3    H256607   3.695   2.823   2.155  1.6841  1.8790  0.5987
11706TIP3   OH256608   1.387   5.291   2.652 -0.2896  0.2256  0.4512
11706TIP3    H156609   1.385   5.375   2.698  0.7596  0.5980 -0.1547
11706TIP3    H256610   1.385   5.315   2.559  0.4865 -0.3852  0.2647
11707TIP3   OH256611   0.308   6.365   1.406 -0.3725  0.2128  0.6890
11707TIP3    H156612   0.242   6.371   1.337 -2.2272 -1.9284  2.1170
11707TIP3    H256613   0.387   6.402   1.367 -2.1772  2.1982 -1.3906
11708TIP3   OH256614   2.756   5.539  14.100 -0.4356 -0.8224  0.1870
11708TIP3    H156615   2.753   5.455  14.056 -1.3981 -0.4440 -0.4982
11708TIP3    H256616   2.846   5.547  14.131  0.1694 -1.2799 -1.3633
11709TIP3   OH256617   6.158   6.669  15.633  0.1187  0.0904  0.3880
11709TIP3    H156618   6.075   6.663  15.681 -0.0599 -1.5330 -0.0551
11709TIP3    H256619   6.200   6.584  15.647  1.2821  0.5601 -0.1537
11710TIP3   OH256620   0.586   5.721   2.414 -0.4515  0.3293 -0.5360
11710TIP3    H156621   0.579   5.740   2.320 -1.0702  0.3803 -0.4846
11710TIP3    H256622   0.601   5.806   2.455  0.1490  0.2657 -0.6148
11711TIP3   OH256623   0.685   1.691   5.853 -0.3564 -0.1223  0.5587
11711TIP3    H156624   0.676   1.644   5.936 -0.1210 -0.1620  0.5608
11711TIP3    H256625   0.678   1.783   5.876  1.8367 -0.0054  0.9178
11712TIP3   OH256626   4.168   5.597  16.329  0.0107 -0.0815 -0.0110
11712TIP3    H156627   4.259   5.589  16.357  0.8773  1.5474 -2.0748
11712TIP3    H256628   4.151   5.691  16.331 -1.5020 -0.3274 -0.1108
11713TIP3   OH256629   5.220   5.772   0.676 -0.4047 -0.0085 -0.4359
11713TIP3    H156630   5.208   5.786   0.770 -0.8382  2.4911 -0.8122
11713TIP3    H256631   5.307   5.733   0.669 -0.2188  0.0911  0.9793
11714TIP3   OH256632   5.809   4.623  16.880  0.6460  0.5499  0.5147
11714TIP3    H156633   5.875   4.554  16.876 -1.3641 -1.5375  1.1041
11714TIP3    H256634   5.789   4.643  16.789  0.7137 -0.2315  0.3208
11715TIP3   OH256635   3.385   6.015  16.371  0.2631  0.2336  1.1021
11715TIP3    H156636   3.450   5.992  16.437  0.5501 -2.6592 -0.0193
11715TIP3    H256637   3.423   6.089  16.324  2.3443 -0.7525  1.1040
11716TIP3   OH256638   2.712   0.918   4.276 -0.4727  0.3694  0.2848
11716TIP3    H156639   2.650   0.852   4.245 -1.3164  0.9274  0.7359
11716TIP3    H256640   2.744   0.883   4.359  0.5651 -0.3682 -0.4035
11717TIP3   OH256641   5.318   0.749  15.721 -0.3069  0.1182 -0.5397
11717TIP3    H156642   5.383   0.689  15.758  0.7577  1.4657 -0.1637
11717TIP3    H256643   5.296   0.709  15.636 -0.0279 -1.0719 -0.0783
11718TIP3   OH256644   5.530   5.776  14.547 -0.0937 -0.3221  0.0840
11718TIP3    H156645   5.562   5.845  14.489 -2.1007  0.0147 -0.7260
11718TIP3    H256646   5.579   5.788  14.628  0.8790  0.8967 -0.6478
11719TIP3   OH256647   0.460   6.803   2.443 -0.3464 -0.3041 -0.3013
11719TIP3    H156648   0.482   6.711   2.458 -2.6311 -1.3800 -2.5628
11719TIP3    H256649   0.439   6.838   2.530  0.6765 -1.8731  0.6170
11720TIP3   OH256650   3.245   6.271  14.040 -0.1821 -0.0087 -0.2269
11720TIP3    H156651   3.267   6.325  13.964 -2.5676  3.4228  1.2323
11720TIP3    H256652   3.194   6.199  14.005  0.0200  0.6685 -1.9958
11721TIP3   OH256653   4.443   3.470   2.957 -0.1340  0.4260  0.0000
11721TIP3    H156654   4.451   3.559   2.989 -2.4521  1.9724 -3.1663
11721TIP3    H256655   4.533   3.442   2.940  0.5537  3.0150 -1.0181
11722TIP3   OH256656   1.479   3.732   1.651  0.9630  0.6916  0.6387
11722TIP3    H156657   1.573   3.716   1.659  0.7711 -0.1574  1.4184
11722TIP3    H256658   1.465   3.747   1.557  1.6212 -1.1094  0.1949
11723TIP3   OH256659   5.894   5.346  11.056 -0.1441 -0.2545  0.2338
11723TIP3    H156660   5.962   5.396  11.010  1.0222 -1.4071  0.6374
11723TIP3    H256661   5.935   5.262  11.075 -1.0085 -0.2747  2.2570
11724TIP3   OH256662   0.361   5.292   4.799  0.3372 -0.0751  0.2170
11724TIP3    H156663   0.412   5.369   4.824  0.3089  0.3360 -0.9354
11724TIP3    H256664   0.420   5.241   4.743  0.1522 -0.5907  0.4840
11725TIP3   OH256665   3.478   3.404   4.067 -0.1630  1.0302  0.2153
11725TIP3    H156666   3.412   3.468   4.041 -1.7720 -0.5160  0.3101
11725TIP3    H256667   3.452   3.377   4.155  0.7082  0.5305  0.3325
11726TIP3   OH256668   2.744   3.399   1.916 -0.2400 -0.1227  0.5893
11726TIP3    H156669   2.813   3.362   1.861 -0.9776  0.0687 -0.5036
11726TIP3    H256670   2.779   3.483   1.946 -0.4152  0.4883 -0.8663
11727TIP3   OH256671   6.857   5.119   1.239 -0.2186 -0.1767  0.5318
11727TIP3    H156672   6.852   5.034   1.194 -0.6927  0.9141 -1.6051
11727TIP3    H256673   6.766   5.141   1.260 -0.2826  0.5409 -0.4381
11728TIP3   OH256674   4.596   0.075   1.277 -0.3218  0.2875 -0.2302
11728TIP3    H156675   4.636  -0.010   1.259 -0.2118  0.7288 -2.2600
11728TIP3    H256676   4.502   0.057   1.274 -0.3161  0.0256  0.6266
11729TIP3   OH256677   4.406   5.835   1.760 -0.2070  0.2456  0.1942
11729TIP3    H156678   4.369   5.750   1.787 -1.1370  1.1579  1.9957
11729TIP3    H256679   4.468   5.857   1.830 -1.0097  1.6669  0.5014
11730TIP3   OH256680   0.703   6.424  15.606  0.1430  0.5353 -0.2105
11730TIP3    H156681   0.639   6.450  15.540  0.3680  0.9846 -0.2572
11730TIP3    H256682   0.668   6.343  15.643 -1.0963  1.4505  0.6645
11731TIP3   OH256683   1.044   3.473  13.894 -0.0500 -0.8592  0.0891
11731TIP3    H156684   0.963   3.437  13.930 -0.4275 -1.6765 -1.4719
11731TIP3    H256685   1.107   3.402  13.902  0.0041 -0.8617 -0.3414
11732TIP3   OH256686   6.547   3.827  10.730  0.2704 -0.1411  0.1030
11732TIP3    H156687   6.642   3.836  10.721  0.5776  0.7908  3.0641
11732TIP3    H256688   6.511   3.904  10.686  1.0470  0.5271  0.6058
11733TIP3   OH256689   6.609   3.141   5.792 -0.5538  0.0912  0.3492
11733TIP3    H156690   6.568   3.221   5.760 -0.1803  0.6231  1.1805
11733TIP3    H256691   6.632   3.160   5.883 -1.2285 -1.2423  0.8285
11734TIP3   OH256692   6.817   4.464   0.403  0.6288 -0.2650  0.2005
11734TIP3    H156693   6.742   4.461   0.463  1.1192 -1.7457  0.7866
11734TIP3    H256694   6.777   4.464   0.315 -0.0662 -0.5721  0.5075
11735TIP3   OH256695   5.598   0.199  10.732  0.1569  0.4415  0.0577
11735TIP3    H156696   5.573   0.291  10.746  0.3438  0.6233 -0.7612
11735TIP3    H256697   5.539   0.167  10.665  0.3701  0.0842  0.0366
11736TIP3   OH256698   1.837   3.248  12.278  0.6418  0.4345 -0.3529
11736TIP3    H156699   1.874   3.310  12.216 -1.9199  3.5015  0.9109
11736TIP3    H256700   1.880   3.267  12.361  0.5976 -0.2648 -0.1581
11737TIP3   OH256701   2.333   5.904  16.229 -0.1712 -0.0960 -0.2803
11737TIP3    H156702   2.367   5.836  16.171 -0.3940  0.3970 -0.9963
11737TIP3    H256703   2.407   5.963  16.244 -0.0507 -0.3462  0.1289
11738TIP3   OH256704   1.834   6.788  10.628  0.2902  0.0114 -0.4831
11738TIP3    H156705   1.872   6.875  10.642  0.4672 -0.4920  3.1860
11738TIP3    H256706   1.906   6.737  10.590  0.9912  0.8736 -0.3644
11739TIP3   OH256707   4.791   0.345   4.976  0.3723 -0.2548 -0.2820
11739TIP3    H156708   4.880   0.333   4.943 -0.2994 -0.3162 -2.1447
11739TIP3    H256709   4.796   0.426   5.028  1.2803  0.3366 -1.2545
11740TIP3   OH256710   0.683   5.684  13.180  0.7620 -0.3380 -0.3114
11740TIP3    H156711   0.610   5.622  13.186 -0.2244  0.6866 -1.2844
11740TIP3    H256712   0.761   5.628  13.178 -0.0886 -1.5577 -1.0911
11741TIP3   OH256713   1.778   1.731   6.217 -0.2806 -0.6010 -0.0782
11741TIP3    H156714   1.835   1.763   6.287  1.2161  0.0926 -1.5407
11741TIP3    H256715   1.694   1.717   6.260  0.6703 -0.5880  1.9342
11742TIP3   OH256716   0.088   4.548  16.805  0.1181  0.1656  0.2017
11742TIP3    H156717   0.162   4.493  16.780  0.1722 -0.4471  1.6516
11742TIP3    H256718   0.110   4.580  16.892  0.5318  3.2800 -0.8984
11743TIP3   OH256719   4.401   1.769   4.004 -0.3613  0.2131  0.5209
11743TIP3    H156720   4.429   1.826   4.077  0.9244  1.5246 -0.9120
11743TIP3    H256721   4.432   1.682   4.029  1.0346  0.8328  1.0718
11744TIP3   OH256722   4.132   0.336  12.470  0.1313 -0.3181  0.1985
11744TIP3    H156723   4.052   0.284  12.476 -1.1586  1.6023  0.6127
11744TIP3    H256724   4.140   0.356  12.377  1.6258 -2.5943 -0.2568
11745TIP3   OH256725   2.975   4.079  11.858  0.3575 -0.0400  0.2227
11745TIP3    H156726   2.893   4.095  11.904  0.4935  0.8655  0.1595
11745TIP3    H256727   2.975   4.141  11.785 -1.1235 -3.1610 -2.7438
11746TIP3   OH256728   1.936   4.166   4.608 -0.1045 -0.0153 -0.4642
11746TIP3    H156729   1.942   4.130   4.696  1.0818  0.2828 -0.3979
11746TIP3    H256730   1.844   4.161   4.585 -0.5226  0.4713  1.0286
11747TIP3   OH256731   0.411   6.177  17.071  0.0145  0.7253  0.0830
11747TIP3    H156732   0.479   6.228  17.115  1.5222 -1.5213  0.4902
11747TIP3    H256733   0.344   6.163  17.138 -0.6360  2.3871 -0.1428
11748TIP3   OH256734   2.681   6.017  17.079  0.2103  0.7988  0.5959
11748TIP3    H156735   2.775   6.004  17.093 -0.0615 -2.1193  0.2617
11748TIP3    H256736   2.648   6.050  17.163  1.6630  3.2815  0.2961
11749TIP3   OH256737   6.816   6.385   6.480  0.1411  0.2842  0.2125
11749TIP3    H156738   6.735   6.345   6.449 -0.6310  0.3169  2.0779
11749TIP3    H256739   6.859   6.417   6.400 -0.4374 -1.9443 -1.0623
11750TIP3   OH256740   2.575   4.122  13.211  0.2356  0.5481  0.1012
11750TIP3    H156741   2.593   4.101  13.119 -0.5122 -0.0868  0.0888
11750TIP3    H256742   2.510   4.192  13.207  0.7618  1.0539  0.1575
11751TIP3   OH256743   1.685   2.857   1.054  0.2587  0.1140 -0.7761
11751TIP3    H156744   1.701   2.770   1.091  0.4139  0.7658  0.7641
11751TIP3    H256745   1.639   2.839   0.971 -2.0461 -1.4037  0.6945
11752TIP3   OH256746   2.973   4.992  12.215  0.0889 -0.2230  0.2446
11752TIP3    H156747   2.968   4.913  12.268  0.6808  0.4964  1.4218
11752TIP3    H256748   2.901   5.047  12.247 -0.1460 -0.1681 -0.3682
11753TIP3   OH256749   1.045   1.717  13.080  0.3543  0.1873 -0.0849
11753TIP3    H156750   0.999   1.637  13.103 -0.7303  0.7488 -0.2489
11753TIP3    H256751   1.015   1.781  13.145 -2.4514  1.7085 -2.6211
11754TIP3   OH256752   1.067   4.925   1.484 -0.4670  0.3401 -0.5455
11754TIP3    H156753   1.118   4.879   1.418  0.0839  2.0792 -1.3734
11754TIP3    H256754   1.131   4.973   1.536 -0.9727 -0.2895  0.7038
11755TIP3   OH256755   3.646   5.807   6.030  0.1011  0.0295 -0.1041
11755TIP3    H156756   3.623   5.727   5.983 -1.0450  0.5977 -0.5358
11755TIP3    H256757   3.735   5.827   5.999 -0.2342 -0.1710 -1.2576
11756TIP3   OH256758   4.015   3.566  16.136  0.4460 -0.2775 -0.2012
11756TIP3    H156759   4.005   3.486  16.188 -1.1952 -1.0804 -1.6593
11756TIP3    H256760   3.960   3.552  16.059 -0.1861  2.4026 -0.3425
11757TIP3   OH256761   3.833   6.815   2.111  0.7720 -0.1876  0.2230
11757TIP3    H156762   3.790   6.894   2.081  1.4070  0.3955  0.8087
11757TIP3    H256763   3.856   6.767   2.031 -0.6469 -0.3538 -0.0964
11758TIP3   OH256764   6.095   0.954   2.103  0.7271 -0.1171  0.4992
11758TIP3    H156765   6.176   0.913   2.134 -0.9539 -3.0244  1.4956
11758TIP3    H256766   6.089   0.930   2.011  0.7725 -0.2845  0.5400
11759TIP3   OH256767   6.289   3.118   3.116 -0.3925  0.2160 -0.4241
11759TIP3    H156768   6.288   3.162   3.201 -0.7630 -1.3055  0.4007
11759TIP3    H256769   6.289   3.189   3.052 -0.3397  1.3972  0.8381
11760TIP3   OH256770   2.796   1.054   4.952  0.1977  0.5729  0.3136
11760TIP3    H156771   2.820   1.047   5.044  0.0243  0.8021  0.3763
11760TIP3    H256772   2.861   1.114   4.915 -0.7816  1.8956  0.6725
11761TIP3   OH256773   4.046   1.385  16.607  0.6192 -0.1256 -0.1577
11761TIP3    H156774   3.956   1.379  16.641 -0.1529  0.2703 -2.0158
11761TIP3    H256775   4.098   1.408  16.684 -0.9846  0.4189  0.8435
11762TIP3   OH256776   0.003   0.713   2.768  0.1878 -0.3012  0.3992
11762TIP3    H156777   0.059   0.786   2.793  1.6730 -0.6970 -1.5201
11762TIP3    H256778   0.063   0.642   2.747 -1.0991 -1.2737 -0.1699
11763TIP3   OH256779   5.198   5.030  12.873 -0.0807  0.3379 -0.5301
11763TIP3    H156780   5.248   4.954  12.843  0.6372  0.5868  0.0079
11763TIP3    H256781   5.179   5.079  12.793  1.1722  0.6125 -0.6836
11764TIP3   OH256782   0.623   3.218   5.688 -0.3158  0.1910  0.7846
11764TIP3    H156783   0.656   3.269   5.614 -1.1834 -0.5495 -0.1369
11764TIP3    H256784   0.691   3.228   5.755  0.1298  1.5046  0.1890
11765TIP3   OH256785   4.102   2.693  13.313 -0.8787  0.0851  0.3547
11765TIP3    H156786   4.131   2.612  13.272 -1.0568 -0.3373  1.0412
11765TIP3    H256787   4.172   2.756  13.294 -2.2173  0.7294 -2.9849
11766TIP3   OH256788   5.898   0.113  12.065  0.1601  0.1199  0.4472
11766TIP3    H156789   5.895   0.160  11.982 -0.9034 -1.0198 -0.1965
11766TIP3    H256790   5.808   0.085  12.079  0.6863 -1.3481  1.0225
11767TIP3   OH256791   6.356   0.729   3.667 -0.2569  0.1518 -0.7203
11767TIP3    H156792   6.438   0.686   3.694  0.8665  0.8616 -2.8077
11767TIP3    H256793   6.383   0.817   3.641 -1.9777  0.9628  0.1191
11768TIP3   OH256794   4.682   4.241   3.363  0.4906  0.5945 -0.1171
11768TIP3    H156795   4.621   4.221   3.292  0.3216 -2.8882  0.7870
11768TIP3    H256796   4.639   4.205   3.441  2.1090  1.3285  1.1654
11769TIP3   OH256797   5.802   2.682  16.194 -0.0653 -0.0139 -0.2725
11769TIP3    H156798   5.834   2.651  16.109  0.3383 -0.7172  0.1225
11769TIP3    H256799   5.797   2.777  16.185  0.7916 -0.0115 -0.8140
11770TIP3   OH256800   5.578   2.805  12.016 -0.6548  0.3762 -0.0250
11770TIP3    H156801   5.532   2.849  12.087  0.8807  0.5129  0.9062
11770TIP3    H256802   5.509   2.756  11.970 -1.7207  0.5529  1.3306
11771TIP3   OH256803   5.746   5.656   2.548  0.2207  0.1042  0.7389
11771TIP3    H156804   5.695   5.618   2.477 -0.7550  0.1169  1.4045
11771TIP3    H256805   5.703   5.624   2.628 -0.3947  2.2535  1.3300
11772TIP3   OH256806   4.117   5.842  13.119  0.5780 -0.1047  0.2027
11772TIP3    H156807   4.140   5.871  13.031 -1.2735 -0.0802 -0.3140
11772TIP3    H256808   4.166   5.761  13.132  2.1609  0.7584 -0.1724
11773TIP3   OH256809   0.734   0.973  15.186  0.6011  0.0835 -0.0626
11773TIP3    H156810   0.742   1.001  15.095  0.3789 -0.6054 -0.3007
11773TIP3    H256811   0.811   1.009  15.229  0.4627  0.8228 -0.4120
11774TIP3   OH256812   1.287   1.372   3.824 -0.5218  0.5081  0.1104
11774TIP3    H156813   1.372   1.340   3.855  0.2762  1.2719 -1.1994
11774TIP3    H256814   1.224   1.307   3.854  0.7473 -1.0478 -0.4631
11775TIP3   OH256815   4.159   0.307  14.310 -0.1253 -0.0065  0.9510
11775TIP3    H156816   4.125   0.231  14.359 -0.7662 -0.6849 -0.4646
11775TIP3    H256817   4.144   0.381  14.368 -0.3531 -0.8373  2.0006
11776TIP3   OH256818   1.038   1.604  17.025  0.2648 -0.3972 -0.1016
11776TIP3    H156819   1.133   1.599  17.013  0.6438  3.3095  0.4286
11776TIP3    H256820   1.026   1.591  17.119  0.3029 -0.2007 -0.0701
11777TIP3   OH256821   3.492   0.675   2.571  0.3261 -0.6036 -0.1623
11777TIP3    H156822   3.473   0.581   2.568 -0.4460 -0.5416  1.5728
11777TIP3    H256823   3.567   0.682   2.629  0.1909 -0.1208 -0.0452
11778TIP3   OH256824   5.221   0.070   5.716  0.4235  0.1887  0.3029
11778TIP3    H156825   5.135   0.047   5.751 -0.1017  2.6303  0.7814
11778TIP3    H256826   5.284   0.038   5.781 -0.2094 -0.1983  0.7330
11779TIP3   OH256827   5.714   2.961   6.219 -0.5533 -0.6548 -0.7616
11779TIP3    H156828   5.794   2.928   6.176 -0.4025 -1.7724  0.3292
11779TIP3    H256829   5.741   3.042   6.261 -0.4148 -0.1657 -1.7482
11780TIP3   OH256830   6.270   4.099   0.881  0.2560 -0.5307 -0.1506
11780TIP3    H156831   6.281   4.017   0.929  0.7889 -0.1630  0.3811
11780TIP3    H256832   6.179   4.099   0.852 -0.2296 -0.5475  1.2858
11781TIP3   OH256833   1.725   0.636   4.711 -0.1219 -0.4634  0.0731
11781TIP3    H156834   1.790   0.690   4.666  1.2664 -0.4018  2.0073
11781TIP3    H256835   1.731   0.551   4.668  0.6776 -0.2328 -0.3025
11782TIP3   OH256836   3.689   4.450   1.506 -0.4041  0.2716  0.3937
11782TIP3    H156837   3.694   4.414   1.417 -3.4303  0.8153 -0.1278
11782TIP3    H256838   3.750   4.523   1.506  1.1144 -0.9512 -0.5676
11783TIP3   OH256839   6.580   2.841   2.674  0.4413 -0.2546 -0.2148
11783TIP3    H156840   6.525   2.916   2.650 -0.8539 -1.3426 -0.7703
11783TIP3    H256841   6.537   2.803   2.751  1.3589 -0.1529  0.3581
11784TIP3   OH256842   0.677   6.446  15.122  0.7023 -0.1443  0.0550
11784TIP3    H156843   0.619   6.522  15.129  0.3672 -0.4721  1.0882
11784TIP3    H256844   0.620   6.377  15.088  0.6603 -0.2786  0.3932
11785TIP3   OH256845   2.756   2.456  14.120  0.0605 -0.0667 -0.0837
11785TIP3    H156846   2.709   2.387  14.168  0.3339 -1.7924 -2.1390
11785TIP3    H256847   2.744   2.433  14.027  0.9177  2.1906 -0.8258
11786TIP3   OH256848   6.332   3.108   1.985 -0.1989 -0.1819 -0.1930
11786TIP3    H156849   6.278   3.117   1.907 -1.0887 -1.1551  0.2907
11786TIP3    H256850   6.363   3.017   1.983  0.2037 -0.0636  0.3215
11787TIP3   OH256851   4.515   4.123  13.527 -0.1052 -0.0758 -0.5476
11787TIP3    H156852   4.596   4.073  13.538 -0.8007 -1.3947 -1.2417
11787TIP3    H256853   4.542   4.201  13.477  1.2023  0.9065  1.5724
11788TIP3   OH256854   5.288   3.381  16.871  0.2004 -0.0820  0.0574
11788TIP3    H156855   5.340   3.308  16.838  0.3271  0.0363 -0.0046
11788TIP3    H256856   5.344   3.458  16.859 -0.5650  0.2913 -1.4829
11789TIP3   OH256857   1.530   4.711   6.326 -0.3618  0.0164 -0.1662
11789TIP3    H156858   1.453   4.738   6.275  0.2468  2.9050  0.2802
11789TIP3    H256859   1.500   4.635   6.376 -2.6303  0.4642 -0.7425
11790TIP3   OH256860   6.694   1.401   5.621  0.7657 -0.7255  0.0251
11790TIP3    H156861   6.765   1.464   5.631 -1.4334  2.1860 -1.2623
11790TIP3    H256862   6.645   1.406   5.704  2.7673 -3.9513  1.5963
11791TIP3   OH256863   0.200   0.392  15.954 -0.5095  0.6457 -0.5507
11791TIP3    H156864   0.112   0.369  15.984  0.0226 -1.2389 -0.2932
11791TIP3    H256865   0.256   0.327  15.995  0.7498  0.5363 -2.3809
11792TIP3   OH256866   2.914   4.477  12.734  0.2486  0.0700  0.1312
11792TIP3    H156867   2.889   4.551  12.790  0.4169  0.3427 -0.1487
11792TIP3    H256868   2.872   4.497  12.649  0.4486 -0.0632  0.0016
11793TIP3   OH256869   4.873   5.531   1.793  0.7481 -0.2184  0.0213
11793TIP3    H156870   4.961   5.504   1.821  0.5088 -0.3723  0.6438
11793TIP3    H256871   4.829   5.449   1.771  1.2492 -0.0403 -1.8228
11794TIP3   OH256872   5.200   5.475   3.567  0.0812  0.6533 -0.1042
11794TIP3    H156873   5.279   5.433   3.533 -0.4407 -1.4338  1.0735
11794TIP3    H256874   5.233   5.535   3.634  0.7566  0.7799 -0.5403
11795TIP3   OH256875   1.567   0.853   3.540  0.0486  0.2063  0.2294
11795TIP3    H156876   1.563   0.815   3.452  2.2879 -2.1306  1.0046
11795TIP3    H256877   1.513   0.795   3.594  2.6207 -1.4314  1.2249
11796TIP3   OH256878   4.216   3.366  15.581 -0.2301 -0.0252 -0.3697
11796TIP3    H156879   4.250   3.306  15.648 -1.5204 -0.7246 -0.3180
11796TIP3    H256880   4.238   3.324  15.498 -1.3208 -0.7007 -0.3312
11797TIP3   OH256881   0.908   4.578   5.430 -0.5699  0.1539 -0.2066
11797TIP3    H156882   0.865   4.492   5.423 -1.9322  0.7334  0.5751
11797TIP3    H256883   0.921   4.591   5.524  0.7797  0.2878 -0.3930
11798TIP3   OH256884   3.483   4.655   4.833  0.1954  0.1606 -0.0597
11798TIP3    H156885   3.566   4.682   4.794  0.6034 -0.6805  0.1911
11798TIP3    H256886   3.452   4.584   4.778 -1.3692  1.7274 -1.2993
11799TIP3   OH256887   1.851   0.296  15.135  0.1227 -0.5700  0.4457
11799TIP3    H156888   1.882   0.207  15.150  2.4421  0.2149  0.8122
11799TIP3    H256889   1.931   0.346  15.114 -1.1197  1.3809  0.0347
11800TIP3   OH256890   5.756   6.676   3.153 -0.5013 -0.5940  0.1242
11800TIP3    H156891   5.716   6.732   3.220 -0.7468  0.3985 -0.8234
11800TIP3    H256892   5.684   6.657   3.092 -1.3944 -4.8310  2.1162
11801TIP3   OH256893   3.340   2.066  10.964  0.0389  0.7430  0.3492
11801TIP3    H156894   3.274   2.068  10.894 -0.7207 -0.6125  0.9780
11801TIP3    H256895   3.419   2.034  10.921 -1.0721 -2.6336  0.4771
11802TIP3   OH256896   6.600   6.703  12.641  0.4813  0.0653  0.0717
11802TIP3    H156897   6.528   6.748  12.597  0.0038 -1.9551 -1.3936
11802TIP3    H256898   6.655   6.773  12.676 -1.4128  1.6859 -0.0328
11803TIP3   OH256899   2.634   5.652   4.328  0.4291 -0.5041 -0.2903
11803TIP3    H156900   2.545   5.687   4.328  0.1856 -1.1114 -0.9167
11803TIP3    H256901   2.668   5.671   4.241  0.0312 -2.4450 -0.9180
11804TIP3   OH256902   0.847   5.785   1.405 -0.0316 -0.3742  0.1227
11804TIP3    H156903   0.808   5.734   1.334 -0.6968 -0.3880  0.4962
11804TIP3    H256904   0.919   5.729   1.438 -0.3166 -0.7740  0.0762
11805TIP3   OH256905   2.806   3.440   6.390  0.5022 -0.0001  0.5093
11805TIP3    H156906   2.885   3.442   6.336  1.0188  1.1809  1.2593
11805TIP3    H256907   2.734   3.441   6.327  1.0594 -1.2454 -0.1880
11806TIP3   OH256908   2.311   3.719  15.164  0.6743 -0.4934  0.1447
11806TIP3    H156909   2.300   3.677  15.250  1.9338  0.6089  0.8850
11806TIP3    H256910   2.403   3.748  15.163  0.0881  1.4921 -0.6533
11807TIP3   OH256911   3.825   3.298  15.209  0.8057  0.1770  0.2254
11807TIP3    H156912   3.822   3.391  15.232  0.4173 -0.0780  1.2618
11807TIP3    H256913   3.856   3.297  15.119 -0.7194  1.3997 -0.3643
11808TIP3   OH256914   6.180   1.724   4.643  0.3218  0.2043 -0.9606
11808TIP3    H156915   6.175   1.818   4.657  1.0899  0.2107 -0.6597
11808TIP3    H256916   6.098   1.701   4.599 -1.5705  0.4417  2.1637
11809TIP3   OH256917   6.301   4.909   1.435  0.5860  0.1182  0.0965
11809TIP3    H156918   6.284   4.866   1.519 -1.1171  0.6049  0.0429
11809TIP3    H256919   6.333   4.838   1.378 -3.1067 -1.4678 -0.2961
11810TIP3   OH256920   3.825   1.245   1.714  0.6040  0.0935  0.2051
11810TIP3    H156921   3.869   1.254   1.629  1.0733 -1.2642  0.2764
11810TIP3    H256922   3.757   1.180   1.699 -1.6464  2.3360  0.0354
11811TIP3   OH256923   2.237   6.716   0.345  0.1419  0.3010 -0.0208
11811TIP3    H156924   2.322   6.750   0.373  0.3220 -1.4646  1.7323
11811TIP3    H256925   2.173   6.779   0.379  0.6752  1.1619 -0.5805
11812TIP3   OH256926   2.846   2.585  16.870  0.7419  0.0839 -0.2775
11812TIP3    H156927   2.812   2.499  16.843  2.5032 -1.4124  1.8891
11812TIP3    H256928   2.791   2.648  16.823 -1.9314 -2.1793 -0.4787
11813TIP3   OH256929   6.577   4.404  13.631 -0.1935 -0.9150  0.6588
11813TIP3    H156930   6.538   4.317  13.621 -1.4956 -0.5564  2.2554
11813TIP3    H256931   6.657   4.400  13.578 -0.6369 -2.8045  0.0398
11814TIP3   OH256932   6.398   6.225  13.901  0.5894  0.2566  0.2322
11814TIP3    H156933   6.493   6.213  13.904  0.4526 -1.6374 -1.2687
11814TIP3    H256934   6.385   6.302  13.846  1.2670  1.1069  1.2404
11815TIP3   OH256935   1.534   0.635  12.541 -0.0137 -0.2898 -0.0021
11815TIP3    H156936   1.606   0.612  12.483 -0.9675  0.7968 -1.7201
11815TIP3    H256937   1.546   0.729  12.558 -0.6674 -0.2335  0.1865
11816TIP3   OH256938   2.885   1.527   1.975  0.1880 -0.2912 -0.0741
11816TIP3    H156939   2.929   1.492   2.053  0.7240  0.1821 -0.1545
11816TIP3    H256940   2.864   1.450   1.923  0.0441 -0.5938  0.4277
11817TIP3   OH256941   3.665   4.191  11.769 -0.1929  0.0777  0.1984
11817TIP3    H156942   3.656   4.250  11.694  1.9614 -1.3279 -1.2899
11817TIP3    H256943   3.719   4.240  11.831 -1.5675  1.0599  0.6674
11818TIP3   OH256944   3.613   5.380  12.246 -0.0161 -0.0965  0.7153
11818TIP3    H156945   3.646   5.455  12.295 -0.0081 -0.4724  1.3003
11818TIP3    H256946   3.665   5.306  12.277 -1.0875 -0.6190  1.3294
11819TIP3   OH256947   2.689   5.474   2.744 -0.7465  0.1423  0.6571
11819TIP3    H156948   2.625   5.421   2.792 -1.7623  0.0534 -0.7301
11819TIP3    H256949   2.735   5.410   2.689  0.3205  0.2559  1.4022
11820TIP3   OH256950   2.101   0.682  11.371  0.3724 -0.2803 -0.1880
11820TIP3    H156951   2.025   0.642  11.413 -0.5920  1.9371  0.3405
11820TIP3    H256952   2.132   0.615  11.310 -1.2934 -1.6822  0.3925
11821TIP3   OH256953   3.493   1.424  10.914 -0.1062  0.4420 -0.5431
11821TIP3    H156954   3.531   1.345  10.875 -0.0582  0.0995  0.1797
11821TIP3    H256955   3.399   1.407  10.918 -0.3106  1.1221 -1.9496
11822TIP3   OH256956   5.564   4.534  15.238  0.5099 -0.3490  0.2235
11822TIP3    H156957   5.635   4.594  15.217 -1.3862  2.4349  1.1622
11822TIP3    H256958   5.497   4.553  15.171  0.1340 -1.9950  0.0937
11823TIP3   OH256959   1.680   4.795   3.769  0.4106 -0.0662 -0.0638
11823TIP3    H156960   1.690   4.818   3.677  1.3273  1.0544  0.2778
11823TIP3    H256961   1.677   4.699   3.770  0.2402 -0.0883 -1.2635
11824TIP3   OH256962   2.691   4.771   4.280  0.1828  0.7985  0.0341
11824TIP3    H156963   2.775   4.725   4.288  0.4165  1.2867  0.5020
11824TIP3    H256964   2.708   4.840   4.216  0.2380  1.1096  0.3816
11825TIP3   OH256965   4.857   3.693   4.809 -0.0622  0.9427  0.0833
11825TIP3    H156966   4.770   3.732   4.810 -0.4023  0.5326 -2.9505
11825TIP3    H256967   4.898   3.727   4.729  1.3485 -1.2876 -0.2412
11826TIP3   OH256968   0.834   0.824  13.720  0.1785 -0.0367  0.3464
11826TIP3    H156969   0.751   0.786  13.749  0.4691 -1.5587 -0.6889
11826TIP3    H256970   0.901   0.764  13.753  0.6514 -0.4541 -1.2907
11827TIP3   OH256971   2.125   4.640  13.757  0.3753 -0.0555  0.9025
11827TIP3    H156972   2.087   4.635  13.669 -2.3996 -1.0398  2.0307
11827TIP3    H256973   2.156   4.552  13.775 -0.5226 -0.2792  1.4446
11828TIP3   OH256974   5.152   6.611  12.871  0.3511 -0.0809 -0.8127
11828TIP3    H156975   5.137   6.632  12.779  0.2957  1.0794 -0.5596
11828TIP3    H256976   5.220   6.673  12.899 -0.9943  0.9276  0.4050
11829TIP3   OH256977   5.389   3.821  15.824 -0.3515 -0.1110 -0.3472
11829TIP3    H156978   5.361   3.869  15.746 -0.1290 -2.5347 -2.0565
11829TIP3    H256979   5.308   3.781  15.856 -0.2943  0.1609  0.1339
11830TIP3   OH256980   1.461   3.762   1.945 -0.5848 -0.0231 -0.1651
11830TIP3    H156981   1.437   3.782   1.854 -0.0053 -0.3860 -0.4055
11830TIP3    H256982   1.540   3.813   1.960  1.3631 -2.5763 -1.0351
11831TIP3   OH256983   0.751   2.538  10.656 -0.3658 -0.9728  0.1546
11831TIP3    H156984   0.798   2.617  10.628  1.7732 -2.4197 -0.6162
11831TIP3    H256985   0.667   2.542  10.612  0.7921 -0.4626 -2.1395
11832TIP3   OH256986   2.784   3.405  12.862  0.4142 -0.2657  0.0509
11832TIP3    H156987   2.811   3.487  12.902 -2.5735  0.0547  1.7347
11832TIP3    H256988   2.740   3.431  12.781  0.3122 -0.2657  0.1051
11833TIP3   OH256989   5.171   0.705   2.751  0.1060 -0.0648  0.4242
11833TIP3    H156990   5.124   0.631   2.713 -0.3082  0.4113 -0.0223
11833TIP3    H256991   5.218   0.669   2.826  1.2751 -1.1113 -0.7766
11834TIP3   OH256992   2.061   5.265  13.950 -0.3940 -0.0839 -0.2001
11834TIP3    H156993   2.103   5.350  13.965 -1.0192  0.2511 -0.3146
11834TIP3    H256994   2.045   5.263  13.856  0.9213 -0.9574 -0.4320
11835TIP3   OH256995   0.885   6.113   0.567 -0.3327 -0.2607 -0.1180
11835TIP3    H156996   0.901   6.022   0.544 -1.2182 -0.1215 -1.3905
11835TIP3    H256997   0.920   6.163   0.494 -0.3805  0.3952  0.2986
11836TIP3   OH256998   2.464   3.505   1.750 -0.2520  0.4864  0.1260
11836TIP3    H156999   2.528   3.555   1.802  1.9873 -0.1520 -1.8615
11836TIP3    H257000   2.452   3.424   1.799  3.8150 -1.2506 -1.3506
11837TIP3   OH257001   3.259   4.868  15.907 -0.0752 -0.2346 -0.1151
11837TIP3    H157002   3.184   4.829  15.952  1.1713 -1.3133  1.1093
11837TIP3    H257003   3.252   4.837  15.817 -2.6730  2.0438 -0.8293
11838TIP3   OH257004   4.142   1.463   2.068  0.4008 -0.8677  0.3513
11838TIP3    H157005   4.069   1.511   2.028  1.7303 -1.1784 -2.7248
11838TIP3    H257006   4.192   1.529   2.116  1.0945  0.5363 -2.1449
11839TIP3   OH257007   1.409   5.820  16.950 -0.1921 -0.9946  0.2996
11839TIP3    H157008   1.496   5.854  16.972 -0.2689 -1.1047  0.7810
11839TIP3    H257009   1.420   5.725  16.950 -0.1571 -0.9927 -0.2979
11840TIP3   OH257010   1.238   0.495   4.005  0.5269 -0.1397  0.3439
11840TIP3    H157011   1.194   0.502   3.920  0.3723 -0.8768  0.3504
11840TIP3    H257012   1.209   0.572   4.054 -0.8399 -0.6423  0.3759
11841TIP3   OH257013   0.275   3.908  13.738 -0.1811 -0.2753  0.4377
11841TIP3    H157014   0.314   3.933  13.822  0.3126 -1.8137  0.6976
11841TIP3    H257015   0.314   3.969  13.675  1.4838 -0.7638  0.9357
11842TIP3   OH257016   2.173   0.066   1.432  0.0793  0.4580 -0.0746
11842TIP3    H157017   2.120   0.145   1.447  0.4274  1.1257 -1.9696
11842TIP3    H257018   2.174   0.057   1.336 -0.0105 -1.9153  0.0971
11843TIP3   OH257019   3.001   2.703  15.282  0.0839  0.5157 -0.0054
11843TIP3    H157020   2.965   2.787  15.255 -1.5164 -0.3087 -0.5795
11843TIP3    H257021   2.952   2.638  15.231  0.6912 -0.8109  1.0153
11844TIP3   OH257022   0.148   3.500  12.446  0.0324 -0.1220  0.1683
11844TIP3    H157023   0.160   3.497  12.541 -1.4646 -3.2121  0.3765
11844TIP3    H257024   0.070   3.447  12.430 -0.5697  1.4115 -2.7295
11845TIP3   OH257025   2.792   2.315   1.578 -0.3994 -0.2416 -0.2312
11845TIP3    H157026   2.759   2.228   1.603 -0.8160 -0.0838 -0.2313
11845TIP3    H257027   2.808   2.360   1.661 -1.2983  0.0994 -0.2347
11846TIP3   OH257028   4.664   6.233  16.152  0.5489 -0.6499  0.2329
11846TIP3    H157029   4.734   6.270  16.205  2.2132 -2.1175 -0.8117
11846TIP3    H257030   4.645   6.148  16.192 -1.0117 -0.0708  0.7848
11847TIP3   OH257031   0.900   1.081  12.849 -0.0183 -0.2483  0.2826
11847TIP3    H157032   0.960   1.035  12.908  0.4185  2.0090  1.7231
11847TIP3    H257033   0.927   1.173  12.854 -2.5776  0.6182 -0.2717
11848TIP3   OH257034   6.621   5.462  11.139  0.1236 -0.3933  0.1956
11848TIP3    H157035   6.538   5.509  11.146  0.1410 -0.3168 -0.1035
11848TIP3    H257036   6.600   5.385  11.086  0.9002  1.2330 -2.7040
11849TIP3   OH257037   2.789   3.484   0.047  0.0422  0.3643  0.0915
11849TIP3    H157038   2.869   3.438   0.021 -0.5707 -0.5142 -0.2652
11849TIP3    H257039   2.723   3.456  -0.016 -0.9782 -0.2610  1.3838
11850TIP3   OH257040   5.799   2.575   8.757  0.0453  0.0513 -0.1616
11850TIP3    H157041   5.735   2.517   8.796 -1.0180  0.0243 -1.8635
11850TIP3    H257042   5.749   2.629   8.696  1.4581  0.8036 -0.7078
11851TIP3   OH257043   1.346   3.385  12.499  0.1932  0.1415  0.1974
11851TIP3    H157044   1.413   3.317  12.498 -0.4032 -0.4403 -0.3351
11851TIP3    H257045   1.270   3.345  12.458 -0.2942  0.9972  0.2490
11852TIP3   OH257046   6.516   2.751  11.161 -0.4266  0.0317  0.7493
11852TIP3    H157047   6.448   2.747  11.093 -0.0193  1.4416  0.2329
11852TIP3    H257048   6.478   2.702  11.235 -0.6703 -1.9970 -0.6220
11853TIP3   OH257049   6.304   5.955  16.366 -0.0601  0.2247  0.5599
11853TIP3    H157050   6.251   6.034  16.378  3.2029  2.6156  0.5504
11853TIP3    H257051   6.300   5.938  16.272 -0.4574  0.6142  0.4986
11854TIP3   OH257052   3.280   2.644  11.942 -0.8952 -0.3597  0.1586
11854TIP3    H157053   3.236   2.725  11.919  0.3980  0.3466  0.0713
11854TIP3    H257054   3.356   2.640  11.883 -1.3545 -2.0319 -0.3980
11855TIP3   OH257055   6.695   3.441   0.664 -0.0670 -0.2353 -0.4715
11855TIP3    H157056   6.759   3.512   0.677  2.3359 -2.3240 -0.1548
11855TIP3    H257057   6.657   3.427   0.751  0.0039  0.1310 -0.3768
11856TIP3   OH257058   3.650   5.933  12.205  0.1754 -1.1314 -0.7448
11856TIP3    H157059   3.618   5.860  12.258  0.7421  0.2139  1.6154
11856TIP3    H257060   3.743   5.941  12.228 -0.0877  0.8751 -0.1858
11857TIP3   OH257061   0.802   3.242   1.701  0.3518 -0.3911  0.3186
11857TIP3    H157062   0.768   3.170   1.753  0.4852  0.0970  1.0933
11857TIP3    H257063   0.731   3.263   1.640  0.5469 -1.5806 -0.3615
11858TIP3   OH257064   5.436   0.658   3.523  0.2473 -0.1361  0.2876
11858TIP3    H157065   5.359   0.709   3.499  1.0896  0.3557 -1.6434
11858TIP3    H257066   5.510   0.716   3.501  1.2594  0.2152  3.8624
11859TIP3   OH257067   3.220   2.902  16.410 -0.0886  0.3589 -0.4523
11859TIP3    H157068   3.212   2.960  16.333  2.8973 -1.3477 -2.2255
11859TIP3    H257069   3.251   2.959  16.480 -1.1186  1.6134 -0.9631
11860TIP3   OH257070   0.669   4.544  16.940 -0.0574 -0.2692 -0.7951
11860TIP3    H157071   0.681   4.634  16.972 -1.3800 -0.3282 -0.0752
11860TIP3    H257072   0.703   4.545  16.851 -1.4851  1.3506 -1.3545
11861TIP3   OH257073   6.600   2.514   3.239  0.4018  0.4983 -0.8189
11861TIP3    H157074   6.561   2.585   3.291  1.2007 -0.8837  1.8897
11861TIP3    H257075   6.678   2.489   3.288 -0.5290 -3.1079 -0.8588
11862TIP3   OH257076   0.170   1.374  15.293 -0.7089 -0.0309 -0.2204
11862TIP3    H157077   0.135   1.325  15.367 -0.1498 -0.8787 -0.4963
11862TIP3    H257078   0.265   1.365  15.301 -0.5975  0.8914 -0.3718
11863TIP3   OH257079   3.698   4.077   4.024  0.3285 -0.0733 -0.0569
11863TIP3    H157080   3.620   4.081   3.969  0.3806  1.1216 -0.0631
11863TIP3    H257081   3.711   3.983   4.041  0.2135 -0.4561 -1.9231
11864TIP3   OH257082   5.734   5.829  12.745  0.3463 -0.5322 -0.5297
11864TIP3    H157083   5.713   5.811  12.837 -0.0425 -0.1830 -0.5504
11864TIP3    H257084   5.749   5.923  12.742  0.8680 -0.6197 -0.7256
11865TIP3   OH257085   0.287   1.783  12.281  0.5855  0.0843  0.0316
11865TIP3    H157086   0.238   1.708  12.315 -0.3173  1.0634  0.9770
11865TIP3    H257087   0.379   1.759  12.292  0.3052 -0.7101  0.7091
11866TIP3   OH257088   2.607   3.500   1.068 -0.0914 -0.1761  0.0058
11866TIP3    H157089   2.535   3.561   1.051 -2.5480 -2.2465  2.1296
11866TIP3    H257090   2.667   3.549   1.125 -1.4309  0.6236  0.7850
11867TIP3   OH257091   6.227   2.852   4.074 -0.6816 -0.6798 -0.9132
11867TIP3    H157092   6.180   2.798   4.011 -1.0187 -1.3447 -0.0982
11867TIP3    H257093   6.315   2.814   4.078 -0.8289 -0.9910 -0.5670
11868TIP3   OH257094   4.534   1.780   2.843  0.5464 -0.1145  0.4092
11868TIP3    H157095   4.477   1.775   2.767  1.1848  1.0455 -0.1775
11868TIP3    H257096   4.613   1.731   2.818  0.3173 -0.6653  0.7491
11869TIP3   OH257097   3.651   6.432  16.145 -0.1792  0.7515 -1.0720
11869TIP3    H157098   3.565   6.472  16.159 -0.8359 -0.8015 -0.4574
11869TIP3    H257099   3.656   6.362  16.210  0.5819 -0.6684 -2.5889
11870TIP3   OH257100   2.085   4.081  12.546 -0.2651  0.0280  0.5769
11870TIP3    H157101   2.038   4.046  12.622 -2.5879  2.3801  0.3676
11870TIP3    H257102   2.077   4.176  12.555  2.0158  0.4603 -1.0809
11871TIP3   OH257103   2.208   2.927   0.026  0.0652  0.3647 -0.2921
11871TIP3    H157104   2.222   2.835   0.004 -1.3839 -0.2715  1.2757
11871TIP3    H257105   2.119   2.945  -0.003  0.2638  1.2292 -0.3895
11872TIP3   OH257106   4.785   4.504  14.417  0.0318 -0.0393 -0.0757
11872TIP3    H157107   4.795   4.588  14.374  2.2427 -0.6796 -0.9588
11872TIP3    H257108   4.840   4.444  14.366  1.1970 -1.2818  2.4469
11873TIP3   OH257109   2.387   1.658  11.880 -0.0997 -0.0921 -0.3243
11873TIP3    H157110   2.318   1.663  11.814 -1.1520  0.1216  0.7576
11873TIP3    H257111   2.353   1.707  11.955  1.0014 -0.4320  0.4327
11874TIP3   OH257112   4.778   1.793  16.386  0.0902  1.1949 -0.3193
11874TIP3    H157113   4.811   1.883  16.391  0.8432  1.0200 -1.5372
11874TIP3    H257114   4.851   1.739  16.417 -0.1627  0.9678 -0.1107
11875TIP3   OH257115   5.677   1.197   2.141  0.3172  0.5179  0.0073
11875TIP3    H157116   5.688   1.292   2.139  0.5652  0.5051  0.5140
11875TIP3    H257117   5.685   1.175   2.234  1.5003 -0.1446 -0.2413
11876TIP3   OH257118   6.840   4.215  11.697 -0.3793  0.3936  0.1047
11876TIP3    H157119   6.760   4.166  11.716 -0.3128  0.0010 -0.5871
11876TIP3    H257120   6.850   4.274  11.772 -1.2438  0.3626  0.2595
11877TIP3   OH257121   0.002   6.758  12.169 -0.5102  0.0901  0.2991
11877TIP3    H157122  -0.038   6.715  12.245 -1.0459  0.4979  0.2548
11877TIP3    H257123  -0.072   6.794  12.121 -0.1110  0.5538  0.0246
11878TIP3   OH257124   5.068   4.302  13.808  0.2104  0.0559 -0.0863
11878TIP3    H157125   5.095   4.311  13.716 -0.3968 -1.3678 -0.4319
11878TIP3    H257126   5.147   4.271  13.853  0.0425 -0.9946 -0.4868
11879TIP3   OH257127   3.906   1.298  10.499 -0.2217  0.4632 -0.2583
11879TIP3    H157128   3.872   1.268  10.583  1.6288  1.7396  1.0197
11879TIP3    H257129   3.894   1.223  10.440 -1.2348 -0.5824  1.2083
11880TIP3   OH257130   4.187   2.863   0.515 -0.6476 -0.5035 -0.0278
11880TIP3    H157131   4.117   2.835   0.457 -0.3633 -1.6066  0.1520
11880TIP3    H257132   4.223   2.783   0.551 -0.5680  0.1435  1.4050
11881TIP3   OH257133   0.436   3.496   2.133  0.5758  0.1618  0.2627
11881TIP3    H157134   0.453   3.569   2.193  2.6953  0.1474 -0.2432
11881TIP3    H257135   0.453   3.531   2.046  0.9538 -0.7410 -0.0427
11882TIP3   OH257136   2.608   1.226  10.828 -0.4560 -0.4176 -0.5422
11882TIP3    H157137   2.521   1.265  10.839 -0.1829 -0.3673  2.2271
11882TIP3    H257138   2.599   1.136  10.859  0.7945  0.1184  1.6557
11883TIP3   OH257139   0.527   2.826  12.116 -0.1262  0.6132 -0.4904
11883TIP3    H157140   0.506   2.914  12.085  3.3791  1.1426 -1.8259
11883TIP3    H257141   0.479   2.768  12.058  0.2696  1.6706 -1.9234
11884TIP3   OH257142   2.287   2.308  16.599 -0.0689  0.3845 -0.3108
11884TIP3    H157143   2.223   2.379  16.602  1.4593  1.8034  0.3399
11884TIP3    H257144   2.369   2.348  16.629  0.7846 -1.7441  0.4207
11885TIP3   OH257145   5.887   6.144   4.267 -0.6849 -0.8041 -0.6258
11885TIP3    H157146   5.938   6.064   4.255  2.4007  0.7587  0.9054
11885TIP3    H257147   5.928   6.208   4.209  0.1869  0.9028  1.7081
11886TIP3   OH257148   1.270   6.009  10.253 -0.0894 -0.4950  0.1474
11886TIP3    H157149   1.251   6.044  10.166  0.1427 -2.4716 -0.7571
11886TIP3    H257150   1.193   6.030  10.305 -0.7293 -0.2868 -0.8689
11887TIP3   OH257151   1.818   6.657   6.068  0.0637 -0.8484 -0.5506
11887TIP3    H157152   1.835   6.696   5.983 -1.8071  0.9074 -0.2072
11887TIP3    H257153   1.840   6.565   6.058  0.9047 -0.4608 -2.5957
11888TIP3   OH257154   5.750   1.734   1.017  0.2541 -0.4811  0.1761
11888TIP3    H157155   5.810   1.713   1.088  1.1455 -1.1180 -0.7433
11888TIP3    H257156   5.694   1.657   1.008  0.4042 -0.5622 -0.0726
11889TIP3   OH257157   4.284   3.232   0.064 -0.5359  0.7815  0.4029
11889TIP3    H157158   4.373   3.265   0.074 -0.6602  1.8069 -1.4787
11889TIP3    H257159   4.281   3.153   0.118  1.4438  0.8407  0.6467
11890TIP3   OH257160   6.318   4.792  15.200 -0.5403  0.4665  0.2548
11890TIP3    H157161   6.291   4.726  15.264 -0.7116  0.3247  0.0353
11890TIP3    H257162   6.274   4.872  15.230 -0.2580  0.5061  0.5737
11891TIP3   OH257163   2.474   1.643   0.496 -0.2706 -0.2426  0.3458
11891TIP3    H157164   2.498   1.734   0.478  0.9051 -0.3541  1.2080
11891TIP3    H257165   2.498   1.629   0.587  2.7149 -2.2964 -0.5688
11892TIP3   OH257166   3.506   4.562   0.260 -0.3545  0.0252  0.8804
11892TIP3    H157167   3.452   4.486   0.240 -0.0697  0.0040  0.1544
11892TIP3    H257168   3.454   4.637   0.232 -0.5326  0.0912  1.3696
11893TIP3   OH257169   3.310   6.637  13.735  0.2873  0.1138 -0.1062
11893TIP3    H157170   3.376   6.595  13.790 -0.2355 -0.5074  0.0617
11893TIP3    H257171   3.351   6.640  13.648  1.1607  1.2056  0.3081
11894TIP3   OH257172   1.641   6.082   4.199  0.1432  0.2620  0.5729
11894TIP3    H157173   1.669   6.134   4.124  1.0408  1.5258  1.7423
11894TIP3    H257174   1.548   6.065   4.183  0.8944 -1.9266 -2.1740
11895TIP3   OH257175   5.335   0.641   4.887  0.2820  0.1345  0.0737
11895TIP3    H157176   5.240   0.637   4.894  0.3423 -0.0696  0.8307
11895TIP3    H257177   5.356   0.586   4.812 -0.4137  2.5608 -2.0559
11896TIP3   OH257178   0.229   3.261  13.253  0.3091  0.0052 -0.0762
11896TIP3    H157179   0.304   3.203  13.267 -0.4113 -0.7644  0.7026
11896TIP3    H257180   0.247   3.337  13.307  2.4284  1.7273 -2.8845
11897TIP3   OH257181   2.825   4.257  13.654  0.1180 -0.3533 -0.1723
11897TIP3    H157182   2.819   4.270  13.559  1.5510  0.3216 -0.2054
11897TIP3    H257183   2.916   4.229  13.668  1.1774  3.2415  1.3249
11898TIP3   OH257184   1.104   1.484   2.100  0.1848 -0.3805  0.2146
11898TIP3    H157185   1.104   1.472   2.195  1.2247 -0.1358  0.2617
11898TIP3    H257186   1.077   1.575   2.087 -1.9434 -0.9765  0.1525
11899TIP3   OH257187   1.492   6.105  14.948  0.0129 -0.5301  0.0547
11899TIP3    H157188   1.504   6.175  14.884 -0.0025  0.0708  0.7033
11899TIP3    H257189   1.472   6.150  15.030  1.9980 -1.2009  0.9531
11900TIP3   OH257190   4.440   5.885   3.294 -0.0037  0.5492  0.3151
11900TIP3    H157191   4.533   5.904   3.301 -0.2452  2.2212 -0.7046
11900TIP3    H257192   4.436   5.789   3.290  1.8460  0.4841 -1.9668
11901TIP3   OH257193   1.931   4.850  15.101 -0.3353 -0.6461  0.4705
11901TIP3    H157194   1.961   4.857  15.191 -0.7564  0.4095  0.5432
11901TIP3    H257195   2.009   4.827  15.051 -0.1110 -1.2982  1.0961
11902TIP3   OH257196   2.962   3.819  11.956  0.6137  0.3964  0.5211
11902TIP3    H157197   2.972   3.904  11.913  2.8516 -0.2065 -0.2949
11902TIP3    H257198   2.910   3.767  11.895  1.3364  0.4432 -0.1565
11903TIP3   OH257199   4.891   1.133  10.952  0.0251  0.2974  0.2502
11903TIP3    H157200   4.952   1.206  10.945 -0.0978  0.4833  0.9995
11903TIP3    H257201   4.940   1.057  10.922  0.3877  0.5669  0.1590
11904TIP3   OH257202   3.390   0.375  10.716 -0.2674  0.3853  0.2495
11904TIP3    H157203   3.477   0.416  10.713 -0.6436  1.1444 -1.5128
11904TIP3    H257204   3.400   0.303  10.779  1.7322  0.2439 -0.1488
11905TIP3   OH257205   4.121   5.124  11.488 -0.0492 -0.5358 -0.2443
11905TIP3    H157206   4.131   5.060  11.559  3.2061  0.4209  0.3363
11905TIP3    H257207   4.070   5.195  11.527 -0.4080 -1.0974  0.3428
11906TIP3   OH257208   3.012   5.586   2.864 -0.9335 -0.1546  0.0865
11906TIP3    H157209   2.995   5.533   2.786  0.3314 -0.0471 -0.2809
11906TIP3    H257210   3.037   5.671   2.829 -0.6554 -0.0161  0.6260
11907TIP3   OH257211   4.855   3.166   3.191  0.2165  0.2873 -0.2950
11907TIP3    H157212   4.856   3.101   3.261 -0.6200 -1.6097 -1.9709
11907TIP3    H257213   4.901   3.124   3.118  0.5762  1.9906 -1.1046
11908TIP3   OH257214   4.124   5.824  11.718 -0.1635  0.1415 -0.4180
11908TIP3    H157215   4.161   5.850  11.633 -0.6449  1.7960 -0.1658
11908TIP3    H257216   4.081   5.903  11.750  0.7594 -0.1846  1.7990
11909TIP3   OH257217   4.236   4.935  13.110 -0.3302 -0.2246 -0.3696
11909TIP3    H157218   4.268   5.022  13.135 -0.4931 -0.3857  0.4122
11909TIP3    H257219   4.267   4.877  13.179  1.2611 -1.1070 -1.7358
11910TIP3   OH257220   3.301   0.729  13.455 -0.4741  0.0519 -0.2559
11910TIP3    H157221   3.325   0.747  13.364 -1.5712 -0.0114 -0.5624
11910TIP3    H257222   3.362   0.661  13.483  0.1247  0.3484 -0.8142
11911TIP3   OH257223   2.089   5.907   4.191 -0.5409  0.0480 -0.5374
11911TIP3    H157224   2.054   5.995   4.179 -2.8265 -0.7554 -0.2545
11911TIP3    H257225   2.043   5.872   4.267 -0.5530 -1.7974 -1.3325
11912TIP3   OH257226   0.239   3.296   5.427 -0.1848 -0.2935 -0.6018
11912TIP3    H157227   0.249   3.217   5.481 -0.6490  0.1629  0.1728
11912TIP3    H257228   0.157   3.283   5.379  0.1557 -0.6368 -1.1013
11913TIP3   OH257229   5.645   3.938  12.427  0.6455 -0.1396  0.5069
11913TIP3    H157230   5.691   4.016  12.396  1.2685 -0.5457  0.3880
11913TIP3    H257231   5.598   3.905  12.351  1.7899 -0.8626  0.0690
11914TIP3   OH257232   0.254   6.402   0.381 -0.7085  0.2488 -0.4205
11914TIP3    H157233   0.284   6.484   0.341  1.3553  0.3452  1.1258
11914TIP3    H257234   0.227   6.428   0.469 -2.8556 -0.3139 -0.8752
11915TIP3   OH257235   5.368   6.337  13.554 -0.5080 -0.3498 -0.1535
11915TIP3    H157236   5.308   6.386  13.498 -1.2549 -1.1762 -0.1058
11915TIP3    H257237   5.392   6.260  13.502  0.9059  0.1937 -0.3541
11916TIP3   OH257238   1.214   5.247  10.888  0.1525 -0.9147 -0.4459
11916TIP3    H157239   1.207   5.335  10.852 -0.9675 -0.7951 -0.0078
11916TIP3    H257240   1.224   5.190  10.812  2.1162 -0.3243 -0.6649
11917TIP3   OH257241   3.575   5.190   3.000 -0.3928  1.0532 -0.2602
11917TIP3    H157242   3.620   5.260   2.953 -0.2059  0.5302 -0.8806
11917TIP3    H257243   3.505   5.234   3.048 -0.3803  1.6470 -0.7694
11918TIP3   OH257244   0.233   3.255   4.720  0.2357 -0.4633 -0.1128
11918TIP3    H157245   0.202   3.167   4.740 -4.9866  1.1554  0.3389
11918TIP3    H257246   0.255   3.293   4.805  1.7187 -0.9752 -0.2335
11919TIP3   OH257247   1.870   1.417   5.358  0.4582  0.1685  0.0831
11919TIP3    H157248   1.833   1.382   5.439  2.5895  2.5078  2.2131
11919TIP3    H257249   1.954   1.372   5.348  0.4875  0.3410 -0.5090
11920TIP3   OH257250   3.032   0.461  15.956  0.4738 -0.2859 -0.0831
11920TIP3    H157251   2.962   0.396  15.965 -1.8275  1.9926 -0.4251
11920TIP3    H257252   3.029   0.486  15.864  1.2081  0.4203  0.0762
11921TIP3   OH257253   3.857   0.893  16.270  0.5883 -0.1719 -0.4566
11921TIP3    H157254   3.857   0.800  16.295 -1.0851 -0.7878 -2.5095
11921TIP3    H257255   3.896   0.894  16.183  1.1636  1.1705 -0.1998
11922TIP3   OH257256   6.852   5.663  10.628 -0.5483 -0.1683  0.0015
11922TIP3    H157257   6.880   5.704  10.709 -0.1024 -1.2190  0.4040
11922TIP3    H257258   6.900   5.709  10.559  0.5971 -0.5602  0.5106
11923TIP3   OH257259   2.303   3.635  11.443  0.2370 -0.5007  0.2326
11923TIP3    H157260   2.328   3.585  11.365 -1.0666 -1.6924  0.5443
11923TIP3    H257261   2.304   3.571  11.514  0.7877  0.4364  1.0952
11924TIP3   OH257262   3.799   2.969   5.128  0.0417  0.4885  0.9135
11924TIP3    H157263   3.874   2.957   5.069 -0.2480 -1.9792  0.9253
11924TIP3    H257264   3.834   3.021   5.200  0.9257  1.8861 -0.4486
11925TIP3   OH257265   5.142   1.950   6.134 -0.1652 -0.4827  0.0855
11925TIP3    H157266   5.181   2.018   6.188 -1.1118 -0.7143  1.0858
11925TIP3    H257267   5.113   1.996   6.055 -1.9990  0.6082  1.2960
11926TIP3   OH257268   1.419   4.595  13.834 -0.1255 -0.5992  0.4972
11926TIP3    H157269   1.414   4.625  13.924  0.5157  0.5729  0.1697
11926TIP3    H257270   1.496   4.537  13.832  2.0079  2.0377  0.0563
11927TIP3   OH257271   6.090   1.247   1.380 -0.3717  0.2858  0.0622
11927TIP3    H157272   6.122   1.177   1.436  2.1013 -1.8696 -3.5616
11927TIP3    H257273   6.006   1.215   1.346 -1.1826  0.9589  1.3761
11928TIP3   OH257274   6.664   0.192  14.921 -0.0064  0.7314  0.1425
11928TIP3    H157275   6.697   0.103  14.907 -1.9741 -0.2557  1.2365
11928TIP3    H257276   6.592   0.201  14.859  0.0645  1.4897  0.1645
11929TIP3   OH257277   2.211   5.639  10.882  0.2424  0.2209  1.0379
11929TIP3    H157278   2.302   5.631  10.853 -0.3950 -0.3812 -0.9641
11929TIP3    H257279   2.192   5.732  10.876  0.1624  0.1314 -0.5293
11930TIP3   OH257280   0.256   0.684   5.508 -0.2498  0.5586 -0.0885
11930TIP3    H157281   0.328   0.632   5.470 -0.3177 -0.0620  0.6045
11930TIP3    H257282   0.297   0.732   5.580 -0.6059 -0.1804  0.6325
11931TIP3   OH257283   1.131   3.525   5.761  0.3937 -0.4790 -0.2111
11931TIP3    H157284   1.177   3.470   5.824  2.4467  0.7987 -0.4807
11931TIP3    H257285   1.126   3.611   5.804 -2.2918 -0.6688  0.0074
11932TIP3   OH257286   3.361   5.139  16.009  0.3480 -0.6905 -0.5511
11932TIP3    H157287   3.346   5.051  15.974 -1.7735 -0.8572  0.6092
11932TIP3    H257288   3.314   5.197  15.950 -2.0755 -0.8462  1.0502
11933TIP3   OH257289   4.867   2.036   3.694 -0.0013  0.3575 -0.1372
11933TIP3    H157290   4.838   1.985   3.770 -1.2036 -1.2410 -1.5925
11933TIP3    H257291   4.911   2.112   3.732  3.0264 -2.2665  2.2390
11934TIP3   OH257292   6.468   2.952   5.658 -0.2482 -0.0058 -0.5139
11934TIP3    H157293   6.504   2.999   5.733  1.8763 -1.6070 -0.4628
11934TIP3    H257294   6.375   2.942   5.678 -0.0822  1.1871  1.0132
11935TIP3   OH257295   6.761   2.401   3.450  0.0474 -0.1236  0.2809
11935TIP3    H157296   6.713   2.393   3.532 -1.8246  0.4489 -0.6960
11935TIP3    H257297   6.792   2.312   3.431 -0.7557 -0.5382  0.8917
11936TIP3   OH257298   5.489   3.778   1.062 -0.2309  0.4211  0.2527
11936TIP3    H157299   5.507   3.770   1.156  0.1815 -0.0002  0.1436
11936TIP3    H257300   5.471   3.871   1.049 -0.2883  0.4822  0.7480
11937TIP3   OH257301   4.856   2.726  11.966  0.4362  0.4046  0.1041
11937TIP3    H157302   4.930   2.780  11.938 -0.1246  0.8258 -0.5882
11937TIP3    H257303   4.879   2.638  11.936  2.3007 -0.2355  2.9702
11938TIP3   OH257304   5.329   2.623   2.748  0.2231  0.7334  0.3132
11938TIP3    H157305   5.419   2.650   2.733  0.3712 -0.6143 -1.6077
11938TIP3    H257306   5.288   2.625   2.661 -1.2739  0.2273  0.9620
11939TIP3   OH257307   4.648   4.270  16.823  1.1881 -0.0095  0.3308
11939TIP3    H157308   4.697   4.322  16.760  1.9153 -1.6698 -0.5358
11939TIP3    H257309   4.571   4.324  16.844  1.9713  1.4532 -0.3837
11940TIP3   OH257310   6.012   0.225  13.984  0.0599 -0.7721 -0.1962
11940TIP3    H157311   6.064   0.256  14.058 -0.0530 -0.2533 -0.3258
11940TIP3    H257312   5.955   0.158  14.021 -2.1554  1.5270  0.9233
11941TIP3   OH257313   2.758   2.076   3.816 -0.7519  0.1230 -0.1449
11941TIP3    H157314   2.800   2.050   3.734 -1.2315 -0.0925 -0.3309
11941TIP3    H257315   2.708   1.998   3.842  0.6319 -0.3662  1.1823
11942TIP3   OH257316   3.400   5.940   5.967 -0.2090  0.2109 -0.1534
11942TIP3    H157317   3.384   5.977   6.054  0.9411 -0.1538  0.2415
11942TIP3    H257318   3.479   5.886   5.979 -0.3683 -0.2916 -1.2971
11943TIP3   OH257319   3.007   0.054   6.016  0.3865 -0.1100  0.5322
11943TIP3    H157320   3.063   0.040   5.940 -1.5576 -0.9571 -0.8352
11943TIP3    H257321   3.031  -0.015   6.077  2.4979  1.0286  1.1161
11944TIP3   OH257322   4.241   6.274   0.774  0.6588  0.4060 -0.3513
11944TIP3    H157323   4.164   6.285   0.719  0.2616  0.6147  0.2410
11944TIP3    H257324   4.218   6.315   0.857  0.8926 -0.7664  0.3156
11945TIP3   OH257325   6.146   0.251  15.897  0.6708  0.7801  0.8939
11945TIP3    H157326   6.214   0.256  15.965  1.0141 -0.0845  0.6266
11945TIP3    H257327   6.123   0.158  15.893  1.5278  0.5994 -1.0047
11946TIP3   OH257328   1.259   6.389  16.925  0.0417 -0.1384 -0.1976
11946TIP3    H157329   1.217   6.421  16.845 -0.4242  1.9551  0.8032
11946TIP3    H257330   1.188   6.381  16.988  0.6965  0.5166  0.6543
11947TIP3   OH257331   6.212   1.000  15.472  0.4202  0.0581  0.1506
11947TIP3    H157332   6.193   1.028  15.383  0.1658 -1.3547 -0.2760
11947TIP3    H257333   6.297   1.039  15.492  0.3551  0.6029 -0.6152
11948TIP3   OH257334   3.764   4.051   5.251 -0.6244 -0.6285  0.1472
11948TIP3    H157335   3.669   4.054   5.261 -0.5254 -0.1072  1.0343
11948TIP3    H257336   3.778   4.061   5.157 -1.4239 -0.1427  0.0695
11949TIP3   OH257337   1.077   0.775   3.752 -0.3131 -0.0864  0.1707
11949TIP3    H157338   1.102   0.683   3.745  0.1377 -0.3521  3.3966
11949TIP3    H257339   0.989   0.772   3.792 -0.9373  0.9008 -1.0830
11950TIP3   OH257340   3.979   5.692   4.943 -0.3460 -0.0134 -0.0635
11950TIP3    H157341   3.995   5.760   5.008 -2.1656 -0.6995  1.2085
11950TIP3    H257342   4.045   5.625   4.961  1.1204  1.1404 -0.9902
11951TIP3   OH257343   1.739   4.599  13.084  0.1278  0.1338  1.0644
11951TIP3    H157344   1.777   4.639  13.006 -0.5987  1.4680  1.3636
11951TIP3    H257345   1.778   4.647  13.158 -0.4929  0.0667  1.4483
11952TIP3   OH257346   0.082   6.500  12.600 -0.6715 -0.0860 -0.2205
11952TIP3    H157347   0.049   6.426  12.550  0.2116 -1.9755  1.8238
11952TIP3    H257348   0.016   6.514  12.669  0.3147 -0.5946  0.8562
11953TIP3   OH257349   6.200   0.100   1.396 -0.5414  0.4000  0.0051
11953TIP3    H157350   6.163   0.012   1.386 -0.1541  0.2504 -0.1418
11953TIP3    H257351   6.124   0.157   1.407 -0.7572 -0.0899  1.1845
11954TIP3   OH257352   4.537   0.095   4.372 -0.1631 -0.3170 -0.6183
11954TIP3    H157353   4.511   0.110   4.463  0.0402 -0.6848 -0.4989
11954TIP3    H257354   4.475   0.147   4.321 -0.5951 -0.5103 -0.2942
11955TIP3   OH257355   5.688   5.345  15.662 -0.1649  0.3464 -0.7184
11955TIP3    H157356   5.770   5.339  15.614 -0.2023  0.0264 -0.7432
11955TIP3    H257357   5.675   5.439  15.677  1.5214  0.2956  1.5424
11956TIP3   OH257358   3.552   4.708  12.172 -0.7172 -0.4154  0.6860
11956TIP3    H157359   3.632   4.751  12.204  1.8163 -3.4799 -0.9992
11956TIP3    H257360   3.557   4.716  12.077 -1.6818 -1.8687  0.4927
11957TIP3   OH257361   5.079   4.442   3.325  0.0046 -0.2899 -0.5488
11957TIP3    H157362   5.114   4.520   3.282 -0.5007 -0.2242 -0.8454
11957TIP3    H257363   5.128   4.436   3.407  0.7470 -0.2230 -0.9679
11958TIP3   OH257364   1.711   3.138   0.224 -0.0687 -0.6190 -0.4011
11958TIP3    H157365   1.639   3.160   0.284 -0.4132 -0.6541 -0.8008
11958TIP3    H257366   1.738   3.222   0.187 -0.5712 -0.7153 -1.0033
11959TIP3   OH257367   2.317   5.442  13.185 -0.9360  0.6691  0.5713
11959TIP3    H157368   2.288   5.412  13.272 -1.1756  1.0158  0.6128
11959TIP3    H257369   2.252   5.507  13.160 -3.0967 -2.0243 -1.4818
11960TIP3   OH257370   3.501   5.732  11.968  0.3245 -0.2789  0.2318
11960TIP3    H157371   3.446   5.769  12.038 -0.4667 -0.2441 -0.3944
11960TIP3    H257372   3.521   5.806  11.911 -1.9442 -0.8699 -1.4789
11961TIP3   OH257373   3.421   4.277  16.193  0.3193  0.3709 -0.0139
11961TIP3    H157374   3.415   4.357  16.245  0.8363  0.9330 -0.7917
11961TIP3    H257375   3.348   4.283  16.131  1.2808  1.0500 -1.1320
11962TIP3   OH257376   0.051   6.235  12.412  0.2004 -0.5946  0.2700
11962TIP3    H157377   0.081   6.187  12.334 -1.4706 -1.2954 -0.0028
11962TIP3    H257378   0.086   6.185  12.486 -2.8250 -3.4119  0.0503
11963TIP3   OH257379   0.857   2.769   3.481  0.2380  0.0380  0.7672
11963TIP3    H157380   0.800   2.702   3.443 -0.0542 -0.1526  1.5363
11963TIP3    H257381   0.851   2.843   3.421  0.0142 -0.3686  0.2837
11964TIP3   OH257382   3.573   6.625   6.168 -0.3123 -0.0818 -0.1033
11964TIP3    H157383   3.482   6.596   6.162  0.7650 -4.0624  0.3762
11964TIP3    H257384   3.600   6.601   6.257  0.7545  2.9529  0.5363
11965TIP3   OH257385   1.516   6.069   0.836  0.3884  0.0665 -0.7366
11965TIP3    H157386   1.471   6.138   0.885 -0.1971 -0.4651 -0.5211
11965TIP3    H257387   1.588   6.042   0.893  0.7957  0.6900 -0.9425
11966TIP3   OH257388   4.731   6.036   6.432 -0.8174  0.3897  0.6977
11966TIP3    H157389   4.752   5.955   6.478 -1.8877  0.6682  1.7384
11966TIP3    H257390   4.790   6.038   6.357 -0.9807 -1.4958  0.4821
11967TIP3   OH257391   0.508   5.050  11.807 -0.2796  0.1429  0.0243
11967TIP3    H157392   0.475   5.101  11.881 -1.5563  0.8090 -0.9729
11967TIP3    H257393   0.432   5.003  11.775  0.6487 -1.6211  0.2570
11968TIP3   OH257394   3.452   1.144  14.416  0.0151  0.1870  0.7200
11968TIP3    H157395   3.468   1.081  14.347 -0.6585  0.8162 -0.0257
11968TIP3    H257396   3.538   1.184  14.433  0.0322  0.6619 -0.3911
11969TIP3   OH257397   1.736   3.463  12.004 -0.3657  0.6988  0.1247
11969TIP3    H157398   1.760   3.459  11.911 -1.3715  2.5868 -0.2623
11969TIP3    H257399   1.819   3.450  12.051  0.0812 -0.7735 -0.9866
11970TIP3   OH257400   5.268   0.539  16.939  0.4840  0.7298  0.0530
11970TIP3    H157401   5.241   0.468  16.997  2.7018  0.4273  0.7983
11970TIP3    H257402   5.215   0.527  16.860  0.4198 -1.3989  0.3740
11971TIP3   OH257403   5.368   2.718  15.006 -0.2885 -0.0745 -0.0285
11971TIP3    H157404   5.431   2.748  14.941  0.4288  0.2711  0.8051
11971TIP3    H257405   5.384   2.624  15.013 -2.6691 -0.8315 -2.7882
11972TIP3   OH257406   5.010   0.484  11.977 -0.2384 -0.1658  0.2270
11972TIP3    H157407   4.927   0.530  11.991 -0.4236 -0.7021  0.9790
11972TIP3    H257408   5.076   0.553  11.976 -0.8849  0.5205 -2.6289
11973TIP3   OH257409   6.131   3.705   0.823 -0.5451 -0.0127  0.4923
11973TIP3    H157410   6.153   3.655   0.901  0.2153 -1.5761 -0.6692
11973TIP3    H257411   6.201   3.770   0.816 -0.3498 -0.1832  0.8339
11974TIP3   OH257412   1.123   0.289   2.397  0.1328 -0.2210 -0.0969
11974TIP3    H157413   1.184   0.320   2.330 -1.6767  0.7261 -1.3888
11974TIP3    H257414   1.159   0.204   2.424  0.5569 -1.0344 -2.8626
11975TIP3   OH257415   2.117   3.979  16.595  0.0018  0.0911  0.2107
11975TIP3    H157416   2.072   4.023  16.667 -1.0561  0.2072 -0.4927
11975TIP3    H257417   2.090   3.887  16.601 -0.3622  0.1632 -0.2240
11976TIP3   OH257418   3.894   1.054   1.457  0.5257  0.1113 -0.0765
11976TIP3    H157419   3.905   1.003   1.377  0.6071 -2.0759  1.2438
11976TIP3    H257420   3.800   1.073   1.462  0.7111  1.6406 -1.4125
11977TIP3   OH257421   3.870   5.479  13.012 -0.2111  0.1724  0.0301
11977TIP3    H157422   3.855   5.573  13.025 -3.2754 -0.3362  1.1124
11977TIP3    H257423   3.895   5.471  12.920  0.5256  2.0542  0.0137
11978TIP3   OH257424   6.085   5.593   0.525 -0.0624 -0.6404 -0.6193
11978TIP3    H157425   6.032   5.623   0.451  0.0658  0.5422 -0.2444
11978TIP3    H257426   6.021   5.558   0.588 -0.2367 -0.8828 -0.9277
11979TIP3   OH257427   6.774   3.539  14.957  0.2589  0.1425 -0.3138
11979TIP3    H157428   6.864   3.517  14.982 -0.3248 -0.1151  1.6706
11979TIP3    H257429   6.783   3.621  14.907  1.6257 -0.1359 -0.5782
11980TIP3   OH257430   2.660   4.221   2.987 -0.1001 -0.0708  0.4043
11980TIP3    H157431   2.573   4.241   3.021  0.5297  2.4471  0.7522
11980TIP3    H257432   2.706   4.305   2.988  2.8024 -1.5162  1.5403
11981TIP3   OH257433   3.072   4.183   5.899  0.1490  0.7354 -0.1870
11981TIP3    H157434   3.096   4.170   5.807 -0.6720 -1.6574 -0.1191
11981TIP3    H257435   3.156   4.200   5.943  0.7860  0.0932 -1.1077
11982TIP3   OH257436   3.227   2.239  12.265 -0.4789  0.3602  0.4258
11982TIP3    H157437   3.294   2.192  12.216 -1.0224  1.9328 -2.0486
11982TIP3    H257438   3.164   2.172  12.291 -0.4560 -0.5269 -1.6240
11983TIP3   OH257439   1.754   1.411  17.107 -0.5363 -0.8559 -0.1566
11983TIP3    H157440   1.658   1.413  17.109 -0.5652 -1.5877 -0.4264
11983TIP3    H257441   1.775   1.324  17.075  0.2483 -1.4173  1.7372
11984TIP3   OH257442   4.328   3.794   4.047  0.2846 -0.2487  0.2646
11984TIP3    H157443   4.234   3.792   4.034  0.0488  0.7672  1.5465
11984TIP3    H257444   4.351   3.887   4.048  1.2431 -0.4688  0.3150
11985TIP3   OH257445   0.012   4.453  15.330  0.7741  0.3580 -0.5792
11985TIP3    H157446   0.049   4.514  15.266  0.0356  2.3248  0.7774
11985TIP3    H257447   0.089   4.416  15.374  1.2833  3.3299  1.2500
11986TIP3   OH257448   6.605   0.244   4.627  0.0874 -0.2103  0.0383
11986TIP3    H157449   6.538   0.233   4.694 -0.2911  0.5993 -0.1989
11986TIP3    H257450   6.641   0.331   4.643  1.6164 -0.9282  0.6341
11987TIP3   OH257451   4.751   2.116  12.253  0.5517  0.2118 -0.2384
11987TIP3    H157452   4.813   2.081  12.317 -0.6389 -0.9305  0.3088
11987TIP3    H257453   4.807   2.147  12.181  1.7527 -1.0605  0.1011
11988TIP3   OH257454   2.544   2.738   5.130 -0.2360  0.0054 -0.2154
11988TIP3    H157455   2.629   2.694   5.120  0.7407  1.4880  1.0736
11988TIP3    H257456   2.480   2.672   5.104  1.2787 -1.3644 -0.6559
11989TIP3   OH257457   6.375   5.912  11.629  0.5279 -0.0354 -0.0142
11989TIP3    H157458   6.363   6.007  11.636 -0.2673 -0.1771  0.6148
11989TIP3    H257459   6.289   5.878  11.605  0.6909 -0.6483  0.2367
11990TIP3   OH257460   4.180   6.027  13.724  0.3896 -0.1144 -0.2592
11990TIP3    H157461   4.111   6.044  13.787 -0.0406  1.0451 -1.0080
11990TIP3    H257462   4.261   6.042  13.773  0.0608  2.6955 -0.3976
11991TIP3   OH257463   1.399   2.188  16.766  0.1742  0.0951 -0.4321
11991TIP3    H157464   1.412   2.251  16.695  1.8490 -1.0255 -1.1713
11991TIP3    H257465   1.485   2.178  16.806 -0.1228 -1.4738 -0.1093
11992TIP3   OH257466   4.580   2.447  10.938  0.0779  0.2124  0.4846
11992TIP3    H157467   4.527   2.373  10.911 -1.4013  1.9506 -1.7006
11992TIP3    H257468   4.663   2.408  10.966 -1.2088 -2.3392  1.0373
11993TIP3   OH257469   3.811   0.563   1.642  0.3084 -0.3189 -0.4065
11993TIP3    H157470   3.832   0.643   1.689  0.0748 -0.3044 -0.3263
11993TIP3    H257471   3.894   0.534   1.605  0.6633 -0.7934  0.7200
11994TIP3   OH257472   5.475   3.994   4.086  0.2799  0.1204 -0.6658
11994TIP3    H157473   5.418   4.042   4.146 -0.4204 -0.9610 -0.4363
11994TIP3    H257474   5.552   3.971   4.139  0.0122 -0.1647 -0.4020
11995TIP3   OH257475   3.037   1.798  10.972  0.1558  0.1160  0.6573
11995TIP3    H157476   2.966   1.783  10.909  0.9174 -1.6405  0.1654
11995TIP3    H257477   3.117   1.796  10.919  0.6350  1.6099  1.2764
11996TIP3   OH257478   5.362   3.014  12.246  0.0292  0.6068  0.0327
11996TIP3    H157479   5.364   2.919  12.256  1.0449  0.6689  0.5469
11996TIP3    H257480   5.272   3.033  12.219  0.2161 -0.6569 -1.7163
11997TIP3   OH257481   2.039   4.164  15.613 -0.4034 -0.1150  0.0400
11997TIP3    H157482   1.946   4.180  15.630 -0.1808  0.5076  0.7198
11997TIP3    H257483   2.058   4.081  15.657 -0.1336  0.8511  1.8185
11998TIP3   OH257484   6.229   5.676  16.171  0.3057  0.0668  0.1498
11998TIP3    H157485   6.268   5.762  16.153 -2.8120  1.6552  0.2922
11998TIP3    H257486   6.187   5.651  16.088  0.7173 -1.0805  0.2695
11999TIP3   OH257487   2.225   0.900  12.915  0.1015 -0.0026  0.3291
11999TIP3    H157488   2.225   0.883  12.820  3.3696  0.4730  0.1335
11999TIP3    H257489   2.272   0.826  12.953 -0.0297  0.4638  1.4317
12000TIP3   OH257490   2.853   3.976   5.956 -0.7043  0.2751 -0.1058
12000TIP3    H157491   2.854   4.071   5.947 -0.3910  0.4772  1.5609
12000TIP3    H257492   2.771   3.957   6.002 -1.5067 -0.4493 -1.7522
12001TIP3   OH257493   0.720   6.120  13.793 -0.1667 -0.1751 -0.6706
12001TIP3    H157494   0.774   6.143  13.718  0.3174 -0.8354 -0.5320
12001TIP3    H257495   0.631   6.121  13.760 -0.0438  0.4853 -1.0105
12002TIP3   OH257496   1.206   3.302  11.766 -0.0743  0.5361  0.3031
12002TIP3    H157497   1.298   3.326  11.767  0.2603 -0.1662 -3.2739
12002TIP3    H257498   1.202   3.220  11.817  1.8448 -0.9433 -1.7652
12003TIP3   OH257499   0.688   4.393  14.352  0.2212 -0.1149  0.9969
12003TIP3    H157500   0.684   4.472  14.407 -0.3656  0.5109  0.0911
12003TIP3    H257501   0.673   4.321  14.413  1.2620  0.4280  1.9236
12004TIP3   OH257502   2.981   2.322   1.370  0.2242  0.6521  0.3420
12004TIP3    H157503   2.913   2.314   1.437  0.7966 -0.2771  0.8329
12004TIP3    H257504   3.050   2.374   1.410  0.3672  0.4886  0.3097
12005TIP3   OH257505   5.691   6.743   0.820  0.1789  0.4268  0.4595
12005TIP3    H157506   5.686   6.755   0.725  1.1591 -0.6456  0.2316
12005TIP3    H257507   5.662   6.826   0.857 -2.5620  0.0853 -0.7101
12006TIP3   OH257508   2.909   5.168   0.459 -0.5296  0.2746 -0.5424
12006TIP3    H157509   2.829   5.156   0.510  0.5857 -1.8685  0.8635
12006TIP3    H257510   2.882   5.153   0.368 -1.8397  0.3616 -0.1924
12007TIP3   OH257511   6.731   5.157  15.911  0.0385  0.2153  0.0134
12007TIP3    H157512   6.821   5.134  15.934  0.7305  2.0135 -0.7377
12007TIP3    H257513   6.718   5.119  15.824  1.2478  2.6036 -1.3160
12008TIP3   OH257514   4.228   5.007   5.308 -0.2108  0.3822  0.1852
12008TIP3    H157515   4.152   4.997   5.250  0.0623 -0.3833 -0.0544
12008TIP3    H257516   4.292   5.054   5.254 -0.7670  1.6737  0.6303
12009TIP3   OH257517   0.674   5.438   5.484 -0.2973  0.2371  0.1609
12009TIP3    H157518   0.603   5.436   5.420  0.4062 -0.0875 -0.6193
12009TIP3    H257519   0.712   5.351   5.480  1.7715  1.1415 -1.2943
12010TIP3   OH257520   3.287   1.758  14.723 -0.1258 -0.0614  0.6459
12010TIP3    H157521   3.263   1.780  14.633 -0.0933 -1.2725  0.3175
12010TIP3    H257522   3.258   1.832  14.775 -0.1303  0.6679 -0.3658
12011TIP3   OH257523   3.846   5.470   5.121  0.3426  0.6230 -0.3321
12011TIP3    H157524   3.919   5.532   5.124 -1.0378  2.2889  0.7481
12011TIP3    H257525   3.789   5.496   5.193 -2.4719  0.8572 -2.4833
12012TIP3   OH257526   6.683   6.323  15.754 -0.2058 -1.0764 -0.2388
12012TIP3    H157527   6.688   6.287  15.666 -2.2367 -0.6233 -0.5781
12012TIP3    H257528   6.657   6.415  15.741  1.2031 -0.4984  0.7726
12013TIP3   OH257529   0.549   6.385  16.139  0.1348 -0.0375  0.1132
12013TIP3    H157530   0.603   6.323  16.091 -0.9156 -0.4672 -0.5183
12013TIP3    H257531   0.480   6.411  16.078 -0.7568  0.0171  1.1154
12014TIP3   OH257532   2.433   2.512   2.403  0.3073  0.1281 -0.3726
12014TIP3    H157533   2.421   2.587   2.462  1.4895  0.9469 -1.1184
12014TIP3    H257534   2.503   2.461   2.444  1.2329  0.7764 -1.1033
12015TIP3   OH257535   4.562   4.907   1.438  0.3578 -0.3350 -0.0475
12015TIP3    H157536   4.476   4.877   1.407  0.6149  0.2623 -1.4414
12015TIP3    H257537   4.592   4.966   1.369  2.4420 -1.4876 -0.2033
12016TIP3   OH257538   2.625   6.651   5.277 -0.4729 -0.1247  0.2125
12016TIP3    H157539   2.688   6.601   5.328  0.6120  0.8735 -0.0991
12016TIP3    H257540   2.566   6.585   5.240 -1.3849 -0.8875  2.7962
12017TIP3   OH257541   5.417   5.136  15.229 -0.1880  0.0250  0.3182
12017TIP3    H157542   5.492   5.188  15.199 -0.0662 -0.5465 -0.3959
12017TIP3    H257543   5.357   5.137  15.154 -0.8094  0.3156  0.8174
12018TIP3   OH257544   3.471   4.745   0.570  0.5973  0.1661  0.8255
12018TIP3    H157545   3.494   4.666   0.521  0.8208  1.3473 -1.1242
12018TIP3    H257546   3.555   4.776   0.605  0.6295 -0.0599  0.9481
12019TIP3   OH257547   5.244   0.164  13.408 -0.0046  0.2367 -0.7949
12019TIP3    H157548   5.302   0.138  13.479  0.3409  1.0724 -0.7630
12019TIP3    H257549   5.240   0.087  13.351  1.2499  0.2079 -0.8703
12020TIP3   OH257550   3.429   5.338   0.986 -0.4861  0.1596 -0.4803
12020TIP3    H157551   3.426   5.402   0.914 -1.0514 -1.0861 -1.6060
12020TIP3    H257552   3.522   5.331   1.008 -0.3531  0.8800 -0.7888
12021TIP3   OH257553   2.236   2.001   1.492 -0.6764  0.1156 -0.6061
12021TIP3    H157554   2.264   2.005   1.401 -0.1487  1.3250 -0.4122
12021TIP3    H257555   2.317   2.009   1.543 -0.9512 -0.6364 -0.0213
12022TIP3   OH257556   3.679   1.729   2.489  0.4531  0.3126 -0.4761
12022TIP3    H157557   3.693   1.823   2.504 -1.4364  0.7856 -1.4257
12022TIP3    H257558   3.606   1.707   2.548  0.1507 -0.3001 -1.0774
12023TIP3   OH257559   4.961   4.437   4.708  0.3569  0.8900  0.2096
12023TIP3    H157560   4.933   4.348   4.728  0.3484  0.6967 -0.6110
12023TIP3    H257561   4.883   4.490   4.725  1.0880  1.1696  3.2941
12024TIP3   OH257562   3.091   1.255   4.181  0.3083  0.1906  0.1616
12024TIP3    H157563   3.044   1.318   4.236 -3.2471 -2.8210  0.9692
12024TIP3    H257564   3.073   1.283   4.091 -0.0346  1.0584  0.4869
12025TIP3   OH257565   1.130   3.671  13.021  0.2750 -0.2268  0.4047
12025TIP3    H157566   1.157   3.746  12.966 -1.1202  1.3999  1.8230
12025TIP3    H257567   1.068   3.623  12.966  0.4521  0.1938 -0.1832
12026TIP3   OH257568   2.877   3.320  15.091  0.2182  0.5422 -0.3938
12026TIP3    H157569   2.809   3.346  15.028 -0.0102 -0.9839 -0.8309
12026TIP3    H257570   2.842   3.347  15.176 -0.1758  1.2567 -0.7718
12027TIP3   OH257571   1.862   6.209  13.261 -0.0360  0.5663 -0.2961
12027TIP3    H157572   1.849   6.243  13.173  1.4211  0.5165 -0.5608
12027TIP3    H257573   1.822   6.275  13.318  2.1615  2.5106 -0.8361
12028TIP3   OH257574   6.802   2.227  11.137  0.1763 -0.3480  0.2344
12028TIP3    H157575   6.866   2.175  11.186 -0.1282 -0.8377  0.1229
12028TIP3    H257576   6.751   2.162  11.088  1.3219  0.1869 -1.7756
12029TIP3   OH257577   2.362   6.638   0.767  0.2332 -0.2859  0.6095
12029TIP3    H157578   2.378   6.730   0.789  0.1682  0.4606 -2.1257
12029TIP3    H257579   2.423   6.620   0.696 -1.7578 -1.4743 -0.8807
12030TIP3   OH257580   6.638   1.852   0.399  0.1048  0.0811 -0.5999
12030TIP3    H157581   6.684   1.834   0.318  0.4176  1.5951 -0.7883
12030TIP3    H257582   6.666   1.940   0.424 -0.0590 -0.3041  1.1047
12031TIP3   OH257583   3.711   1.930   4.532 -0.3452 -0.6374 -0.3938
12031TIP3    H157584   3.786   1.919   4.474  0.1049  1.6662 -0.3522
12031TIP3    H257585   3.739   1.890   4.615 -0.2380 -2.1888 -1.1542
12032TIP3   OH257586   1.745   4.079  15.858 -0.2824 -0.0061  0.0912
12032TIP3    H157587   1.823   4.125  15.890  0.5309  0.1795 -1.9850
12032TIP3    H257588   1.690   4.148  15.822 -0.4975 -0.3350 -0.2142
12033TIP3   OH257589   2.087   4.516   3.754  0.0774  0.1054 -0.4946
12033TIP3    H157590   2.125   4.540   3.669  0.4611  0.5175 -0.2128
12033TIP3    H257591   2.140   4.442   3.784  0.1978  0.2099 -0.4426
12034TIP3   OH257592   4.025   4.006  11.147  0.1542  0.3249 -0.5702
12034TIP3    H157593   4.005   4.046  11.062  1.6480  2.5252  0.0380
12034TIP3    H257594   4.065   3.922  11.125  1.8157  1.4611 -2.1331
12035TIP3   OH257595   0.435   1.407   0.048 -0.0102  0.4109 -0.3474
12035TIP3    H157596   0.486   1.333   0.082 -0.6896  0.3517  0.5963
12035TIP3    H257597   0.480   1.432  -0.032  0.4716 -0.7678 -0.4715
12036TIP3   OH257598   5.270   2.788  11.000  0.0576 -0.1006 -0.3103
12036TIP3    H157599   5.365   2.805  11.000 -0.0122  0.5151  1.3801
12036TIP3    H257600   5.231   2.875  11.011 -0.5797 -0.6224  1.9131
12037TIP3   OH257601   5.068   5.062  14.518 -0.7361 -0.5474 -0.5213
12037TIP3    H157602   5.024   4.997  14.573  0.0403  1.6892  3.1027
12037TIP3    H257603   5.159   5.060  14.547  0.2407 -0.6403 -3.3275
12038TIP3   OH257604   0.486   6.135   1.049  0.7739  0.4468  0.2374
12038TIP3    H157605   0.406   6.159   1.003  0.6514 -0.6136 -0.1149
12038TIP3    H257606   0.457   6.106   1.135  0.9934  2.3185  0.9969
12039TIP3   OH257607   4.440   3.249  15.392 -0.4541 -0.1377  0.2681
12039TIP3    H157608   4.485   3.190  15.452  1.0621  2.2487  1.6695
12039TIP3    H257609   4.506   3.273  15.327 -0.2189  1.8007  1.1436
12040TIP3   OH257610   3.140   4.886  15.472  0.1005  0.1434 -0.0493
12040TIP3    H157611   3.060   4.852  15.511  0.7007 -0.7814  0.4194
12040TIP3    H257612   3.132   4.981  15.480 -0.5723  0.0280  0.7792
12041TIP3   OH257613   1.384   1.010   1.734  0.4366  0.4177  0.6851
12041TIP3    H157614   1.446   1.029   1.804  1.7513 -0.7514 -0.1240
12041TIP3    H257615   1.436   0.969   1.666 -1.4461 -1.9199  0.5374
12042TIP3   OH257616   3.871   5.110  12.078 -0.1358  0.0811 -0.1019
12042TIP3    H157617   3.918   5.050  12.020 -0.4913 -0.9018  0.5962
12042TIP3    H257618   3.781   5.077  12.079 -0.2600  0.4151  0.5790
12043TIP3   OH257619   3.050   2.798  11.535  0.6143  0.1875  0.3801
12043TIP3    H157620   3.041   2.739  11.460  0.4053 -0.8366  1.2003
12043TIP3    H257621   2.986   2.766  11.599  0.2760  1.4980  0.7226
12044TIP3   OH257622   2.454   4.576  13.605  0.3750  0.3105  0.5220
12044TIP3    H157623   2.535   4.534  13.634  0.1370  0.2377  1.1050
12044TIP3    H257624   2.397   4.572  13.682 -0.1968  0.3162  0.1005
12045TIP3   OH257625   2.671   4.312  10.540  0.0985  0.2010 -0.3757
12045TIP3    H157626   2.689   4.280  10.628  0.9333  0.8649 -0.2992
12045TIP3    H257627   2.592   4.264  10.513  0.4349 -0.7784  0.3209
12046TIP3   OH257628   0.028   2.335  16.857 -0.0141  0.5236  0.1035
12046TIP3    H157629   0.049   2.303  16.944 -0.8495  1.9382  0.8626
12046TIP3    H257630   0.056   2.265  16.798  0.0100 -0.7144  1.5322
12047TIP3   OH257631   5.139   4.663   3.171 -0.1300 -0.1164  1.0943
12047TIP3    H157632   5.218   4.653   3.118  0.0288  0.3708  1.2356
12047TIP3    H257633   5.104   4.748   3.146 -2.7045 -1.8168 -1.7714
12048TIP3   OH257634   5.992   5.102  12.910 -0.2597  0.4160 -0.5746
12048TIP3    H157635   5.910   5.071  12.948 -3.1720  4.6338 -2.6539
12048TIP3    H257636   6.020   5.031  12.853 -1.9681 -1.4900  0.7962
12049TIP3   OH257637   1.200   2.042  16.006 -0.2743 -0.6740  0.2285
12049TIP3    H157638   1.186   2.070  16.097 -3.4504 -0.7328 -0.1566
12049TIP3    H257639   1.210   2.124  15.957 -1.7150 -0.4734  0.2273
12050TIP3   OH257640   5.254   6.730   3.399  0.2064 -0.3525 -0.3972
12050TIP3    H157641   5.326   6.781   3.437 -0.2679  0.3684 -0.4541
12050TIP3    H257642   5.207   6.695   3.475  0.0650 -0.0471 -0.3435
12051TIP3   OH257643   1.028   2.342  15.650  0.0095  0.6954 -0.2319
12051TIP3    H157644   1.116   2.375  15.633  0.0846  1.3356  1.2275
12051TIP3    H257645   1.032   2.249  15.629  0.8995  0.8236 -0.6331
12052TIP3   OH257646   6.694   0.727  16.335 -0.0720  0.4256 -0.5119
12052TIP3    H157647   6.677   0.639  16.300 -0.0326  0.4050 -0.4796
12052TIP3    H257648   6.639   0.732  16.413  0.3514  0.2192 -0.1960
12053TIP3   OH257649   2.994   0.007   5.352 -0.5956  0.1345 -0.5390
12053TIP3    H157650   2.971   0.033   5.441 -0.5272 -0.7645 -0.2465
12053TIP3    H257651   3.037   0.084   5.315 -1.4083  0.8185 -0.0974
12054TIP3   OH257652   3.597   6.452  11.105 -0.1048 -0.3587 -0.0701
12054TIP3    H157653   3.606   6.362  11.074  1.1186 -0.2828  0.0296
12054TIP3    H257654   3.553   6.498  11.033  0.8679 -0.6444 -0.8600
12055TIP3   OH257655   6.621   3.983  13.031  0.1592  0.1691 -0.0957
12055TIP3    H157656   6.586   4.031  13.106  0.4991  1.4554 -0.7528
12055TIP3    H257657   6.694   4.036  13.000 -1.8786  1.3779 -3.2918
12056TIP3   OH257658   5.768   6.589  12.331 -0.4714  0.1516  0.1300
12056TIP3    H157659   5.818   6.511  12.356 -1.3154  0.0727  1.6371
12056TIP3    H257660   5.818   6.626  12.258  0.7182 -1.0064  0.3129
12057TIP3   OH257661   2.042   0.540  12.016 -0.2016 -0.2096  0.1225
12057TIP3    H157662   2.070   0.457  11.978  0.7766  0.2184 -0.1244
12057TIP3    H257663   2.032   0.598  11.941  1.4534  0.5591  0.4617
12058TIP3   OH257664   2.379   5.918  15.783  0.1734 -0.4698  0.8482
12058TIP3    H157665   2.304   5.865  15.757  1.3672 -2.4613  1.2404
12058TIP3    H257666   2.454   5.859  15.775  1.9099  1.7490 -0.6399
12059TIP3   OH257667   2.506   6.717  15.210 -0.1484 -0.4987 -0.1059
12059TIP3    H157668   2.443   6.670  15.155  1.0156 -0.3342 -1.6328
12059TIP3    H257669   2.475   6.808  15.210 -0.5953 -0.6471  0.1852
12060TIP3   OH257670   3.257   1.022  16.570  0.3672  0.1220 -0.0650
12060TIP3    H157671   3.168   1.041  16.601  0.1547 -1.9363  0.7347
12060TIP3    H257672   3.313   1.048  16.643  0.5534  2.1473 -0.8578
12061TIP3   OH257673   6.270   3.873   1.855  0.5667 -0.1938  0.0551
12061TIP3    H157674   6.347   3.873   1.799  1.0966  3.6697  0.4946
12061TIP3    H257675   6.196   3.864   1.795  1.2303  0.8159 -0.9579
12062TIP3   OH257676   2.459   0.208   5.256 -0.2386  0.2021  0.1183
12062TIP3    H157677   2.417   0.232   5.339 -0.7722 -0.9122  0.2019
12062TIP3    H257678   2.536   0.157   5.282  0.4984  1.1916 -0.0623
12063TIP3   OH257679   5.401   2.961  15.423  0.3311  0.2067  0.5983
12063TIP3    H157680   5.443   2.921  15.500 -0.0709 -0.6977  0.3548
12063TIP3    H257681   5.469   2.961  15.356  1.0883  2.1213  1.2708
12064TIP3   OH257682   3.320   0.564   4.100  0.0093 -0.1467  0.4999
12064TIP3    H157683   3.235   0.583   4.140  0.4129 -1.6685  2.2426
12064TIP3    H257684   3.321   0.469   4.091  0.6403  0.0057 -1.7168
12065TIP3   OH257685   5.497   4.906  15.361 -0.2879  0.2491  0.1978
12065TIP3    H157686   5.466   4.976  15.304 -1.1713 -0.5508 -0.3287
12065TIP3    H257687   5.590   4.924  15.372  0.1878 -0.1793 -2.4287
12066TIP3   OH257688   5.584   1.390  13.596  0.0151  0.3096  0.9967
12066TIP3    H157689   5.524   1.366  13.666 -0.2653 -1.3412  0.2572
12066TIP3    H257690   5.662   1.336  13.612 -0.9499 -1.9706 -1.1913
12067TIP3   OH257691   5.182   2.343   1.955  0.1304 -0.6183 -0.6297
12067TIP3    H157692   5.090   2.318   1.963  0.3401 -1.2667 -0.1346
12067TIP3    H257693   5.180   2.432   1.920 -0.6670 -0.8587 -1.2232
12068TIP3   OH257694   2.132   2.522  12.427  0.2778 -0.1987 -0.4268
12068TIP3    H157695   2.185   2.475  12.492 -0.8144 -2.1243 -0.8491
12068TIP3    H257696   2.197   2.560  12.367  1.2350 -0.4818  0.3932
12069TIP3   OH257697   6.844   1.253  13.314 -0.0280  0.1123 -0.5671
12069TIP3    H157698   6.890   1.170  13.322  1.4117  0.7920 -1.4348
12069TIP3    H257699   6.913   1.319  13.309 -1.1280  1.3483 -0.1649
12070TIP3   OH257700   1.713   6.221   2.698  0.0600 -0.2273  0.0971
12070TIP3    H157701   1.627   6.180   2.690 -0.7206  1.2645  0.5760
12070TIP3    H257702   1.695   6.314   2.711  1.7798  0.3080 -0.9776
12071TIP3   OH257703   1.052   5.270   2.222  0.3719  0.8255  0.0404
12071TIP3    H157704   1.058   5.182   2.185  3.2622  0.8616  0.1836
12071TIP3    H257705   1.065   5.257   2.316  1.5673  1.4263 -0.0238
12072TIP3   OH257706   2.566   6.104  14.885  0.4860  0.0707 -0.3560
12072TIP3    H157707   2.624   6.169  14.925 -0.3426  1.2757 -1.0413
12072TIP3    H257708   2.488   6.105  14.941  0.8128 -0.9965  0.1348
12073TIP3   OH257709   4.747   2.720   2.750  0.8170 -0.1096 -0.6099
12073TIP3    H157710   4.678   2.713   2.816  0.5259 -1.2683 -1.0069
12073TIP3    H257711   4.828   2.712   2.799  0.6979  1.3957 -0.1215
12074TIP3   OH257712   6.680   6.379   3.703  0.1066 -0.2636  0.3516
12074TIP3    H157713   6.637   6.430   3.634  0.5836  1.8883  1.5438
12074TIP3    H257714   6.768   6.364   3.669 -0.3142 -1.1465 -0.3959
12075TIP3   OH257715   1.475   3.344  11.749  0.4610  0.1174 -0.1417
12075TIP3    H157716   1.475   3.249  11.734 -0.9006 -0.3028  1.9594
12075TIP3    H257717   1.559   3.362  11.790  1.4504  0.1663 -2.1005
12076TIP3   OH257718   2.461   6.434  12.164 -0.3270 -0.0155 -0.6876
12076TIP3    H157719   2.438   6.510  12.218  0.7008  0.1543 -0.4780
12076TIP3    H257720   2.403   6.364  12.195 -1.1948  0.6332 -0.7932
12077TIP3   OH257721   0.251   1.859  11.206 -0.3813  0.3295  0.1609
12077TIP3    H157722   0.341   1.891  11.207 -0.6397  1.0907  0.1206
12077TIP3    H257723   0.258   1.765  11.225  0.4461  0.2895 -0.3105
12078TIP3   OH257724   4.333   1.501   2.328 -0.4162  0.4756 -0.3183
12078TIP3    H157725   4.259   1.452   2.363  0.0516  0.4541  0.6639
12078TIP3    H257726   4.368   1.550   2.403  0.4227  0.6643 -0.8171
12079TIP3   OH257727   3.006   6.483   3.337  0.2023 -0.6632  0.3746
12079TIP3    H157728   3.051   6.459   3.418  0.2799  1.5755  1.0759
12079TIP3    H257729   3.068   6.540   3.292  0.1143 -1.8026 -1.2517
12080TIP3   OH257730   6.758   3.564  17.109 -0.0662 -0.0509  0.0846
12080TIP3    H157731   6.830   3.560  17.172 -1.2917 -0.6891  1.5147
12080TIP3    H257732   6.699   3.493  17.136 -0.3712 -0.7058 -2.1492
12081TIP3   OH257733   6.797   5.774   2.656  0.6701  0.0231 -0.0103
12081TIP3    H157734   6.759   5.823   2.728  0.3912  1.9514 -1.3827
12081TIP3    H257735   6.864   5.719   2.697 -1.1891 -0.8984  1.9974
12082TIP3   OH257736   4.850   0.231   2.372 -0.2870 -0.7849  0.0144
12082TIP3    H157737   4.816   0.321   2.372 -0.2053 -0.7182 -2.0829
12082TIP3    H257738   4.773   0.177   2.392 -0.7412 -0.3696 -0.5793
12083TIP3   OH257739   2.488   2.909  15.560 -0.2486 -0.3065  0.0748
12083TIP3    H157740   2.444   2.847  15.618  1.7608 -0.5626  1.4035
12083TIP3    H257741   2.550   2.856  15.511 -0.1902  0.3016 -0.5212
12084TIP3   OH257742   4.876   6.436   3.520 -0.3739  0.1725 -0.3244
12084TIP3    H157743   4.935   6.474   3.455  0.3061 -0.7732 -0.2744
12084TIP3    H257744   4.910   6.466   3.604 -0.3597  0.1717 -0.3299
12085TIP3   OH257745   5.583   1.233  16.463  0.0803  0.1635  0.3977
12085TIP3    H157746   5.623   1.230  16.550  1.6614  0.3716 -0.2915
12085TIP3    H257747   5.534   1.150  16.456  0.9674 -0.4317  1.0213
12086TIP3   OH257748   5.627   6.403  16.630  0.1220 -0.2163  0.2804
12086TIP3    H157749   5.594   6.313  16.628 -0.3989 -0.0169 -0.9725
12086TIP3    H257750   5.573   6.450  16.567  2.4572  0.2384 -1.5073
12087TIP3   OH257751   2.797   5.165   0.220 -0.2358 -0.0109 -0.6055
12087TIP3    H157752   2.728   5.150   0.155 -1.8160  0.6768  0.8305
12087TIP3    H257753   2.773   5.248   0.261  1.1191 -0.0722  0.3768
12088TIP3   OH257754   1.213   6.057   0.100 -0.1765 -0.1937 -0.2243
12088TIP3    H157755   1.140   6.035   0.042  0.1180 -0.0386 -0.6607
12088TIP3    H257756   1.210   6.153   0.106  1.1927 -0.0050 -1.8630
12089TIP3   OH257757   6.039   0.089  13.498  0.4037 -0.3937  0.1715
12089TIP3    H157758   6.121   0.072  13.451  1.4115  2.0768  0.8749
12089TIP3    H257759   6.067   0.120  13.584 -1.3099 -0.1303  0.6581
12090TIP3   OH257760   1.589   2.342   0.450  0.4801  0.3046 -0.1502
12090TIP3    H157761   1.627   2.286   0.383 -0.6716 -2.6584  1.5111
12090TIP3    H257762   1.656   2.349   0.518  0.3456  0.3281 -0.0184
12091TIP3   OH257763   6.101   6.478  16.746  0.0858  0.5621 -0.0970
12091TIP3    H157764   6.049   6.490  16.667 -1.9764 -0.3230  1.0502
12091TIP3    H257765   6.048   6.420  16.801  1.5873  0.9089  1.8175
12092TIP3   OH257766   1.796   0.779  13.710 -0.0517 -0.2487 -0.5152
12092TIP3    H157767   1.844   0.770  13.627  0.6296  1.3057 -0.3335
12092TIP3    H257768   1.724   0.717  13.703  0.7164 -1.0580 -1.7359
12093TIP3   OH257769   4.374   3.002  14.022 -0.5054  0.4820 -0.0774
12093TIP3    H157770   4.283   2.972  14.017  0.2710 -2.0771 -0.5418
12093TIP3    H257771   4.424   2.922  14.041  1.3946  2.2745  3.3316
12094TIP3   OH257772   2.320   5.519  11.479  0.0251 -0.9943  0.0704
12094TIP3    H157773   2.334   5.489  11.389 -1.4108 -1.3115 -0.0758
12094TIP3    H257774   2.391   5.479  11.529 -0.0332 -2.0496 -0.6685
12095TIP3   OH257775   6.614   5.139  11.770  0.0265 -0.8667  0.2389
12095TIP3    H157776   6.684   5.192  11.732  0.0631 -2.2472 -1.7521
12095TIP3    H257777   6.575   5.093  11.696 -1.6998 -1.6634  1.5559
12096TIP3   OH257778   3.003   1.034  11.940  0.1271 -0.3421 -0.0154
12096TIP3    H157779   2.950   0.956  11.956 -0.5987  0.4217  1.4419
12096TIP3    H257780   3.068   1.034  12.011  0.2785  0.2532 -0.1509
12097TIP3   OH257781   1.902   1.338   3.233 -0.5499  0.3305  0.1957
12097TIP3    H157782   1.880   1.323   3.325 -1.4219  1.4298  0.1812
12097TIP3    H257783   1.945   1.257   3.206  1.4248  0.6514  2.0794
12098TIP3   OH257784   0.054   4.056   6.342 -0.4436 -0.0811 -0.8502
12098TIP3    H157785   0.010   4.140   6.351  0.3054  0.1812  0.5387
12098TIP3    H257786   0.145   4.078   6.322  0.0692 -0.5009  0.8574
12099TIP3   OH257787   0.692   1.696  15.227  0.0001  0.0749  0.1443
12099TIP3    H157788   0.726   1.634  15.163  1.5808  0.1164  0.8906
12099TIP3    H257789   0.612   1.656  15.260  0.1773 -0.8226 -0.5003
12100TIP3   OH257790   1.763   3.676   6.780  0.2595  0.0838 -0.9279
12100TIP3    H157791   1.755   3.581   6.792  1.8213 -0.1702 -1.6856
12100TIP3    H257792   1.678   3.703   6.746 -0.4299 -0.9220 -0.1021
12101TIP3   OH257793   1.410   1.185   1.307 -0.8927  0.0393  0.1317
12101TIP3    H157794   1.385   1.227   1.389 -1.8717  1.0877 -0.6805
12101TIP3    H257795   1.327   1.160   1.266 -0.3725 -2.7135  0.5586
12102TIP3   OH257796   5.552   0.483   0.325 -0.3579  0.9913 -0.2793
12102TIP3    H157797   5.566   0.392   0.299  1.7143  1.0212  0.5529
12102TIP3    H257798   5.509   0.523   0.250  0.7174 -0.1621 -1.5677
12103TIP3   OH257799   3.720   0.268  13.746 -0.1336  0.5034 -0.1433
12103TIP3    H157800   3.815   0.276  13.731 -0.2091  0.7752 -0.4694
12103TIP3    H257801   3.703   0.174  13.741  0.2866  0.3556  0.9107
12104TIP3   OH257802   0.235   3.503  12.720  0.7081 -0.1377  0.6099
12104TIP3    H157803   0.321   3.465  12.741  1.7524  1.0563 -1.2262
12104TIP3    H257804   0.239   3.591  12.757  0.3392 -0.0165  0.3573
12105TIP3   OH257805   4.569   0.217   1.548  0.4683 -0.1586  0.5258
12105TIP3    H157806   4.647   0.224   1.604  0.4947 -1.6664  0.7071
12105TIP3    H257807   4.597   0.163   1.475 -0.2539 -0.2519  0.3117
12106TIP3   OH257808   5.287   4.493  13.070 -0.2499  0.6593  0.1751
12106TIP3    H157809   5.328   4.437  13.004  0.8953  1.8706 -0.1902
12106TIP3    H257810   5.210   4.444  13.098  0.7674 -1.1594 -0.0157
12107TIP3   OH257811   3.913   4.936  17.051  0.0275  0.1436  0.1520
12107TIP3    H157812   3.935   4.995  17.123 -1.2927 -0.4313  1.0815
12107TIP3    H257813   3.914   4.849  17.091 -1.4725 -0.1190 -0.3086
12108TIP3   OH257814   4.906   4.018  13.322 -0.8402 -0.2658  0.5984
12108TIP3    H157815   4.892   4.023  13.227 -1.7735 -1.5050  0.6545
12108TIP3    H257816   4.989   3.973  13.332  0.1731  1.4420  0.3739
12109TIP3   OH257817   5.858   3.285  12.642  0.8456  0.9664 -0.9619
12109TIP3    H157818   5.809   3.326  12.714  1.8390  0.3809  0.0966
12109TIP3    H257819   5.818   3.198  12.633  0.9854  0.8858 -0.8215
12110TIP3   OH257820   4.638   3.339  11.495 -0.4887 -0.0686 -0.0115
12110TIP3    H157821   4.609   3.271  11.556 -0.8232  1.5928  1.7829
12110TIP3    H257822   4.558   3.367  11.451 -0.5376 -0.0489  0.0892
12111TIP3   OH257823   4.198   1.136  15.852  0.4489  0.2278 -0.1431
12111TIP3    H157824   4.284   1.096  15.840  1.5006  2.7018 -1.9690
12111TIP3    H257825   4.139   1.081  15.801  1.2813 -0.5698 -0.2731
12112TIP3   OH257826   4.759   4.441   2.464 -0.0698 -0.2319  0.8881
12112TIP3    H157827   4.792   4.431   2.375  0.7926  0.3788  1.1209
12112TIP3    H257828   4.697   4.513   2.459 -0.0161 -0.1937  0.7732
12113TIP3   OH257829   2.449   4.166   3.546  0.3430  0.6887  0.1471
12113TIP3    H157830   2.431   4.250   3.504  0.0683  0.6200  0.1276
12113TIP3    H257831   2.457   4.105   3.473  0.1648  0.6254  0.1819
12114TIP3   OH257832   0.386   4.455  16.942 -0.3287  0.3511 -0.2499
12114TIP3    H157833   0.415   4.475  16.853 -0.6467 -0.0443 -0.4447
12114TIP3    H257834   0.461   4.479  16.997 -0.1531  0.6582 -0.6120
12115TIP3   OH257835   5.236   1.049  16.126 -0.0278  0.2760 -0.2178
12115TIP3    H157836   5.244   0.959  16.092  1.3063 -0.2299  1.3270
12115TIP3    H257837   5.312   1.095  16.090  0.4627  0.1921  0.6885
12116TIP3   OH257838   0.682   6.124  15.147 -0.6404  0.1993  0.2409
12116TIP3    H157839   0.641   6.182  15.083 -0.8732  0.5033  0.6570
12116TIP3    H257840   0.774   6.122  15.123 -0.7114  0.3857 -0.0447
12117TIP3   OH257841   6.776   3.883  15.095  0.3768 -0.2418 -0.2805
12117TIP3    H157842   6.815   3.945  15.033  1.7280 -0.4161  0.3832
12117TIP3    H257843   6.783   3.926  15.180  0.4659 -0.9127  0.0553
12118TIP3   OH257844   3.127   1.966   4.583 -0.1058 -0.2877  0.5556
12118TIP3    H157845   3.039   1.931   4.571  0.0996 -0.7145  0.2816
12118TIP3    H257846   3.157   1.987   4.495  0.5265 -1.2761  0.5178
12119TIP3   OH257847   1.708   1.379   2.732 -0.2051 -0.2348  0.0657
12119TIP3    H157848   1.705   1.287   2.705 -0.1303 -0.4707  0.8237
12119TIP3    H257849   1.656   1.382   2.813  1.7357 -0.1233  1.3898
12120TIP3   OH257850   2.361   6.636  13.357  0.0625  0.1430  0.3949
12120TIP3    H157851   2.278   6.603  13.321  0.1091 -0.2058  0.6057
12120TIP3    H257852   2.346   6.641  13.451  0.5935 -0.8558  0.5483
12121TIP3   OH257853   1.297   6.414   6.108 -0.2116 -0.4156 -0.0575
12121TIP3    H157854   1.374   6.402   6.052  0.6634 -1.1057  1.2531
12121TIP3    H257855   1.231   6.356   6.070  0.1655 -0.4203 -0.7206
12122TIP3   OH257856   1.629   5.717  10.562 -0.3631  0.3823 -0.1142
12122TIP3    H157857   1.613   5.778  10.490 -2.0622 -0.6390 -0.6686
12122TIP3    H257858   1.724   5.704  10.562 -0.3351 -0.0141 -2.5691
12123TIP3   OH257859   5.116   4.966   2.353  0.2147 -0.3591  0.0339
12123TIP3    H157860   5.135   4.872   2.353 -0.0320 -0.4073  0.6993
12123TIP3    H257861   5.166   5.001   2.427 -1.5171 -0.3305  1.2332
12124TIP3   OH257862   4.626   3.856   2.373  0.0398 -0.5839  0.3542
12124TIP3    H157863   4.575   3.873   2.452  0.4822  2.0061  0.1746
12124TIP3    H257864   4.569   3.886   2.302  0.9417  0.3119 -0.0154
12125TIP3   OH257865   0.077   3.933  14.540  0.0262 -0.2553  0.0252
12125TIP3    H157866   0.162   3.894  14.523 -1.4032 -3.8758  0.2410
12125TIP3    H257867   0.015   3.876  14.496 -2.5865 -0.2271  3.2502
12126TIP3   OH257868   2.246   6.829  12.492 -0.3305 -0.3135  0.2072
12126TIP3    H157869   2.230   6.870  12.407 -0.1009  1.5764  1.0046
12126TIP3    H257870   2.340   6.842  12.507 -0.1535 -1.5855  0.3133
12127TIP3   OH257871   2.234   0.116   0.504 -0.3848  0.2188  0.1130
12127TIP3    H157872   2.190   0.187   0.552  1.6527  1.2758  0.5096
12127TIP3    H257873   2.292   0.076   0.569 -0.1689 -0.6379 -0.5949
12128TIP3   OH257874   2.185   3.746  15.879  0.9070 -0.2797 -0.3575
12128TIP3    H157875   2.161   3.784  15.795 -0.9761  0.7916  0.5890
12128TIP3    H257876   2.252   3.805  15.914 -0.2310  0.8209  0.0283
12129TIP3   OH257877   0.657   1.648  10.189 -0.2395 -0.0744  0.2527
12129TIP3    H157878   0.576   1.687  10.222 -0.7931  0.5500 -1.7387
12129TIP3    H257879   0.629   1.566  10.148 -0.3002  1.3043 -2.6299
12130TIP3   OH257880   3.669   6.122   3.158 -0.1609  0.9555  0.4718
12130TIP3    H157881   3.651   6.065   3.233  0.6020 -0.1022 -0.1251
12130TIP3    H257882   3.684   6.062   3.085  1.4616  1.8705 -0.0079
12131TIP3   OH257883   4.020   1.162  10.871  0.9295  0.3188 -0.2862
12131TIP3    H157884   4.080   1.113  10.815  2.1538  0.5766  0.7446
12131TIP3    H257885   3.942   1.175  10.817  0.9871 -1.7836 -0.9598
12132TIP3   OH257886   6.379   6.349  15.621 -0.1063 -0.0349  0.0569
12132TIP3    H157887   6.409   6.285  15.686  1.8622 -0.5760 -1.2818
12132TIP3    H257888   6.336   6.297  15.553 -0.0903  0.2663 -0.1855
12133TIP3   OH257889   2.231   4.635  16.457 -0.5496  0.2745  0.6909
12133TIP3    H157890   2.206   4.569  16.392 -0.4738  1.2206 -0.3428
12133TIP3    H257891   2.153   4.690  16.465 -0.2944  0.6173  0.8124
12134TIP3   OH257892   0.312   1.072   5.395  0.3571 -0.2054  0.4824
12134TIP3    H157893   0.342   1.077   5.304  0.4378 -1.2026  0.4449
12134TIP3    H257894   0.270   0.986   5.402 -3.3428  1.4237  0.2886
12135TIP3   OH257895   0.145   3.347  13.921 -0.0649 -0.1930  0.4552
12135TIP3    H157896   0.180   3.400  13.850 -0.5275  0.5844  0.7946
12135TIP3    H257897   0.053   3.374  13.929 -0.2420 -0.8631  0.8007
12136TIP3   OH257898   0.710   4.628  10.270 -0.0274 -0.1143  0.0298
12136TIP3    H157899   0.666   4.545  10.254 -2.8303  1.2873 -0.0335
12136TIP3    H257900   0.696   4.646  10.363  1.3077 -0.0685  0.2485
12137TIP3   OH257901   2.664   6.271   3.138 -0.4743 -0.1326  0.4479
12137TIP3    H157902   2.745   6.225   3.163 -0.9514 -0.7384  0.9139
12137TIP3    H257903   2.608   6.263   3.215 -1.0355  0.1582  0.0697
12138TIP3   OH257904   5.243   5.011   1.062 -0.1140  0.1014 -0.2256
12138TIP3    H157905   5.164   5.060   1.084 -0.1293 -0.8824  2.2792
12138TIP3    H257906   5.315   5.067   1.092  0.0761  0.2878 -1.0096
12139TIP3   OH257907   0.552   0.260  12.005 -0.3664  0.0491  0.1810
12139TIP3    H157908   0.550   0.192  11.938  1.6257  0.1743 -0.0472
12139TIP3    H257909   0.511   0.219  12.082  0.0634 -1.1154 -0.1997
12140TIP3   OH257910   5.970   5.935  15.692  0.9458 -0.4063  0.3135
12140TIP3    H157911   5.881   5.918  15.723 -0.2207  1.9311 -1.4484
12140TIP3    H257912   5.969   5.904  15.601  1.7598  0.1341  0.1176
12141TIP3   OH257913   6.688   3.551  11.202  0.2644 -0.1951 -0.2046
12141TIP3    H157914   6.695   3.598  11.119 -0.3744 -0.3373 -0.3453
12141TIP3    H257915   6.666   3.461  11.177 -2.3855  0.2717  0.1657
12142TIP3   OH257916   6.308   0.282   6.143  0.3831  0.0838  0.2836
12142TIP3    H157917   6.372   0.353   6.145 -0.6549  1.0372  0.7596
12142TIP3    H257918   6.261   0.290   6.227 -1.5371  0.5586 -0.7736
12143TIP3   OH257919   5.666   2.714  14.523  0.8800 -0.4609  0.2244
12143TIP3    H157920   5.650   2.655  14.449 -1.4166  0.4227 -0.0509
12143TIP3    H257921   5.703   2.658  14.591  0.8763 -1.7473 -0.7935
12144TIP3   OH257922   1.834   0.374   1.521 -0.4768 -0.6031  0.3318
12144TIP3    H157923   1.750   0.359   1.564 -0.2185  0.1365  1.1288
12144TIP3    H257924   1.815   0.437   1.452 -1.0585 -2.4464 -1.2651
12145TIP3   OH257925   5.645   0.708   2.077 -0.5012  0.9125  0.3685
12145TIP3    H157926   5.626   0.796   2.046  0.2857  0.7033 -0.7681
12145TIP3    H257927   5.604   0.650   2.013  0.2198  0.4597  0.3015
12146TIP3   OH257928   1.301   5.909   0.864  0.2605  0.0080  0.2278
12146TIP3    H157929   1.243   5.985   0.858  1.5015  1.2715  2.8679
12146TIP3    H257930   1.387   5.944   0.840  0.7536 -0.6883  0.9832
12147TIP3   OH257931   5.659   6.731  14.245  0.4741  0.1457 -0.0178
12147TIP3    H157932   5.594   6.801  14.251 -0.7475 -0.8601 -1.1288
12147TIP3    H257933   5.696   6.739  14.157  2.9431  1.5722  1.0288
12148TIP3   OH257934   0.299   1.104  14.631 -0.0394  0.1525 -0.4072
12148TIP3    H157935   0.239   1.115  14.557 -0.2023  0.7691 -0.1858
12148TIP3    H257936   0.247   1.059  14.698  1.2291 -4.4537 -2.1137
12149TIP3   OH257937   2.901   5.344   2.582  0.4025 -0.3585 -0.8922
12149TIP3    H157938   2.910   5.312   2.492 -3.1335 -0.8300 -1.2339
12149TIP3    H257939   2.902   5.265   2.636 -0.0471 -0.2995 -0.7971
12150TIP3   OH257940   3.204   6.276   6.351 -0.0110 -0.1572  0.3645
12150TIP3    H157941   3.162   6.362   6.352 -0.8625 -0.5618  0.5913
12150TIP3    H257942   3.282   6.287   6.406  0.0116  0.5254  0.2043
12151TIP3   OH257943   2.638   3.995   0.045 -0.5671 -0.1960 -0.4323
12151TIP3    H157944   2.635   3.900   0.036 -0.9398 -0.3478  0.9853
12151TIP3    H257945   2.576   4.027  -0.020 -1.6089 -1.0293  0.1118
12152TIP3   OH257946   2.007   4.271  11.373 -0.1431 -0.0500  0.3689
12152TIP3    H157947   1.984   4.196  11.428  1.4573 -1.9805 -1.4371
12152TIP3    H257948   1.925   4.294  11.328 -0.6571 -0.7236  0.9381
12153TIP3   OH257949   3.171   2.705   3.601  0.2644 -0.0230 -0.0082
12153TIP3    H157950   3.263   2.680   3.593  0.0616 -0.9361  0.3838
12153TIP3    H257951   3.123   2.626   3.577 -0.4097  0.2257  0.5132
12154TIP3   OH257952   4.831   5.201  14.500  0.2289 -0.1894 -0.4019
12154TIP3    H157953   4.772   5.134  14.534 -0.4721  0.8273  0.4493
12154TIP3    H257954   4.918   5.166  14.515 -0.1358 -1.3436 -0.8950
12155TIP3   OH257955   1.434   2.422  16.616  0.0481 -0.5627 -0.6422
12155TIP3    H157956   1.389   2.429  16.532 -2.2168  0.3669  0.5482
12155TIP3    H257957   1.400   2.496  16.667  1.7007 -0.8289  0.9420
12156TIP3   OH257958   0.111   2.257  17.112 -0.2270  0.1885 -0.4604
12156TIP3    H157959   0.162   2.176  17.119  0.7275  0.8273  0.1914
12156TIP3    H257960   0.078   2.271  17.201  0.6833  1.1831 -0.2652
12157TIP3   OH257961   4.582   2.197   5.731  0.6684  0.3050 -0.2404
12157TIP3    H157962   4.614   2.133   5.795 -0.0087 -0.9799 -1.1522
12157TIP3    H257963   4.643   2.190   5.658  1.3457  1.6607  0.1505
12158TIP3   OH257964   6.726   5.905  15.090 -0.5604  0.3337 -0.1727
12158TIP3    H157965   6.718   5.911  14.995  0.0657  0.4365 -0.2218
12158TIP3    H257966   6.772   5.822  15.105  1.1881  1.2893 -0.0720
12159TIP3   OH257967   4.030   2.135  12.766  0.6486  0.4593 -0.8011
12159TIP3    H157968   4.033   2.139  12.670  0.2055  0.7340 -0.8068
12159TIP3    H257969   4.122   2.142  12.793  0.6224  3.4564 -1.1007
12160TIP3   OH257970   3.257   6.697  15.969 -0.1559 -0.0992 -0.1986
12160TIP3    H157971   3.269   6.792  15.965 -1.7943  0.1162 -1.0739
12160TIP3    H257972   3.284   6.673  16.058 -0.2409  1.2689  0.2203
12161TIP3   OH257973   0.356   1.479  12.697  0.1399 -0.5946  0.3604
12161TIP3    H157974   0.387   1.434  12.618  0.8434  1.6199 -0.7193
12161TIP3    H257975   0.353   1.411  12.764  4.5433 -1.6866 -0.2139
12162TIP3   OH257976   2.750   4.263  14.133  0.4931 -0.0746  0.5467
12162TIP3    H157977   2.685   4.328  14.105  0.6083 -0.8729 -1.8232
12162TIP3    H257978   2.701   4.204  14.191 -1.3158 -1.2738 -2.0049
12163TIP3   OH257979   6.233   5.411  16.720 -0.2508  0.0373 -0.3254
12163TIP3    H157980   6.157   5.399  16.777 -1.0008  2.0024 -0.8224
12163TIP3    H257981   6.226   5.341  16.656 -0.3594 -1.1565  0.9439
12164TIP3   OH257982   0.065   0.965   4.189  0.2348  0.5309 -0.2553
12164TIP3    H157983  -0.004   0.922   4.138 -0.9805  0.0297  1.7363
12164TIP3    H257984   0.080   1.048   4.143 -2.0280  0.8757 -0.4987
12165TIP3   OH257985   3.858   1.365   4.417 -0.2259 -0.4229  0.1056
12165TIP3    H157986   3.824   1.287   4.374  0.1420 -0.0418 -0.8845
12165TIP3    H257987   3.780   1.419   4.433 -0.3917 -0.6794  0.1785
12166TIP3   OH257988   5.163   6.774  14.143  0.1471  0.0254 -0.2437
12166TIP3    H157989   5.232   6.825  14.185 -0.0135 -0.1761  0.2645
12166TIP3    H257990   5.175   6.685  14.176 -1.9411  0.4448  1.8935
12167TIP3   OH257991   4.335   4.282   2.754  0.7958  0.5211  0.5265
12167TIP3    H157992   4.370   4.250   2.671  0.4786  0.3174  0.4700
12167TIP3    H257993   4.298   4.204   2.796  1.5622  0.4976  1.1670
12168TIP3   OH257994   3.263   3.343  14.152 -0.2218 -0.1402 -0.2708
12168TIP3    H157995   3.203   3.409  14.186  0.0898 -0.1854  0.3823
12168TIP3    H257996   3.219   3.260  14.168  0.2169 -0.2044  0.6530
12169TIP3   OH257997   3.957   5.337   2.078  0.2824 -0.0741 -0.2847
12169TIP3    H157998   3.981   5.426   2.051 -1.0117  0.2259 -0.4787
12169TIP3    H257999   3.931   5.346   2.170 -1.0403 -0.0114 -0.6502
12170TIP3   OH258000   5.346   1.461  10.739  0.3195  0.6779 -0.4582
12170TIP3    H158001   5.340   1.529  10.672 -0.6872  0.0365 -1.0419
12170TIP3    H258002   5.405   1.396  10.701  0.3559  0.6766 -0.3991
12171TIP3   OH258003   6.690   6.572  11.813  0.9169 -0.1932  0.7105
12171TIP3    H158004   6.720   6.481  11.820  3.2473  0.4693  0.3073
12171TIP3    H258005   6.689   6.590  11.719  1.0641  0.3564  0.8084
12172TIP3   OH258006   4.090   5.823  11.114 -0.0526 -0.3853 -0.1539
12172TIP3    H158007   4.155   5.791  11.051 -0.5390 -0.8483 -0.4353
12172TIP3    H258008   4.067   5.746  11.166 -0.4500 -0.2508 -0.1245
12173TIP3   OH258009   5.421   2.853   0.949 -0.0004 -0.6914  0.1026
12173TIP3    H158010   5.478   2.926   0.974 -0.3542 -0.9579  1.8089
12173TIP3    H258011   5.333   2.891   0.950 -0.0916 -0.9001  0.0027
12174TIP3   OH258012   3.645   0.269  15.033 -0.0596 -0.2884  0.6600
12174TIP3    H158013   3.716   0.312  15.082 -0.1501  0.6454 -0.0042
12174TIP3    H258014   3.670   0.177  15.031  0.6381 -0.1286  1.2782
12175TIP3   OH258015   4.552   0.807  11.920  0.5131 -0.3962 -0.0349
12175TIP3    H158016   4.490   0.773  11.855 -1.1347  1.6362  0.3730
12175TIP3    H258017   4.511   0.788  12.004  1.5713 -1.0311  0.3551
12176TIP3   OH258018   0.698   5.615   2.708  0.2193 -0.1921 -0.2133
12176TIP3    H158019   0.613   5.573   2.700 -0.3575  0.9636 -0.3912
12176TIP3    H258020   0.749   5.582   2.634 -0.6217  0.3252 -1.0388
12177TIP3   OH258021   1.660   6.408   3.656  0.3552 -0.3156  0.1158
12177TIP3    H158022   1.601   6.357   3.712  0.8455 -1.3207 -0.2712
12177TIP3    H258023   1.652   6.368   3.569 -1.6105  2.1699 -1.0262
12178TIP3   OH258024   1.631   5.268   5.146  0.6855 -0.3632  0.0477
12178TIP3    H158025   1.646   5.340   5.085  1.0342 -0.0096  0.5497
12178TIP3    H258026   1.650   5.189   5.095 -0.6285 -0.1656 -0.7962
12179TIP3   OH258027   0.815   1.454  16.813 -0.2390  0.7617 -0.1507
12179TIP3    H158028   0.903   1.418  16.800 -0.0830  1.1167 -0.0896
12179TIP3    H258029   0.791   1.490  16.728 -0.5158  0.2563 -0.2912
12180TIP3   OH258030   3.610   1.404  14.978  0.2851 -0.0516  0.6525
12180TIP3    H158031   3.517   1.424  14.991  0.5835  1.5850  0.5516
12180TIP3    H258032   3.655   1.478  15.018  1.6617 -1.9384  2.8171
12181TIP3   OH258033   0.636   1.190   2.934 -0.0490 -0.1156  0.1510
12181TIP3    H158034   0.643   1.151   3.021 -0.3468  0.3546  0.3912
12181TIP3    H258035   0.635   1.285   2.950  3.3178  0.1642 -0.5794
12182TIP3   OH258036   2.614   5.004  13.716  0.5375  0.3784 -0.4172
12182TIP3    H158037   2.601   5.029  13.625 -0.8765 -0.5874 -0.5163
12182TIP3    H258038   2.529   4.971  13.745  1.6712 -2.2872  0.2874
12183TIP3   OH258039   5.936   2.841   2.417  0.3402  0.2307  0.5483
12183TIP3    H158040   5.878   2.774   2.454 -0.1201  1.8834  3.1224
12183TIP3    H258041   5.890   2.873   2.339 -1.1671 -0.0327  1.2895
12184TIP3   OH258042   4.376   2.771   1.056  0.0635 -0.0887  0.2069
12184TIP3    H158043   4.381   2.830   1.131  2.5809  0.0022  0.0759
12184TIP3    H258044   4.407   2.687   1.090 -1.6970 -0.8848 -0.0571
12185TIP3   OH258045   0.482   5.234  12.567 -0.1077  0.3741 -0.8865
12185TIP3    H158046   0.442   5.158  12.609  0.2936  1.0879  0.8639
12185TIP3    H258047   0.549   5.263  12.629  1.5712  0.5953 -2.6928
12186TIP3   OH258048   0.259   2.781   5.473  0.1016 -0.6093  0.2962
12186TIP3    H158049   0.309   2.771   5.554  2.0402  1.1798 -0.5948
12186TIP3    H258050   0.196   2.709   5.475  1.6291 -2.0133  2.2678
12187TIP3   OH258051   0.243   5.742  14.071  0.0940 -0.1760  0.5541
12187TIP3    H158052   0.295   5.719  14.147 -0.5054 -1.3687  0.6335
12187TIP3    H258053   0.296   5.714  13.996  0.2586  0.0831  0.5749
12188TIP3   OH258054   6.633   3.080   6.121  0.4966  0.0897  0.0788
12188TIP3    H158055   6.570   3.017   6.159  0.3503  1.1303  1.6558
12188TIP3    H258056   6.690   3.026   6.067 -0.1901 -1.2827  0.6519
12189TIP3   OH258057   1.514   1.612  15.660  0.2761 -0.1157 -0.7070
12189TIP3    H158058   1.521   1.637  15.568  0.9988 -0.3088 -0.7142
12189TIP3    H258059   1.523   1.694  15.708 -2.6285  0.3909 -0.8309
12190TIP3   OH258060   5.553   6.560   6.213  0.3153 -0.4035  0.4418
12190TIP3    H158061   5.509   6.614   6.279 -0.1054 -0.2750  0.0653
12190TIP3    H258062   5.590   6.624   6.151  1.7720 -0.4810  1.2062
12191TIP3   OH258063   4.923   1.959   0.327 -0.0768 -0.8441 -0.2713
12191TIP3    H158064   4.989   1.892   0.308 -0.3924 -0.8479 -1.4170
12191TIP3    H258065   4.851   1.939   0.269 -0.5195  0.0100 -0.0352
12192TIP3   OH258066   2.999   3.445   4.152  0.0647 -0.2613  0.1155
12192TIP3    H158067   2.919   3.465   4.104 -0.3944  0.3387  1.0982
12192TIP3    H258068   3.024   3.358   4.122 -0.3509 -0.0162 -0.9914
12193TIP3   OH258069   3.025   6.804   1.015 -0.0620 -0.0601 -0.4560
12193TIP3    H158070   3.104   6.760   0.984 -1.4643 -1.3122 -2.4549
12193TIP3    H258071   3.021   6.886   0.965 -0.6622 -0.5841 -1.2796
12194TIP3   OH258072   2.638   1.624   0.233 -0.0545  0.0572  0.0651
12194TIP3    H158073   2.605   1.626   0.323 -0.9088  0.6943 -0.2496
12194TIP3    H258074   2.706   1.691   0.230  0.0177 -0.0075  0.2455
12195TIP3   OH258075   0.362   0.184  13.728  0.0865 -0.5859  0.2640
12195TIP3    H158076   0.303   0.177  13.653 -0.7287 -0.8427  0.9100
12195TIP3    H258077   0.313   0.144  13.801  0.9079 -0.4627  0.9010
12196TIP3   OH258078   2.033   6.078   5.560  0.6440  0.0774  0.1179
12196TIP3    H158079   2.010   6.023   5.635 -1.8813 -2.5473 -2.3169
12196TIP3    H258080   1.960   6.138   5.550 -1.5211 -2.6527 -2.6776
12197TIP3   OH258081   6.731   2.462  15.093 -0.1922 -0.8261 -0.1575
12197TIP3    H158082   6.715   2.535  15.033  0.2787 -1.1569 -0.7093
12197TIP3    H258083   6.671   2.394  15.064 -0.1188 -0.9097 -0.1154
12198TIP3   OH258084   6.733   0.058   1.500 -0.2608  0.3078  0.0094
12198TIP3    H158085   6.712  -0.007   1.433  0.8423  0.5904 -0.6371
12198TIP3    H258086   6.648   0.097   1.522 -0.7103 -0.1302 -0.8734
12199TIP3   OH258087   3.541   1.753   0.059  0.1201  0.1913  0.1454
12199TIP3    H158088   3.469   1.756   0.122 -0.3178  1.1791 -0.3813
12199TIP3    H258089   3.594   1.830   0.080  1.1453 -0.6324  0.6545
12200TIP3   OH258090   2.177   2.463   1.883  0.0573  0.5121  0.1672
12200TIP3    H158091   2.167   2.479   1.977  0.8922  1.1245  0.1674
12200TIP3    H258092   2.092   2.486   1.845  0.0828  1.4216  0.6346
12201TIP3   OH258093   4.065   5.787   0.154  0.1359 -0.0801 -0.0011
12201TIP3    H158094   4.150   5.790   0.110 -0.4544 -1.2192 -1.2667
12201TIP3    H258095   4.010   5.733   0.098 -1.1952 -0.0717  1.2322
12202TIP3   OH258096   5.408   2.180   1.963  0.5284  0.0590 -0.3575
12202TIP3    H158097   5.317   2.203   1.982  0.5235 -0.0634 -0.2306
12202TIP3    H258098   5.455   2.263   1.965  0.5528  0.0279  0.3226
12203TIP3   OH258099   3.309   6.817  17.001 -0.1234 -0.2120  0.1454
12203TIP3    H158100   3.278   6.768  17.077  0.2148  1.7306  1.5874
12203TIP3    H258101   3.259   6.898  17.001 -1.0823 -0.6809 -2.5277
12204TIP3   OH258102   6.671   6.357  16.223  0.0902 -0.6863 -0.4241
12204TIP3    H158103   6.669   6.303  16.144  1.4453 -0.3287 -0.7347
12204TIP3    H258104   6.593   6.331  16.273 -0.8785 -0.8171 -1.9395
12205TIP3   OH258105   1.381   1.070   2.315  0.2138 -0.6272 -0.0828
12205TIP3    H158106   1.476   1.067   2.323  0.1124 -0.7048  1.1852
12205TIP3    H258107   1.365   1.137   2.248  1.1724 -1.0057 -0.7035
12206TIP3   OH258108   1.602   1.173  11.522 -0.0881  0.5124 -0.7048
12206TIP3    H158109   1.667   1.127  11.575  0.3019  1.8824  0.0543
12206TIP3    H258110   1.518   1.139  11.552  0.1587  0.8010  0.3409
12207TIP3   OH258111   1.707   6.711  12.904 -0.2920  0.9096 -0.7275
12207TIP3    H158112   1.742   6.633  12.861  2.0545  1.6788 -0.3563
12207TIP3    H258113   1.740   6.785  12.852  1.8286  1.8217  1.7063
12208TIP3   OH258114   4.295   6.516  12.664  0.3552  0.3114  0.5673
12208TIP3    H158115   4.279   6.508  12.758  0.0336  0.4885  0.5322
12208TIP3    H258116   4.260   6.435  12.627  2.3642 -0.7103  0.8052
12209TIP3   OH258117   6.197   6.828   5.811  0.5660 -0.3180  0.2769
12209TIP3    H158118   6.285   6.822   5.849  0.6353 -1.7335 -0.0679
12209TIP3    H258119   6.191   6.753   5.752  0.6690  1.9971 -3.0205
12210TIP3   OH258120   4.667   3.863  13.356  0.6476  0.3874 -0.3305
12210TIP3    H158121   4.701   3.788  13.307 -0.2717  0.8427 -1.7280
12210TIP3    H258122   4.737   3.928  13.354  0.8508  0.1618 -0.5090
12211TIP3   OH258123   3.779   6.142   2.487  0.9720  0.0399 -0.8241
12211TIP3    H158124   3.875   6.138   2.485  1.0059  0.2850 -0.0093
12211TIP3    H258125   3.752   6.066   2.538  0.6963 -0.3248 -1.4974
12212TIP3   OH258126   4.200   5.910   5.956 -0.0879 -0.1310  0.3137
12212TIP3    H158127   4.132   5.946   6.013 -1.0564 -0.2671 -0.7043
12212TIP3    H258128   4.266   5.874   6.015 -1.5095 -1.1070  1.3535
12213TIP3   OH258129   5.470   1.700   0.103 -0.2500 -0.1497  0.5088
12213TIP3    H158130   5.536   1.650   0.152 -1.0479 -1.1007  0.6421
12213TIP3    H258131   5.412   1.633   0.066 -0.1389  0.5900 -1.0723
12214TIP3   OH258132   2.123   5.123  12.972 -0.2476  0.7941 -0.2366
12214TIP3    H158133   2.086   5.205  12.939  0.4055  0.6346 -1.4304
12214TIP3    H258134   2.212   5.121  12.937  0.9485  1.1630  2.5442
12215TIP3   OH258135   4.133   5.155   0.331  0.0644 -0.1001 -0.0046
12215TIP3    H158136   4.121   5.172   0.238 -1.6425 -0.9585  0.0206
12215TIP3    H258137   4.177   5.070   0.334 -0.8307 -0.5820 -0.0478
12216TIP3   OH258138   6.697   4.249   0.174  0.1648 -0.7045  0.2559
12216TIP3    H158139   6.663   4.332   0.141 -1.5573 -1.8985 -1.1624
12216TIP3    H258140   6.770   4.229   0.117  0.8084 -0.0402  0.8174
12217TIP3   OH258141   3.537   3.229  14.888 -0.0063  0.8480  0.2565
12217TIP3    H158142   3.476   3.267  14.825 -0.3021  1.5176  0.9251
12217TIP3    H258143   3.495   3.149  14.917  1.3677 -1.0004 -2.4125
12218TIP3   OH258144   3.566   3.713  14.872  0.1253  0.8398  0.0264
12218TIP3    H158145   3.472   3.716  14.893  0.2688  0.2985  0.8026
12218TIP3    H258146   3.600   3.796  14.906 -0.1045  1.1247 -0.4348
12219TIP3   OH258147   5.249   5.954   4.380  0.0623 -0.1862  0.8270
12219TIP3    H158148   5.228   6.045   4.360 -0.2479 -0.5729 -0.7866
12219TIP3    H258149   5.222   5.942   4.471 -1.2316  0.9371  0.6184
12220TIP3   OH258150   2.483   3.492  13.271  0.1617  0.2139 -0.3819
12220TIP3    H158151   2.407   3.530  13.226 -0.8207  0.3954  1.3703
12220TIP3    H258152   2.500   3.410  13.223 -0.7860  0.4427 -1.1407
12221TIP3   OH258153   0.263   0.168  16.123  0.4015 -0.4175  0.0517
12221TIP3    H158154   0.222   0.224  16.188 -0.3061 -0.6970 -0.1376
12221TIP3    H258155   0.244   0.079  16.153 -0.7684 -0.5531 -1.0352
12222TIP3   OH258156   4.030   6.729   2.737  0.0883 -0.3771 -0.1241
12222TIP3    H158157   3.963   6.746   2.803 -0.1259 -0.6297 -0.2737
12222TIP3    H258158   3.997   6.653   2.689  1.1856 -1.4758  0.7749
12223TIP3   OH258159   5.784   4.934  14.680  0.2199 -0.1841  0.4014
12223TIP3    H158160   5.765   4.996  14.610  0.7783  0.8886  1.1693
12223TIP3    H258161   5.740   4.853  14.654  0.1169  0.3055 -0.9937
12224TIP3   OH258162   2.323   4.320   0.968  0.5656 -0.1118 -0.5830
12224TIP3    H158163   2.274   4.248   0.927 -1.6451  1.8248 -1.5774
12224TIP3    H258164   2.284   4.331   1.054  0.7943  0.0169 -0.4932
12225TIP3   OH258165   0.549   2.950   1.081  0.4721 -0.1035  0.9556
12225TIP3    H158166   0.624   2.906   1.039 -0.0902 -0.5904  0.4329
12225TIP3    H258167   0.486   2.962   1.010 -1.2340 -2.4881  1.9186
12226TIP3   OH258168   5.370   4.983   0.609 -0.3380 -0.3067  0.6349
12226TIP3    H158169   5.393   4.954   0.520 -0.2133 -0.0519  0.5839
12226TIP3    H258170   5.282   4.948   0.624 -0.6136  0.1838  0.1745
12227TIP3   OH258171   6.398   5.326  15.648  0.1741 -0.2632 -0.3858
12227TIP3    H158172   6.379   5.281  15.730  1.0635 -1.8885 -1.0331
12227TIP3    H258173   6.371   5.264  15.580  0.5585  0.5650 -1.3102
12228TIP3   OH258174   5.120   2.495   1.540 -0.3372  0.1009  0.6826
12228TIP3    H158175   5.098   2.430   1.473 -1.7668  0.5709  0.6599
12228TIP3    H258176   5.147   2.572   1.491  0.0763 -0.0369  0.6877
12229TIP3   OH258177   4.452   5.490   4.037  0.1686  0.0331 -0.0645
12229TIP3    H158178   4.369   5.528   4.068  1.3045  0.2890  2.9400
12229TIP3    H258179   4.498   5.564   3.998 -0.8579 -0.0657 -1.5738
12230TIP3   OH258180   6.065   5.781   6.604  0.2872  0.6864  0.5347
12230TIP3    H158181   6.014   5.846   6.555  0.2933  0.0642 -0.3209
12230TIP3    H258182   6.147   5.827   6.626 -0.3114  1.4438  1.2638
12231TIP3   OH258183   4.591   5.202   3.034 -0.3620 -0.6289 -0.5110
12231TIP3    H158184   4.663   5.235   2.981 -0.1321 -0.6904 -0.2399
12231TIP3    H258185   4.515   5.206   2.976 -0.3949  0.6160 -0.4077
12232TIP3   OH258186   0.580   5.220   5.056  0.4739  0.0260  0.1006
12232TIP3    H158187   0.567   5.310   5.085 -1.8218 -0.0593 -0.4420
12232TIP3    H258188   0.580   5.225   4.961  1.6532 -0.4065  0.0698
12233TIP3   OH258189   0.923   0.279   5.756  0.5266  0.1531 -0.3054
12233TIP3    H158190   0.886   0.348   5.811 -2.8051 -0.6289 -1.3148
12233TIP3    H258191   0.871   0.281   5.676  1.3356 -2.5199 -1.0055
12234TIP3   OH258192   0.424   5.801  12.524 -0.1733 -0.1711  0.3701
12234TIP3    H158193   0.481   5.868  12.487  0.4409 -1.1503 -0.5170
12234TIP3    H258194   0.336   5.829  12.500  0.0977  0.1617 -0.2548
12235TIP3   OH258195   5.307   2.089  15.427 -0.1078  0.2467 -0.3461
12235TIP3    H158196   5.255   2.099  15.347  0.9173 -0.7536 -1.1671
12235TIP3    H258197   5.398   2.088  15.396  0.2642 -1.1363  0.7074
12236TIP3   OH258198   1.359   2.661   5.507 -0.9967 -0.0065 -0.3125
12236TIP3    H158199   1.342   2.735   5.566  0.5665  0.4613 -0.4214
12236TIP3    H258200   1.283   2.604   5.518 -0.7745  0.0834  2.1353
12237TIP3   OH258201   5.796   3.914   0.121 -0.1384 -0.0979  0.5120
12237TIP3    H158202   5.859   3.970   0.166 -0.3536  0.7278 -0.1871
12237TIP3    H258203   5.785   3.954   0.034 -1.9417  0.0373  0.7618
12238TIP3   OH258204   1.776   2.611   2.635 -0.6340 -0.0131 -0.6692
12238TIP3    H158205   1.752   2.701   2.613 -1.2082  0.3158  1.0867
12238TIP3    H258206   1.700   2.559   2.608 -1.7164  0.4946  1.1884
12239TIP3   OH258207   5.832   2.217  11.634  0.5871 -0.2095 -0.1475
12239TIP3    H158208   5.797   2.211  11.545  1.0267 -2.1236 -0.2290
12239TIP3    H258209   5.758   2.195  11.691  0.8417 -1.2028 -0.1752
12240TIP3   OH258210   1.559   3.687  14.419  0.7341  0.1369 -0.3462
12240TIP3    H158211   1.515   3.634  14.354  0.0133 -0.4575  0.5981
12240TIP3    H258212   1.489   3.727  14.470  1.2529  1.9347 -0.9453
12241TIP3   OH258213   5.387   6.582  10.249 -0.1721  0.0754  0.1851
12241TIP3    H158214   5.416   6.493  10.268 -0.2017  0.4193  2.1284
12241TIP3    H258215   5.315   6.571  10.187 -0.2235 -1.2726  0.4457
12242TIP3   OH258216   2.219   0.580   1.387  0.1132 -0.2064 -0.5003
12242TIP3    H158217   2.222   0.539   1.301 -1.4491 -2.5173  0.4445
12242TIP3    H258218   2.162   0.656   1.375 -1.9489 -1.7659 -1.0951
12243TIP3   OH258219   1.344   2.052  13.699  0.3842  0.1897 -0.7796
12243TIP3    H158220   1.405   2.026  13.630  0.6754 -1.8887  0.1986
12243TIP3    H258221   1.397   2.058  13.778 -0.3059  0.4643 -0.3258
12244TIP3   OH258222   0.812   1.534   3.660 -0.2414  0.0054  0.1797
12244TIP3    H158223   0.756   1.480   3.716 -1.3874 -0.4865 -1.3833
12244TIP3    H258224   0.827   1.614   3.711 -0.0689 -0.9780  1.7574
12245TIP3   OH258225   1.509   0.741   5.219 -0.8188  0.1231  0.0889
12245TIP3    H158226   1.590   0.791   5.205 -1.2413  0.7850 -0.0205
12245TIP3    H258227   1.539   0.656   5.250 -0.0493  0.1315 -0.5890
12246TIP3   OH258228   3.626   0.913   1.078  0.2482 -0.5429 -0.3639
12246TIP3    H158229   3.579   0.830   1.087 -2.4085  0.6955 -1.7119
12246TIP3    H258230   3.629   0.928   0.983  0.9419  0.7713 -0.1527
12247TIP3   OH258231   0.249   0.140   6.373  0.6618 -0.1735  0.0377
12247TIP3    H158232   0.168   0.161   6.327  1.7391 -1.0457 -2.4476
12247TIP3    H258233   0.317   0.190   6.328  1.7408 -0.8035  0.8976
12248TIP3   OH258234   6.351   6.590   0.672 -0.3856  0.0631  0.3902
12248TIP3    H158235   6.367   6.517   0.733  0.2165 -0.5876 -0.5108
12248TIP3    H258236   6.308   6.549   0.598  0.3374  0.5437 -0.3125
12249TIP3   OH258237   4.663   4.270   1.350  0.2486  0.0261  0.0765
12249TIP3    H158238   4.705   4.290   1.434 -0.4257 -0.1252  0.4595
12249TIP3    H258239   4.653   4.175   1.350 -2.5795  0.2231  1.2549
12250TIP3   OH258240   2.396   1.897  11.286 -0.2315  0.3721 -0.5769
12250TIP3    H158241   2.405   1.921  11.193  2.0445 -1.3920 -0.9223
12250TIP3    H258242   2.456   1.823  11.297 -0.5648  0.4171  2.2969
12251TIP3   OH258243   1.469   1.063   2.957  0.0629  0.7179 -0.1035
12251TIP3    H158244   1.424   0.996   2.906  0.5772  0.4900 -0.2706
12251TIP3    H258245   1.495   1.019   3.038 -0.1381  0.8839  0.0504
12252TIP3   OH258246   1.873   3.162   5.509  0.1957  0.1419 -0.1079
12252TIP3    H158247   1.795   3.110   5.488 -0.6228  1.0125  0.6553
12252TIP3    H258248   1.838   3.243   5.547  1.4420  1.1072 -0.9448
12253TIP3   OH258249   0.521   4.830  12.389  0.4532  0.1402 -0.8161
12253TIP3    H158250   0.577   4.842  12.312  2.6998 -1.0395  0.5184
12253TIP3    H258251   0.581   4.834  12.463 -1.7722  2.2305  1.0254
12254TIP3   OH258252   6.008   1.628  14.815 -0.1456 -0.2750  0.0996
12254TIP3    H158253   6.088   1.579  14.833  0.8411  1.7126  1.5164
12254TIP3    H258254   6.037   1.711  14.778 -1.6202  0.1371 -0.2315
12255TIP3   OH258255   2.964   5.602   5.540 -0.3993 -0.7124  0.4469
12255TIP3    H158256   3.012   5.573   5.462 -1.3817  1.2965 -1.0222
12255TIP3    H258257   2.879   5.632   5.506  0.0069  2.5029  1.8499
12256TIP3   OH258258   5.061   2.044  16.181  0.1701 -0.4928 -0.4378
12256TIP3    H158259   4.988   2.036  16.243  0.0853  0.9755 -0.3075
12256TIP3    H258260   5.037   1.986  16.108 -0.3543 -1.2310  0.3045
12257TIP3   OH258261   4.995   1.515   0.242 -0.2081 -0.5604  0.1177
12257TIP3    H158262   4.974   1.530   0.150  0.7528  0.4004  0.0371
12257TIP3    H258263   4.998   1.419   0.251 -1.1671 -0.6708 -0.6304
12258TIP3   OH258264   4.423   0.557  13.334  0.7540  0.0224  0.2866
12258TIP3    H158265   4.359   0.620  13.367 -0.2509  0.7783 -2.7607
12258TIP3    H258266   4.398   0.474  13.374 -1.4795  0.5125  0.0459
12259TIP3   OH258267   1.096   0.937  12.236 -0.0221 -0.0178 -0.0902
12259TIP3    H158268   1.084   0.989  12.157  2.5166 -0.5258 -0.9040
12259TIP3    H258269   1.110   1.001  12.306 -2.9180  0.4584  0.2061
12260TIP3   OH258270   4.320   4.673  11.609  0.1289 -0.6708 -0.1632
12260TIP3    H158271   4.293   4.585  11.583 -0.5121 -0.7690  0.7577
12260TIP3    H258272   4.362   4.660  11.694 -0.1487 -0.0683  0.0698
12261TIP3   OH258273   2.270   1.085   5.358  0.5203  0.3722 -0.0521
12261TIP3    H158274   2.250   1.178   5.367 -0.8957  0.1092 -0.3060
12261TIP3    H258275   2.337   1.081   5.290  1.3962  1.2726  0.7112
12262TIP3   OH258276   5.518   0.802  14.784  0.0791 -0.3277 -0.0494
12262TIP3    H158277   5.576   0.862  14.737  0.3831  0.0969  0.8412
12262TIP3    H258278   5.540   0.716  14.749  1.5359 -0.2201  0.5312
12263TIP3   OH258279   4.134   1.231   3.180 -0.0493  0.2585  0.5176
12263TIP3    H158280   4.214   1.204   3.225  0.1407  1.1510  0.7344
12263TIP3    H258281   4.076   1.260   3.249 -0.9278 -1.2229  0.4458
12264TIP3   OH258282   5.608   2.216  14.497 -0.1449  0.3764 -1.0116
12264TIP3    H158283   5.659   2.192  14.420 -2.0738 -1.2869 -1.8624
12264TIP3    H258284   5.574   2.133  14.530  0.8644  0.9910  1.8810
12265TIP3   OH258285   6.562   4.492   6.243  0.4606 -0.1008  0.7606
12265TIP3    H158286   6.498   4.482   6.314  2.1915  1.4067  2.6682
12265TIP3    H258287   6.643   4.456   6.279  1.3590  0.5891 -0.4908
12266TIP3   OH258288   2.405   5.771  11.769 -0.1028 -0.1973  0.1243
12266TIP3    H158289   2.480   5.719  11.743 -0.5974 -0.5356 -0.6526
12266TIP3    H258290   2.429   5.861  11.747  0.4524 -0.1778  0.7795
12267TIP3   OH258291   2.306   2.647   0.028  0.7812  0.0062 -0.1366
12267TIP3    H158292   2.346   2.707   0.090  0.6290  0.2185 -0.2440
12267TIP3    H258293   2.273   2.575   0.081  0.3343  0.3578  0.0648
12268TIP3   OH258294   1.053   2.962   5.042 -0.0996 -0.2851 -0.3312
12268TIP3    H158295   1.111   2.992   5.113  0.0845 -2.2919  0.4221
12268TIP3    H258296   0.969   3.005   5.060  0.2639  0.1141  0.4523
12269TIP3   OH258297   3.934   0.777   5.662 -0.0066  0.3496  0.0697
12269TIP3    H158298   4.016   0.729   5.674  0.8058  1.9275  1.0871
12269TIP3    H258299   3.931   0.839   5.735 -2.2050  0.2216  0.1582
12270TIP3   OH258300   5.112   6.185  11.676 -0.3914  0.1428 -0.1759
12270TIP3    H158301   5.207   6.185  11.688 -0.3936 -0.0610 -0.1529
12270TIP3    H258302   5.084   6.268  11.714 -0.3411 -0.2755  0.8074
12271TIP3   OH258303   3.408   1.848  12.606 -0.2978  0.1020  0.2849
12271TIP3    H158304   3.498   1.854  12.639 -0.6981  1.0275  1.2827
12271TIP3    H258305   3.380   1.760  12.628 -0.4903  0.6317  2.3382
12272TIP3   OH258306   5.918   2.688  12.329  0.9527 -0.6989  0.5114
12272TIP3    H158307   5.824   2.670  12.320  1.0229 -1.3030  0.9006
12272TIP3    H258308   5.924   2.743  12.407  0.6847  1.5865 -0.9697
12273TIP3   OH258309   1.184   2.318  11.087 -0.0860  0.2023 -0.4205
12273TIP3    H158310   1.199   2.401  11.131 -0.1394 -0.1021  0.1786
12273TIP3    H258311   1.094   2.295  11.108  1.2605 -2.4460  3.7062
12274TIP3   OH258312   4.614   3.459   1.644  0.8646  0.5149  0.8629
12274TIP3    H158313   4.523   3.482   1.666  0.6016 -0.2577  0.6215
12274TIP3    H258314   4.642   3.404   1.717  0.8548  0.0609  0.5241
12275TIP3   OH258315   1.913   3.533  16.811 -0.5042  0.0984 -0.1674
12275TIP3    H158316   1.942   3.569  16.727 -0.2070  0.9556  0.2932
12275TIP3    H258317   1.900   3.439  16.794  2.4589 -0.3341 -0.4255
12276TIP3   OH258318   0.139   2.540   5.501  0.1464 -0.2267 -0.2656
12276TIP3    H158319   0.103   2.541   5.590  0.3872  0.0443 -0.1686
12276TIP3    H258320   0.084   2.479   5.453 -0.5921  0.3663 -0.1874
12277TIP3   OH258321   2.630   2.952  17.120  0.1418 -0.2969 -0.3967
12277TIP3    H158322   2.630   3.034  17.070 -0.8675  0.3898  0.6702
12277TIP3    H258323   2.619   2.884  17.054 -0.2473  0.5242 -1.2014
12278TIP3   OH258324   6.801   2.601  12.323 -0.6442  0.4790  0.1445
12278TIP3    H158325   6.825   2.683  12.280 -2.5219  0.7561 -0.4642
12278TIP3    H258326   6.731   2.566  12.269  0.0128 -1.4762  0.4956
12279TIP3   OH258327   2.342   4.165  11.516 -0.8360 -0.1774 -0.2457
12279TIP3    H158328   2.273   4.207  11.568 -0.0603 -2.0638  2.5498
12279TIP3    H258329   2.325   4.071  11.526  1.0651 -0.6430 -1.0055
12280TIP3   OH258330   6.604   1.659  12.180 -0.5181 -0.2086 -0.3447
12280TIP3    H158331   6.669   1.613  12.127  0.2129 -0.6033  0.8505
12280TIP3    H258332   6.546   1.590  12.212  0.0709 -0.2292  0.7457
12281TIP3   OH258333   5.502   3.611  13.006  0.6352 -0.2555  0.2392
12281TIP3    H158334   5.528   3.625  12.915  1.3660  2.9410  0.8035
12281TIP3    H258335   5.471   3.521  13.009  0.3020 -0.3832 -3.2328
12282TIP3   OH258336   1.404   4.454  16.180  0.1544  0.2949  0.3408
12282TIP3    H158337   1.489   4.446  16.136 -0.9989  1.3525 -2.3095
12282TIP3    H258338   1.405   4.542  16.218  0.9898 -0.4626  2.1568
12283TIP3   OH258339   0.564   5.444  14.281  0.0671 -0.2408 -0.1130
12283TIP3    H158340   0.592   5.403  14.363 -0.1133  1.3569  0.8016
12283TIP3    H258341   0.477   5.479  14.300  0.6311  1.4462 -0.4915
12284TIP3   OH258342   0.617   1.651  14.129  0.4333 -0.0186  0.2397
12284TIP3    H158343   0.571   1.724  14.170 -1.1455 -1.1823  0.6890
12284TIP3    H258344   0.588   1.574  14.179  1.4764 -1.0279 -0.6527
12285TIP3   OH258345   2.611   0.446  12.950  0.1881 -0.2614  0.1650
12285TIP3    H158346   2.639   0.365  12.909  2.7284  0.3176  0.5628
12285TIP3    H258347   2.639   0.438  13.041 -1.9517  0.0218  0.9227
12286TIP3   OH258348   1.099   0.612  15.326  0.5269  0.2489  0.4564
12286TIP3    H158349   1.101   0.609  15.422 -0.1641 -2.2651  0.4782
12286TIP3    H258350   1.170   0.552  15.299 -1.6196 -2.0920 -0.4473
12287TIP3   OH258351   6.679   1.954   4.611  0.4062 -0.2191  0.5475
12287TIP3    H158352   6.638   1.873   4.581 -2.2530  1.4926 -0.8477
12287TIP3    H258353   6.615   1.990   4.673  0.6316  1.6450 -0.2461
12288TIP3   OH258354   5.340   0.505  10.977  0.1684 -0.2633  0.0085
12288TIP3    H158355   5.381   0.591  10.969 -0.9433  0.3293  0.4367
12288TIP3    H258356   5.413   0.444  10.984  1.1244  0.1949 -3.8829
12289TIP3   OH258357   2.472   6.799   1.145 -0.1661  0.5606 -0.3326
12289TIP3    H158358   2.557   6.799   1.187  0.2311  1.1522 -1.1136
12289TIP3    H258359   2.456   6.891   1.121  0.9083 -0.0427 -3.9377
12290TIP3   OH258360   0.100   1.612  12.403 -0.4971 -0.0336 -0.6154
12290TIP3    H158361   0.075   1.521  12.417 -0.1481  0.1348  1.4702
12290TIP3    H258362   0.103   1.649  12.491  0.7179  1.6354 -1.3135
12291TIP3   OH258363   4.751   6.620   4.609  0.5785  0.1485 -0.5604
12291TIP3    H158364   4.738   6.542   4.663  0.2282 -0.7044 -1.8071
12291TIP3    H258365   4.667   6.666   4.610  0.7104  0.3763 -0.0214
12292TIP3   OH258366   3.171   6.803  14.064 -0.2235 -0.0802  0.0689
12292TIP3    H158367   3.147   6.771  13.978 -0.2702 -0.2901  0.1590
12292TIP3    H258368   3.093   6.786  14.118  0.5929 -2.0205  0.6999
12293TIP3   OH258369   4.935   1.314  15.399  0.6388 -0.2321  0.2054
12293TIP3    H158370   5.011   1.264  15.427  1.9431  0.8188 -1.2824
12293TIP3    H258371   4.919   1.285  15.309  0.0826  0.4752  0.0651
12294TIP3   OH258372   5.034   4.013   0.451  0.0350 -0.0208  0.3511
12294TIP3    H158373   5.000   3.940   0.400  0.9748  0.3850 -0.9014
12294TIP3    H258374   5.114   3.978   0.492 -0.5499 -0.2527  1.3413
12295TIP3   OH258375   1.086   4.739   0.491 -0.2081  0.2792  0.0598
12295TIP3    H158376   1.170   4.731   0.447 -1.1878 -0.3199 -1.8282
12295TIP3    H258377   1.073   4.833   0.502 -1.1619  0.7309 -3.6561
12296TIP3   OH258378   1.914   2.343  12.932  0.4890 -0.0693 -0.2885
12296TIP3    H158379   1.978   2.337  12.861  0.4364 -2.3578 -0.2068
12296TIP3    H258380   1.952   2.407  12.993  2.9063 -1.5387 -0.0884
12297TIP3   OH258381   3.873   4.419   5.967 -0.6901  0.1190 -0.7500
12297TIP3    H158382   3.953   4.470   5.983 -0.1104 -1.2491  1.0088
12297TIP3    H258383   3.802   4.483   5.977  0.0915  1.0175 -0.7227
12298TIP3   OH258384   4.343   6.442   0.385  0.6928  0.1763 -0.2631
12298TIP3    H158385   4.270   6.438   0.445 -0.2901 -0.0140 -1.4297
12298TIP3    H258386   4.373   6.352   0.377  0.7056  0.1752 -0.2014
12299TIP3   OH258387   2.814   0.248  11.894 -0.0533 -0.5929  0.1159
12299TIP3    H158388   2.790   0.334  11.929 -1.1423 -0.0264 -1.8758
12299TIP3    H258389   2.852   0.266  11.808 -0.1648 -2.0694 -0.2720
12300TIP3   OH258390   3.922   0.817  16.741 -0.4123  0.2490 -0.6059
12300TIP3    H158391   3.841   0.831  16.790 -0.3002 -2.1102  0.4046
12300TIP3    H258392   3.990   0.859  16.794 -0.7714  0.9369 -0.6854
12301TIP3   OH258393   1.146   4.909  16.374  0.1445 -0.3832 -0.0327
12301TIP3    H158394   1.144   4.876  16.464  0.6200  0.0609  0.1485
12301TIP3    H258395   1.232   4.883  16.341  0.8006  1.1905  0.3329
12302TIP3   OH258396   3.580   2.961  11.368  0.2301 -0.1560 -0.2789
12302TIP3    H158397   3.648   3.017  11.331 -1.5396  1.0576 -1.8902
12302TIP3    H258398   3.559   2.899  11.298  0.1364 -0.9555  0.4409
12303TIP3   OH258399   5.075   0.928   5.485  0.4064 -0.3943 -0.4824
12303TIP3    H158400   5.070   1.011   5.436 -0.6977 -0.1761 -0.0205
12303TIP3    H258401   5.112   0.953   5.570  0.6260 -0.4733 -0.5548
12304TIP3   OH258402   1.334   3.830   2.376 -0.6566 -0.0692 -0.2187
12304TIP3    H158403   1.302   3.834   2.466 -2.1290 -2.2680 -0.5695
12304TIP3    H258404   1.276   3.888   2.327 -1.7465 -1.0824 -0.1861
12305TIP3   OH258405   1.873   5.861   4.631 -0.3791  0.0024 -0.0742
12305TIP3    H158406   1.862   5.921   4.705 -0.4975  0.5739 -0.5501
12305TIP3    H258407   1.812   5.790   4.649 -1.9186  1.1225 -0.6105
12306TIP3   OH258408   1.670   5.045  13.112 -0.0578 -0.2096  0.1710
12306TIP3    H158409   1.624   5.126  13.135  0.2597 -0.3281  1.2853
12306TIP3    H258410   1.762   5.069  13.111 -0.0136 -0.3831 -0.2810
12307TIP3   OH258411   5.186   0.672  13.816 -0.0838  0.1375  0.0516
12307TIP3    H158412   5.230   0.591  13.791  0.2423 -0.3914  2.1403
12307TIP3    H258413   5.257   0.732  13.840 -0.3132  1.1389 -1.5740
12308TIP3   OH258414   4.883   0.270   3.984  0.0868 -0.0971 -0.1822
12308TIP3    H158415   4.849   0.323   4.056 -0.9527 -1.0219  0.0220
12308TIP3    H258416   4.817   0.278   3.915 -0.2893 -1.4510  0.0053
12309TIP3   OH258417   0.625   0.738   2.652  0.4783 -0.4302 -0.2590
12309TIP3    H158418   0.661   0.758   2.739 -0.0702  0.5549 -0.2427
12309TIP3    H258419   0.603   0.645   2.656 -0.5578 -0.1526  1.0350
12310TIP3   OH258420   5.423   0.424   5.834  0.1869 -0.1161 -0.5520
12310TIP3    H158421   5.440   0.345   5.783 -0.8738  0.5281 -1.9751
12310TIP3    H258422   5.328   0.423   5.848  0.5155 -0.7845  2.3525
12311TIP3   OH258423   6.324   5.918  16.100 -0.2392  0.2750 -0.0736
12311TIP3    H158424   6.285   6.003  16.083  1.7340  1.3168  0.3285
12311TIP3    H258425   6.387   5.906  16.030  0.2086 -0.3977  0.4322
12312TIP3   OH258426   0.416   5.046   3.172  0.5496  0.8199  0.1940
12312TIP3    H158427   0.494   5.025   3.120  0.7458 -0.2258  0.8763
12312TIP3    H258428   0.346   5.054   3.107  0.8139 -0.3301 -0.2580
12313TIP3   OH258429   3.686   3.003  14.094 -0.4438  0.1482 -0.1688
12313TIP3    H158430   3.773   3.032  14.124 -0.7958  1.5135 -0.4107
12313TIP3    H258431   3.625   3.043  14.156 -0.8759 -1.7873  0.7288
12314TIP3   OH258432   3.311   3.423  13.892 -0.7395  0.7706 -0.1296
12314TIP3    H158433   3.295   3.404  13.984 -2.6106  0.6220 -0.4496
12314TIP3    H258434   3.380   3.362  13.866 -2.2344 -1.2773  0.4671
12315TIP3   OH258435   6.465   0.245  15.307  0.0597  0.6866 -0.5918
12315TIP3    H158436   6.460   0.327  15.258 -2.5041  0.5331 -0.7496
12315TIP3    H258437   6.541   0.255  15.363 -0.3443  3.3334 -0.3860
12316TIP3   OH258438   3.532   5.503  15.831  0.2032  0.1882 -0.3899
12316TIP3    H158439   3.534   5.415  15.793 -0.8801 -0.4944  1.0293
12316TIP3    H258440   3.438   5.523  15.838  0.3140  0.1014  2.2300
12317TIP3   OH258441   0.056   0.344  14.712 -0.1713 -0.4260  0.4487
12317TIP3    H158442   0.090   0.266  14.755 -2.2455 -1.1376  0.9299
12317TIP3    H258443   0.104   0.348  14.629  0.7751 -1.5479  0.9063
12318TIP3   OH258444   0.608   0.993   0.324 -0.6918 -0.6243 -0.2201
12318TIP3    H158445   0.529   0.951   0.291 -0.9448 -1.0050  0.8357
12318TIP3    H258446   0.667   0.921   0.345 -0.0668 -0.3460 -0.9649
12319TIP3   OH258447   6.687   4.608   0.699  0.6044  0.0850 -0.2958
12319TIP3    H158448   6.691   4.524   0.653  0.4488  1.1269 -2.3439
12319TIP3    H258449   6.594   4.630   0.700  0.6844  0.4091 -0.1206
12320TIP3   OH258450   0.490   3.674  15.330 -0.8795 -0.0691 -0.3084
12320TIP3    H158451   0.515   3.723  15.251 -1.6751 -1.5362 -1.5228
12320TIP3    H258452   0.443   3.738  15.383  2.3256  1.8597  0.5246
12321TIP3   OH258453   4.267   2.266   1.264  0.2944  0.3173 -0.2166
12321TIP3    H158454   4.277   2.189   1.320  1.7604 -0.2654 -1.2188
12321TIP3    H258455   4.230   2.232   1.182 -1.8993  1.1698  0.3390
12322TIP3   OH258456   6.774   2.346   5.390 -0.2794 -0.4325 -0.0335
12322TIP3    H158457   6.808   2.353   5.300  0.6088 -1.2442  0.2237
12322TIP3    H258458   6.682   2.371   5.383  0.0927  0.7675 -0.9496
12323TIP3   OH258459   6.526   4.203   6.146 -0.1608  0.3791  0.3381
12323TIP3    H158460   6.482   4.192   6.230  2.5559  0.0378  1.7985
12323TIP3    H258461   6.544   4.114   6.116  1.3446  0.4988  0.8104
12324TIP3   OH258462   3.357   6.777   5.192 -0.5432 -0.9339  0.1596
12324TIP3    H158463   3.264   6.768   5.171 -0.1370 -0.4366 -2.2594
12324TIP3    H258464   3.377   6.868   5.168  0.7916 -1.3825 -0.5137
12325TIP3   OH258465   5.282   4.417  14.995 -0.4426 -0.3450 -0.3990
12325TIP3    H158466   5.190   4.435  14.977 -0.0292 -0.0272 -2.4024
12325TIP3    H258467   5.326   4.432  14.912  1.3235 -1.2350  0.3241
12326TIP3   OH258468   4.506   0.875   2.619  0.3575  0.5546  0.4254
12326TIP3    H158469   4.426   0.920   2.593  0.0856 -0.9047 -1.5169
12326TIP3    H258470   4.511   0.799   2.561  3.1570  0.5968  0.4485
12327TIP3   OH258471   1.842   5.918  13.229  0.2028  0.2105  0.8328
12327TIP3    H158472   1.864   6.009  13.250  0.7813 -0.0592  1.4417
12327TIP3    H258473   1.775   5.925  13.161  1.1684  1.0671 -0.0539
12328TIP3   OH258474   5.447   1.244   6.474  0.3117  0.3633 -0.0974
12328TIP3    H158475   5.444   1.173   6.410 -2.1470 -1.4573  1.8553
12328TIP3    H258476   5.389   1.311   6.439 -2.4260 -1.3584  0.8717
12329TIP3   OH258477   5.414   4.382   2.812  0.0567 -0.5514  0.2921
12329TIP3    H158478   5.407   4.359   2.904  1.8052  0.6212  0.7670
12329TIP3    H258479   5.445   4.301   2.770 -0.6613 -1.0630  0.7339
12330TIP3   OH258480   1.796   4.214  16.616 -0.0241 -0.2149  0.2378
12330TIP3    H158481   1.715   4.170  16.640 -0.6120 -0.5607 -2.1722
12330TIP3    H258482   1.773   4.268  16.541  2.0548 -0.6716 -0.7984
12331TIP3   OH258483   3.121   5.107   4.644 -0.4726  0.1433  0.1535
12331TIP3    H158484   3.182   5.073   4.579 -0.0806  3.3085 -1.2862
12331TIP3    H258485   3.037   5.068   4.619  0.1783 -0.9875 -0.3936
12332TIP3   OH258486   6.306   1.594  16.045  0.5125  0.2588  0.2609
12332TIP3    H158487   6.307   1.639  15.960  0.9789 -2.4425 -1.2890
12332TIP3    H258488   6.395   1.561  16.055 -0.4554 -2.9220 -0.3070
12333TIP3   OH258489   2.109   5.596  13.070 -0.4958  0.4862  0.1678
12333TIP3    H158490   2.147   5.586  12.983 -2.8199 -3.8126 -0.6655
12333TIP3    H258491   2.022   5.634  13.055 -0.7613  0.0715  0.5843
12334TIP3   OH258492   6.103   1.406   4.439  0.4349  0.2326 -0.0472
12334TIP3    H158493   6.023   1.369   4.477  0.1717  1.3137  0.5056
12334TIP3    H258494   6.072   1.471   4.377  0.8550  1.3704  0.8899
12335TIP3   OH258495   5.767   2.482   6.409  0.0439 -0.5274 -0.2281
12335TIP3    H158496   5.703   2.441   6.467 -0.3430  0.5667  0.1350
12335TIP3    H258497   5.766   2.574   6.433  2.3136 -0.5919  0.2983
12336TIP3   OH258498   4.044   2.499   1.394 -0.6451 -0.8119  0.3531
12336TIP3    H158499   4.063   2.428   1.333  1.8431  1.5789 -1.8920
12336TIP3    H258500   4.119   2.500   1.453 -1.1451 -0.6255  0.9966
12337TIP3   OH258501   6.229   5.745  16.989 -0.4974  0.1947 -0.1616
12337TIP3    H158502   6.279   5.811  17.038  0.1352 -0.6491  0.3534
12337TIP3    H258503   6.222   5.781  16.901  0.3133  0.7041 -0.0291
12338TIP3   OH258504   1.487   1.883   0.913 -0.3073 -0.9389 -0.5125
12338TIP3    H158505   1.490   1.973   0.947  4.0219 -0.7210 -0.8319
12338TIP3    H258506   1.400   1.851   0.937 -2.4741  3.5682 -1.2136
12339TIP3   OH258507   3.035   1.678   4.357 -0.3994 -0.3969  0.7103
12339TIP3    H158508   2.994   1.595   4.380  0.3436 -0.6804  1.0171
12339TIP3    H258509   3.024   1.732   4.436 -0.3828 -0.3910  0.7086
12340TIP3   OH258510   3.333   4.236  12.319  0.1108 -0.2133 -0.2702
12340TIP3    H158511   3.257   4.230  12.261 -0.2946  2.8645 -0.1958
12340TIP3    H258512   3.403   4.272  12.265  0.4895  0.2290  0.4907
12341TIP3   OH258513   2.727   6.722  14.127  0.3090  0.3286 -0.2083
12341TIP3    H158514   2.685   6.638  14.110  0.9239  0.1093 -0.7063
12341TIP3    H258515   2.810   6.700  14.169 -0.5024  0.8049  1.7221
12342TIP3   OH258516   6.386   5.638   2.373  0.5785  0.3701  0.0324
12342TIP3    H158517   6.392   5.619   2.466 -1.3830 -0.0386  0.1157
12342TIP3    H258518   6.318   5.704   2.366  1.6190  1.3798 -1.0205
12343TIP3   OH258519   4.272   2.686   2.268  0.0330 -0.3657  1.0492
12343TIP3    H158520   4.361   2.717   2.281 -0.2274  0.0353  2.0170
12343TIP3    H258521   4.217   2.753   2.311 -0.7993 -0.0908 -0.3755
12344TIP3   OH258522   1.175   4.316  16.245  0.0541  0.2611  0.2641
12344TIP3    H158523   1.105   4.375  16.219  0.3294 -0.0070 -1.1632
12344TIP3    H258524   1.255   4.368  16.237  0.2409 -0.1202 -0.4365
12345TIP3   OH258525   1.236   0.987  15.387 -0.9305 -0.0501 -0.2297
12345TIP3    H158526   1.191   0.909  15.420  1.1962 -1.0999  0.3136
12345TIP3    H258527   1.249   1.042  15.464  0.7214 -0.8076  0.0635
12346TIP3   OH258528   0.909   4.618  13.245  0.1455 -0.2680  0.4255
12346TIP3    H158529   0.862   4.640  13.326 -1.0162 -1.1248 -0.0016
12346TIP3    H258530   0.909   4.699  13.195 -0.9063 -0.2482  0.4289
12347TIP3   OH258531   3.294   3.701  13.901 -0.3244  0.4561  0.9254
12347TIP3    H158532   3.380   3.715  13.941  0.1817 -0.7820  0.3417
12347TIP3    H258533   3.285   3.606  13.899 -1.3584  0.5624  0.2379
12348TIP3   OH258534   5.345   2.292  14.786 -0.4544 -0.1483 -0.2017
12348TIP3    H158535   5.286   2.267  14.857  0.3655 -2.3406 -0.2089
12348TIP3    H258536   5.297   2.273  14.706  0.3612 -2.4462 -0.2137
12349TIP3   OH258537   2.692   3.021  16.547 -0.1135  0.1122 -0.1294
12349TIP3    H158538   2.605   3.041  16.581  0.0045  2.3260 -0.9698
12349TIP3    H258539   2.730   3.106  16.527  1.4384 -0.9025 -1.7896
12350TIP3   OH258540   3.528   1.859  15.684  0.8338 -0.3155  0.6021
12350TIP3    H158541   3.580   1.932  15.718 -0.5799  0.0157  2.1871
12350TIP3    H258542   3.443   1.897  15.663 -0.0135 -1.5057  1.6889
12351TIP3   OH258543   5.475   3.411   1.332 -0.2992 -0.9973 -0.8053
12351TIP3    H158544   5.556   3.360   1.334 -0.4572 -1.2843  1.8902
12351TIP3    H258545   5.504   3.501   1.342 -0.2940 -1.1802  1.1881
12352TIP3   OH258546   3.765   1.426  12.650  0.2240 -0.0123 -0.2281
12352TIP3    H158547   3.726   1.376  12.721 -0.2220  1.2810  0.4810
12352TIP3    H258548   3.856   1.398  12.647  0.4154  0.3824  1.3106
12353TIP3   OH258549   3.656   0.283   4.856 -0.0212  0.0065 -0.1129
12353TIP3    H158550   3.639   0.194   4.888  1.1849 -0.3488 -0.4200
12353TIP3    H258551   3.650   0.276   4.761  1.5030 -0.0905 -0.2251
12354TIP3   OH258552   0.852   5.923  11.959  0.4959  0.3288 -0.7917
12354TIP3    H158553   0.838   5.939  11.866 -1.2138 -0.1699 -0.6581
12354TIP3    H258554   0.772   5.955  12.001 -0.3371 -2.6174  0.0960
12355TIP3   OH258555   2.121   1.256  14.310 -0.0221  0.3091 -0.6200
12355TIP3    H158556   2.059   1.250  14.238  1.9780  0.5848 -2.4917
12355TIP3    H258557   2.115   1.346  14.341 -1.0758  0.1199 -0.2526
12356TIP3   OH258558   6.744   2.948  12.457 -0.0190 -0.2577  0.0981
12356TIP3    H158559   6.837   2.925  12.448  0.1470  0.6725 -0.8109
12356TIP3    H258560   6.705   2.922  12.374 -0.7567 -1.3850  0.7768
12357TIP3   OH258561   4.389   1.294  11.209  0.3660  0.1804  0.4355
12357TIP3    H158562   4.437   1.285  11.126 -1.1199  1.0928 -0.5714
12357TIP3    H258563   4.297   1.282  11.185 -0.1509  1.0569  1.8574
12358TIP3   OH258564   6.259   4.748   1.665 -0.1081 -0.2474 -0.0357
12358TIP3    H158565   6.237   4.704   1.583  1.9876 -0.4291 -0.5571
12358TIP3    H258566   6.311   4.684   1.713 -0.7411  0.1084  1.1626
12359TIP3   OH258567   3.611   4.242   4.714  0.5417  0.0094  0.0799
12359TIP3    H158568   3.682   4.184   4.689  1.2434  0.6236  0.5855
12359TIP3    H258569   3.655   4.320   4.749 -0.3591  1.0610 -1.0392
12360TIP3   OH258570   0.168   6.047   3.104  0.2090 -0.0061  0.0775
12360TIP3    H158571   0.223   6.102   3.048 -0.4395  1.0440  0.4580
12360TIP3    H258572   0.091   6.099   3.121 -0.5256 -1.1253  0.2899
12361TIP3   OH258573   5.726   1.240   0.413  0.5492  0.0860  0.2679
12361TIP3    H158574   5.770   1.172   0.464  0.3538 -0.9097 -0.8451
12361TIP3    H258575   5.645   1.200   0.384  0.1874  0.9778  0.0024
12362TIP3   OH258576   1.268   6.189  14.779 -0.3809  0.2387  0.0730
12362TIP3    H158577   1.320   6.266  14.800  0.6835 -0.5465  0.3765
12362TIP3    H258578   1.272   6.134  14.858  0.4833 -0.9965 -0.7918
12363TIP3   OH258579   3.120   3.634  11.725  0.5259  0.1319  0.0401
12363TIP3    H158580   3.068   3.583  11.787  1.1759  0.2872  0.7278
12363TIP3    H258581   3.055   3.673  11.665  0.1000 -3.0367 -1.7588
12364TIP3   OH258582   4.252   4.509  16.521 -0.1348 -0.3772  0.3090
12364TIP3    H158583   4.313   4.563  16.570  0.0290 -0.6453  0.4036
12364TIP3    H258584   4.228   4.439  16.582 -1.7891  0.6039  0.8668
12365TIP3   OH258585   6.654   5.738  13.967  0.2080  0.3771 -0.2262
12365TIP3    H158586   6.739   5.775  13.943  1.1124 -2.4679 -1.9092
12365TIP3    H258587   6.669   5.644  13.969 -2.6014 -0.1445  0.9013
12366TIP3   OH258588   6.718   1.910   1.667 -0.2428 -0.1792  0.3180
12366TIP3    H158589   6.724   1.821   1.700 -1.3169  0.2653  1.7967
12366TIP3    H258590   6.757   1.964   1.736 -3.4930  0.8749  1.4842
12367TIP3   OH258591   0.041   0.625  16.163 -0.1153  0.0674 -0.0283
12367TIP3    H158592   0.108   0.690  16.143 -1.1570  0.6435 -1.7852
12367TIP3    H258593  -0.021   0.671  16.220 -1.1658  0.8623 -1.7427
12368TIP3   OH258594   1.264   4.851   3.233 -0.4613  0.0200  0.0761
12368TIP3    H158595   1.276   4.848   3.138  0.3444  0.4915  0.1568
12368TIP3    H258596   1.349   4.877   3.268 -1.0198  0.8716  0.8647
12369TIP3   OH258597   0.238   3.420  15.994 -0.2133  0.3519  0.0012
12369TIP3    H158598   0.295   3.488  16.030 -0.1065 -0.6950  1.8963
12369TIP3    H258599   0.285   3.387  15.917  0.5413  1.2057  0.0867
12370TIP3   OH258600   1.385   2.016  15.590 -0.4325  0.0611  0.2117
12370TIP3    H158601   1.460   2.041  15.536  1.5382 -1.6934  1.9616
12370TIP3    H258602   1.314   2.002  15.527  1.2144 -0.0396 -1.7190
12371TIP3   OH258603   1.552   1.355   2.219  0.2404 -0.3237  0.0049
12371TIP3    H158604   1.506   1.406   2.152  1.2510  1.6784  0.7336
12371TIP3    H258605   1.627   1.318   2.173  0.2129 -0.0417 -0.2761
12372TIP3   OH258606   0.084   4.100   3.306 -0.0327 -0.5033  0.2776
12372TIP3    H158607   0.092   4.104   3.401 -0.1827 -1.7156  0.3544
12372TIP3    H258608   0.004   4.150   3.287  1.1307  1.5730  0.5612
12373TIP3   OH258609   6.162   6.407   5.176 -1.0274  0.0901 -0.3031
12373TIP3    H158610   6.128   6.318   5.166 -2.1529  0.3716  0.7310
12373TIP3    H258611   6.176   6.438   5.086  2.8904 -2.3304 -0.7574
12374TIP3   OH258612   2.203   6.588  16.137  0.2071  0.3316 -0.2354
12374TIP3    H158613   2.239   6.544  16.060  0.5496 -1.7342  1.0473
12374TIP3    H258614   2.109   6.574  16.130  0.3645 -1.2358  0.4978
12375TIP3   OH258615   6.681   0.656   0.615 -0.2657  0.1536  0.8215
12375TIP3    H158616   6.685   0.751   0.604 -1.9349  0.0871 -0.8325
12375TIP3    H258617   6.684   0.621   0.526  0.9029 -1.4171  1.4188
12376TIP3   OH258618   1.118   6.613   3.055  0.7362  0.0897  0.4069
12376TIP3    H158619   1.096   6.521   3.069 -3.4301  0.7131 -0.6067
12376TIP3    H258620   1.155   6.616   2.967  0.3539 -0.5839  0.2146
12377TIP3   OH258621   5.773   0.944   1.698 -0.0623 -0.1300  0.3986
12377TIP3    H158622   5.824   1.007   1.749  2.4555 -4.1800  3.5193
12377TIP3    H258623   5.825   0.927   1.619 -1.4324  2.4003 -1.1851
12378TIP3   OH258624   0.573   1.880  11.168 -0.0523 -0.0734  0.3607
12378TIP3    H158625   0.630   1.951  11.197  1.6160 -0.3174 -1.9892
12378TIP3    H258626   0.611   1.801  11.207  1.9996 -0.3660 -1.9728
12379TIP3   OH258627   3.129   4.607   1.763  0.2175  0.2129  0.2774
12379TIP3    H158628   3.192   4.599   1.691  0.9483  0.6280  0.8617
12379TIP3    H258629   3.130   4.700   1.786  0.1036  0.0581  0.9241
12380TIP3   OH258630   1.843   6.745   1.071  0.1410 -0.0036  0.4523
12380TIP3    H158631   1.768   6.747   1.013  1.0606 -0.6297 -0.8129
12380TIP3    H258632   1.859   6.836   1.095 -1.1777  0.1060  0.9839
12381TIP3   OH258633   4.823   1.814   4.380  0.2314 -0.4105 -0.0880
12381TIP3    H158634   4.778   1.878   4.434  0.0602  1.3276 -2.1632
12381TIP3    H258635   4.774   1.733   4.393 -1.9474  0.7929 -0.2864
12382TIP3   OH258636   1.390   4.704  14.477  0.1353 -0.3058  0.2383
12382TIP3    H158637   1.397   4.612  14.452  3.2872  0.2603 -1.6324
12382TIP3    H258638   1.457   4.715  14.544  1.8799  1.0672 -1.5830
12383TIP3   OH258639   0.385   3.222  11.000  0.1839 -0.5125  0.2133
12383TIP3    H158640   0.375   3.184  10.913  3.6383 -0.0017 -0.5339
12383TIP3    H258641   0.470   3.191  11.031 -0.2722  0.5103  2.8079
12384TIP3   OH258642   4.006   2.751  15.240 -0.4704 -0.1548 -0.1325
12384TIP3    H158643   4.097   2.767  15.218 -0.0579 -0.2654  1.3994
12384TIP3    H258644   3.958   2.767  15.159  0.8323  0.5450 -0.7804
12385TIP3   OH258645   1.727   6.548  15.781  0.4373  0.1599  0.3905
12385TIP3    H158646   1.665   6.611  15.745  0.5370  0.0396  0.0053
12385TIP3    H258647   1.679   6.466  15.785  0.1249  0.3737  1.4280
12386TIP3   OH258648   2.911   1.912  11.182  0.5053  0.1313  0.0878
12386TIP3    H158649   2.820   1.893  11.161  0.9560 -3.7010  0.8567
12386TIP3    H258650   2.956   1.912  11.097  0.2140 -1.0400 -0.0773
12387TIP3   OH258651   6.673   3.674  13.780 -0.4042  0.0446 -0.3982
12387TIP3    H158652   6.653   3.736  13.850  0.9317  2.6694 -2.1778
12387TIP3    H258653   6.590   3.664  13.733 -0.5275  0.9820 -0.4078
12388TIP3   OH258654   6.566   4.860  14.794  0.1060  0.0076 -0.4032
12388TIP3    H158655   6.484   4.840  14.839  0.6863 -1.9001 -0.0905
12388TIP3    H258656   6.595   4.775  14.760  2.6230  0.3403  0.6791
12389TIP3   OH258657   3.050   6.165   3.426  0.0160 -0.5422  0.3816
12389TIP3    H158658   2.997   6.234   3.465 -1.0573 -0.7933 -0.5947
12389TIP3    H258659   3.049   6.095   3.491  0.9517  0.2425  1.2947
12390TIP3   OH258660   4.403   0.775  15.543  1.3821  0.1089  0.9200
12390TIP3    H158661   4.405   0.728  15.626 -0.1426 -1.6004  0.0487
12390TIP3    H258662   4.346   0.723  15.487 -0.4047  2.9791 -0.1567
12391TIP3   OH258663   0.121   3.386  15.098  0.1090 -0.5060 -0.3911
12391TIP3    H158664   0.187   3.382  15.167 -2.0727  0.5205  1.9104
12391TIP3    H258665   0.171   3.389  15.016  3.0373  3.0858  1.2698
12392TIP3   OH258666   6.430   0.259  16.292  0.5157  0.6347 -0.0870
12392TIP3    H158667   6.474   0.184  16.333  0.4064  0.4268 -0.3483
12392TIP3    H258668   6.353   0.275  16.348  0.2068  0.1678 -0.3681
12393TIP3   OH258669   5.821   4.438   0.540  0.0430  0.8375 -0.6015
12393TIP3    H158670   5.851   4.514   0.490  0.8273  1.4339  0.7217
12393TIP3    H258671   5.887   4.426   0.608  0.5031 -1.7024 -1.3989
12394TIP3   OH258672   0.231   2.998   4.004 -0.1486 -0.9323  0.2993
12394TIP3    H158673   0.223   3.093   3.998 -2.1011 -0.9532  1.5821
12394TIP3    H258674   0.308   2.984   4.059 -0.3612 -0.0659  0.8324
12395TIP3   OH258675   4.614   5.244   4.439 -0.2596 -0.0263  0.7193
12395TIP3    H158676   4.525   5.274   4.423  0.1773  1.9055  1.5762
12395TIP3    H258677   4.629   5.265   4.531  0.9998 -0.5473  0.6460
12396TIP3   OH258678   2.888   1.391   0.115  0.1576  0.4914 -0.1549
12396TIP3    H158679   2.952   1.376   0.184 -0.5185 -0.8236  0.2219
12396TIP3    H258680   2.921   1.467   0.067  2.5516 -0.7434 -0.6175
12397TIP3   OH258681   3.967   4.281  11.744  0.0778 -0.3489 -0.2014
12397TIP3    H158682   3.929   4.340  11.809  1.2626 -0.6974  0.8343
12397TIP3    H258683   3.893   4.259  11.687 -0.6258  1.2378  0.0457
12398TIP3   OH258684   2.118   5.737   3.986  0.1298  0.2954 -0.4175
12398TIP3    H158685   2.094   5.773   4.072 -0.4436  1.0835 -0.8977
12398TIP3    H258686   2.203   5.696   4.001  0.1368  0.6155  0.4862
12399TIP3   OH258687   1.728   1.032   5.408  0.5353 -0.4056 -0.0582
12399TIP3    H158688   1.823   1.022   5.411  0.8194  1.8130 -0.1678
12399TIP3    H258689   1.709   1.106   5.465 -1.1072 -0.6251 -0.2604
12400TIP3   OH258690   2.495   6.821  16.426 -0.1769 -0.2238  0.2455
12400TIP3    H158691   2.517   6.849  16.337 -1.3354  0.8132  0.2606
12400TIP3    H258692   2.528   6.891  16.482 -2.0020  0.5975  0.3773
12401TIP3   OH258693   3.039   3.226   0.304 -0.3885 -0.3756  0.3648
12401TIP3    H158694   3.036   3.146   0.356 -0.9935 -0.6826 -0.1314
12401TIP3    H258695   3.109   3.211   0.241 -0.7847 -0.6985 -0.0082
12402TIP3   OH258696   5.395   2.997  11.831  0.4094  0.3276 -0.1569
12402TIP3    H158697   5.419   3.021  11.742  1.0456 -0.3520 -0.1804
12402TIP3    H258698   5.393   2.901  11.830 -0.7258  0.3360  0.2637
12403TIP3   OH258699   3.882   5.320  17.017 -0.2177 -0.9893 -0.3429
12403TIP3    H158700   3.897   5.381  16.945 -0.9493 -1.0622 -0.5720
12403TIP3    H258701   3.820   5.256  16.981 -1.2006 -0.5914  0.5835
12404TIP3   OH258702   6.362   2.488   0.728  0.3454  0.4172 -0.7786
12404TIP3    H158703   6.457   2.499   0.731  0.3803  0.2682 -1.2918
12404TIP3    H258704   6.328   2.577   0.715  0.3635  0.5924  0.2704
12405TIP3   OH258705   1.746   5.095   3.075 -0.3191 -0.6123 -0.2006
12405TIP3    H158706   1.752   5.025   3.010 -0.0102  0.4283 -1.3266
12405TIP3    H258707   1.661   5.082   3.116 -0.8788 -0.8186 -1.3890
12406TIP3   OH258708   3.616   0.709  14.986  0.6204 -0.4255  0.0912
12406TIP3    H158709   3.614   0.644  15.056 -0.1628  0.2841  0.7529
12406TIP3    H258710   3.704   0.747  14.991  0.9296 -1.1115 -0.0165
12407TIP3   OH258711   3.996   4.057   4.417  0.1596  0.5704  0.5649
12407TIP3    H158712   4.046   4.135   4.440  2.2964 -0.8882  1.1180
12407TIP3    H258713   4.042   3.985   4.460 -2.1424 -0.9471  0.6595
12408TIP3   OH258714   0.304   3.611   2.387 -0.0669  0.4009 -0.4135
12408TIP3    H158715   0.247   3.580   2.457 -0.7077 -0.7072 -1.3904
12408TIP3    H258716   0.391   3.576   2.408 -0.2124  0.2485 -0.0747
12409TIP3   OH258717   6.147   1.073   4.166  0.0250  0.1303  0.0024
12409TIP3    H158718   6.213   1.005   4.178 -0.5657 -0.1662  1.9844
12409TIP3    H258719   6.177   1.124   4.090  1.4980 -1.1385 -0.3022
12410TIP3   OH258720   5.311   6.004  16.287 -0.4468  0.2467 -0.0285
12410TIP3    H158721   5.351   5.934  16.338 -3.2240 -1.7027 -0.2814
12410TIP3    H258722   5.226   5.969  16.261 -1.2017  3.0505 -1.7985
12411TIP3   OH258723   5.349   5.532  13.654 -0.0762 -0.0145 -0.1203
12411TIP3    H158724   5.356   5.503  13.745  0.1288 -0.7029 -0.3474
12411TIP3    H258725   5.429   5.499  13.612 -0.7728 -0.8487 -0.8492
12412TIP3   OH258726   2.129   4.549   3.175  0.0780  0.4652  0.1234
12412TIP3    H158727   2.144   4.579   3.265 -0.9334  1.5552 -0.0546
12412TIP3    H258728   2.153   4.456   3.177 -0.6878  0.2642  1.7282
12413TIP3   OH258729   6.428   0.355  12.784 -0.5035 -0.3177 -0.0332
12413TIP3    H158730   6.470   0.276  12.820  0.9794  1.2031  1.7630
12413TIP3    H258731   6.433   0.419  12.855  1.1639  2.4174 -2.3898
12414TIP3   OH258732   0.903   0.652   5.584 -0.4781 -0.3339 -0.4214
12414TIP3    H158733   0.884   0.693   5.499 -2.0645  0.5386  0.3143
12414TIP3    H258734   0.829   0.676   5.639  0.8495 -0.3119  1.4333
12415TIP3   OH258735   1.563   0.098   1.560  0.2643  0.4607  0.6095
12415TIP3    H158736   1.590   0.188   1.578  1.4790  0.1259  0.5828
12415TIP3    H258737   1.643   0.056   1.527 -0.5030 -0.4019 -0.1906
12416TIP3   OH258738   4.531   4.508   6.090  0.2068  0.6175  0.3183
12416TIP3    H158739   4.494   4.489   6.176  0.0127  1.1537  0.3556
12416TIP3    H258740   4.586   4.432   6.070  0.5589  0.6694  1.0796
12417TIP3   OH258741   6.496   1.135   5.793 -0.2715  0.3055  0.0468
12417TIP3    H158742   6.446   1.117   5.873 -0.5370  0.6330 -0.0426
12417TIP3    H258743   6.544   1.215   5.812 -0.9663  0.8370 -0.4056
12418TIP3   OH258744   4.807   1.822   2.121  0.6454  0.1268  0.2850
12418TIP3    H158745   4.825   1.910   2.087 -0.8738  0.3943  0.1371
12418TIP3    H258746   4.733   1.791   2.069  0.8603 -1.0589  0.6620
12419TIP3   OH258747   3.173   6.150  13.289  0.2956  0.7946  0.2699
12419TIP3    H158748   3.146   6.241  13.291 -0.2271  0.6320  0.8525
12419TIP3    H258749   3.269   6.153  13.280  0.2131  1.3811 -0.5723
12420TIP3   OH258750   3.642   4.555   6.493  0.4413 -0.4892 -0.1002
12420TIP3    H158751   3.548   4.571   6.483  0.7019  0.8199 -0.8325
12420TIP3    H258752   3.659   4.477   6.440  0.2556  1.1319 -2.7444
12421TIP3   OH258753   3.625   6.642  10.472  0.5859  0.3083 -0.0679
12421TIP3    H158754   3.599   6.692  10.549  0.8824 -0.0446  0.2655
12421TIP3    H258755   3.680   6.702  10.421  1.4671  0.1263  0.6468
12422TIP3   OH258756   0.629   6.660   0.121  0.1196 -0.3841 -0.1542
12422TIP3    H158757   0.695   6.726   0.143 -0.7948  0.2161  0.9215
12422TIP3    H258758   0.585   6.696   0.044  1.5573 -1.1909 -1.4062
12423TIP3   OH258759   2.762   1.230   0.382 -0.0233 -0.2873  0.2333
12423TIP3    H158760   2.746   1.136   0.377 -2.0315  0.0658 -0.9022
12423TIP3    H258761   2.742   1.263   0.295  0.1097  1.2756  0.7605
12424TIP3   OH258762   4.671   3.801  11.356  0.1452 -0.2134  0.0148
12424TIP3    H158763   4.752   3.846  11.332 -0.4780  0.7798 -0.2723
12424TIP3    H258764   4.637   3.768  11.274 -0.7316  1.0735 -0.1701
12425TIP3   OH258765   6.308   5.986   2.611  0.0655  0.3032  0.5399
12425TIP3    H158766   6.390   5.960   2.653  0.3634 -1.7581 -1.1523
12425TIP3    H258767   6.243   5.982   2.681  1.0118 -0.3392  1.4105
12426TIP3   OH258768   1.288   2.064   4.572 -0.0729 -0.5301 -0.0967
12426TIP3    H158769   1.365   2.110   4.606 -1.6361  2.0968  0.1703
12426TIP3    H258770   1.228   2.060   4.646 -1.8131  1.3582 -1.2832
12427TIP3   OH258771   6.734   1.824   2.608  1.1734  0.2336  0.6887
12427TIP3    H158772   6.733   1.742   2.558 -0.6715 -0.0515  1.1247
12427TIP3    H258773   6.803   1.876   2.566  2.0438 -1.3321  0.0878
12428TIP3   OH258774   3.967   6.521  11.996 -0.3398 -0.2515 -0.1455
12428TIP3    H158775   4.063   6.526  11.994 -0.2785 -1.1039 -1.9171
12428TIP3    H258776   3.938   6.598  11.946 -0.5673 -0.1691  0.1116
12429TIP3   OH258777   5.135   3.028  12.969  0.1014  0.3281 -0.7783
12429TIP3    H158778   5.079   2.963  12.926  0.3850  0.4650 -1.3664
12429TIP3    H258779   5.192   2.976  13.026 -0.4430  0.1670 -0.3722
12430TIP3   OH258780   0.310   6.417  12.486 -0.0886 -0.2829 -0.2650
12430TIP3    H158781   0.250   6.460  12.547 -0.6079 -2.7968  1.1372
12430TIP3    H258782   0.261   6.409  12.404  0.7483  3.4841 -1.3320
12431TIP3   OH258783   3.769   0.262  14.605 -0.0557 -0.3050 -0.3439
12431TIP3    H158784   3.691   0.305  14.568  0.7620 -0.2871 -2.1449
12431TIP3    H258785   3.793   0.196  14.540  0.4983 -1.4559  0.9704
12432TIP3   OH258786   0.392   0.851  10.952  0.0260 -0.4330 -0.1356
12432TIP3    H158787   0.451   0.878  11.023  0.6051 -1.7338 -0.0823
12432TIP3    H258788   0.451   0.829  10.880 -0.4568 -0.7622 -0.4318
12433TIP3   OH258789   1.296   3.089   3.796 -0.5552  0.3905  0.3433
12433TIP3    H158790   1.310   3.028   3.868 -0.9174 -0.0376  0.0555
12433TIP3    H258791   1.212   3.063   3.758  0.8370 -1.1000 -1.9133
12434TIP3   OH258792   0.052   0.463  12.850  0.2166  0.4940  0.2100
12434TIP3    H158793   0.048   0.399  12.921  1.5738 -1.8010 -1.6282
12434TIP3    H258794   0.146   0.473  12.833 -0.0891  0.6677 -1.5026
12435TIP3   OH258795   0.531   6.213  13.172 -0.0285 -0.4233  0.2302
12435TIP3    H158796   0.562   6.290  13.125 -1.8294 -0.4314 -1.1167
12435TIP3    H258797   0.550   6.140  13.114 -1.5219 -0.5397 -0.1491
12436TIP3   OH258798   4.132   0.040  14.433  0.5848  0.1597 -0.4311
12436TIP3    H158799   4.188   0.057  14.509  0.4601 -2.9704  0.4638
12436TIP3    H258800   4.057  -0.007  14.468  0.9600 -2.2044 -2.5140
12437TIP3   OH258801   5.364   4.746  11.436  0.3178  0.3577 -0.3719
12437TIP3    H158802   5.325   4.762  11.522  0.9355  0.1033 -0.0398
12437TIP3    H258803   5.353   4.652  11.421 -1.0491  0.6148 -1.2098
12438TIP3   OH258804   1.046   6.489   1.717 -0.2453  0.3155  0.7622
12438TIP3    H158805   1.021   6.581   1.709 -1.7628 -0.1684 -0.4257
12438TIP3    H258806   0.978   6.441   1.670  1.4201 -1.3055 -0.1068
12439TIP3   OH258807   4.664   4.916  15.585 -0.5551 -0.0803 -0.1435
12439TIP3    H158808   4.706   4.921  15.500  0.5510 -0.8002  0.3406
12439TIP3    H258809   4.702   4.988  15.635 -1.1427  0.2931 -0.2202
12440TIP3   OH258810   4.403   1.705  10.797 -0.3301 -0.0560  0.5860
12440TIP3    H158811   4.416   1.799  10.784 -0.8195  0.0460  0.7994
12440TIP3    H258812   4.331   1.682  10.737  0.5204 -0.5219 -0.2850
12441TIP3   OH258813   2.523   2.160  16.058  0.0852 -0.1817  0.3617
12441TIP3    H158814   2.472   2.241  16.063 -0.4421 -0.5057  0.2566
12441TIP3    H258815   2.542   2.139  16.150  2.3554  1.3745  0.3488
12442TIP3   OH258816   1.362   5.856   3.651  0.3102 -0.2025  0.6364
12442TIP3    H158817   1.387   5.874   3.742 -0.0399 -0.9093  0.8820
12442TIP3    H258818   1.352   5.942   3.611 -0.0699  0.1299  1.4241
12443TIP3   OH258819   3.924   3.056  13.490  0.0299  0.5533 -0.0454
12443TIP3    H158820   4.012   3.059  13.454 -0.1805  1.2705 -0.5279
12443TIP3    H258821   3.867   3.054  13.413 -0.4307  2.1034  0.2204
12444TIP3   OH258822   6.159   0.762   0.301  0.0946  0.2485  0.1621
12444TIP3    H158823   6.080   0.709   0.316 -0.7340  1.0457 -1.1275
12444TIP3    H258824   6.199   0.722   0.224  0.4971  0.3637  0.3119
12445TIP3   OH258825   1.582   4.081   1.780 -0.5367  0.3789 -0.5297
12445TIP3    H158826   1.650   4.144   1.755 -0.7571  1.1013  0.6097
12445TIP3    H258827   1.629   3.999   1.793  0.1687  0.9043  0.3901
12446TIP3   OH258828   2.741   0.119   5.582  0.1151  0.0475  0.7696
12446TIP3    H158829   2.713   0.210   5.595 -0.9007 -0.6584  5.1048
12446TIP3    H258830   2.825   0.113   5.627 -0.0927 -1.2457  1.0337
12447TIP3   OH258831   0.601   4.110   1.834  0.4118 -0.4145 -0.5360
12447TIP3    H158832   0.628   4.156   1.754  0.2863  0.2085 -0.2314
12447TIP3    H258833   0.512   4.142   1.850  0.9752  0.6480  0.6825
12448TIP3   OH258834   1.674   1.187  15.670 -0.0664  0.0721 -0.2772
12448TIP3    H158835   1.762   1.151  15.658  0.0009  0.0903  0.1295
12448TIP3    H258836   1.624   1.114  15.707 -0.3920 -0.1344 -1.1194
12449TIP3   OH258837   3.107   2.627   4.531 -0.0303 -0.5674 -0.2075
12449TIP3    H158838   3.132   2.715   4.559  0.8193 -1.1397  0.9290
12449TIP3    H258839   3.020   2.613   4.569 -1.1528  0.5507 -2.2047
12450TIP3   OH258840   0.752   3.145  16.918 -0.0689  0.0332 -0.1938
12450TIP3    H158841   0.701   3.071  16.884  0.3159  0.6342 -2.2126
12450TIP3    H258842   0.691   3.192  16.975 -1.0511 -0.5319 -0.7466
12451TIP3   OH258843   3.999   2.306  13.444  0.4643 -0.0035 -0.3095
12451TIP3    H158844   3.977   2.213  13.453 -3.5760  0.7481 -0.6428
12451TIP3    H258845   4.011   2.336  13.534  2.1528 -0.8064 -0.2115
12452TIP3   OH258846   4.887   1.200  13.208  0.4109 -1.2769  0.0233
12452TIP3    H158847   4.976   1.180  13.237  0.3854  0.2750  1.3166
12452TIP3    H258848   4.832   1.135  13.252  0.8261 -1.7236 -0.1172
12453TIP3   OH258849   6.269   5.830   5.722 -0.1256  0.6179 -0.2955
12453TIP3    H158850   6.243   5.792   5.806  0.2008  1.4325  0.1807
12453TIP3    H258851   6.204   5.898   5.705 -0.4644  0.1461 -0.9404
12454TIP3   OH258852   5.376   1.465  13.077 -0.1012 -0.1906  0.3025
12454TIP3    H158853   5.303   1.512  13.038  1.4213  1.2447 -0.9854
12454TIP3    H258854   5.343   1.376  13.093 -1.5090 -0.1943 -2.1840
12455TIP3   OH258855   0.259   3.327   4.986  0.2191  0.3575  0.1887
12455TIP3    H158856   0.286   3.363   5.070 -0.4462  1.0907  0.1004
12455TIP3    H258857   0.164   3.324   4.990  0.2191 -2.7422  0.7251
12456TIP3   OH258858   5.366   2.885   4.017 -0.0953 -0.2881  0.3215
12456TIP3    H158859   5.281   2.856   3.985  0.1135  0.6605 -1.1458
12456TIP3    H258860   5.360   2.980   4.019  0.7665 -0.2328  0.7324
12457TIP3   OH258861   1.524   0.975   0.572 -0.0114 -0.3113  0.2350
12457TIP3    H158862   1.512   0.917   0.647  0.5307 -1.3018 -0.4198
12457TIP3    H258863   1.498   1.061   0.604  2.3085 -0.2491  2.2547
12458TIP3   OH258864   5.580   0.516   0.821 -0.6931  0.3495 -0.3006
12458TIP3    H158865   5.609   0.574   0.891 -1.1569 -0.2509  0.4112
12458TIP3    H258866   5.637   0.440   0.827  2.3839  2.1058 -3.5452
12459TIP3   OH258867   3.109   3.410  11.310  0.3031  0.1815  0.1435
12459TIP3    H158868   3.036   3.469  11.328  0.2494  0.0608  0.3147
12459TIP3    H258869   3.158   3.454  11.241  0.3332  0.4890  0.3595
12460TIP3   OH258870   6.425   3.446   5.037  0.1827 -0.4079 -0.1601
12460TIP3    H158871   6.350   3.503   5.020  0.5674  0.2389  0.2636
12460TIP3    H258872   6.393   3.385   5.104 -0.4431 -1.1456 -1.1065
12461TIP3   OH258873   4.350   1.954   5.001  0.1628  0.1403  0.4230
12461TIP3    H158874   4.319   1.968   4.912 -2.2260  0.3832  1.2161
12461TIP3    H258875   4.435   1.911   4.991  0.4586  1.1554 -1.9505
12462TIP3   OH258876   0.887   6.120   3.512  0.4610  0.1266  0.0967
12462TIP3    H158877   0.840   6.126   3.595  0.4831  0.4552  0.0881
12462TIP3    H258878   0.872   6.030   3.482  0.5219 -0.0177  0.4954
12463TIP3   OH258879   0.700   2.098   5.710  0.0884 -0.5093  0.3916
12463TIP3    H158880   0.640   2.148   5.765 -1.4655 -2.5046  0.6459
12463TIP3    H258881   0.712   2.015   5.757  0.9846 -1.1519 -0.9113
12464TIP3   OH258882   4.378   1.090   0.434  0.7442 -0.1713  0.0653
12464TIP3    H158883   4.326   1.017   0.401  0.1419  0.4731 -0.4503
12464TIP3    H258884   4.333   1.118   0.514 -0.4225  1.1256 -0.9917
12465TIP3   OH258885   2.274   4.750   4.123 -0.3213 -0.1917 -0.1204
12465TIP3    H158886   2.190   4.767   4.165 -0.1136  0.0714  0.2023
12465TIP3    H258887   2.273   4.805   4.045  0.2151  1.1118  0.7540
12466TIP3   OH258888   6.730   2.089   0.322  0.0422  0.0467  0.0493
12466TIP3    H158889   6.819   2.058   0.336  1.1306  2.7446 -0.2344
12466TIP3    H258890   6.721   2.094   0.226 -0.9028 -1.3787  0.0348
12467TIP3   OH258891   1.500   3.852  12.295 -0.0407  0.0360 -0.2582
12467TIP3    H158892   1.582   3.819  12.260  0.6810  1.2341  0.2576
12467TIP3    H258893   1.471   3.783  12.355  0.9844 -0.0749  0.1306
12468TIP3   OH258894   2.844   6.768   1.577  0.0776  0.0849 -0.0665
12468TIP3    H158895   2.883   6.687   1.544  0.5166 -0.1448  0.9877
12468TIP3    H258896   2.899   6.837   1.540  0.4261 -0.1544 -0.0017
12469TIP3   OH258897   1.453   4.392  12.492  0.4555  0.1384 -0.4091
12469TIP3    H158898   1.481   4.434  12.411  3.1455 -0.1267  0.2796
12469TIP3    H258899   1.459   4.299  12.475 -0.6112  0.0488 -0.3820
12470TIP3   OH258900   2.827   5.503  13.102 -0.6020 -0.1277 -0.2066
12470TIP3    H158901   2.843   5.472  13.191  0.3105 -0.5534 -0.5002
12470TIP3    H258902   2.910   5.487  13.056 -0.1311  2.5718 -0.4455
12471TIP3   OH258903   5.478   2.483  15.706 -0.2928  0.1434 -0.5123
12471TIP3    H158904   5.521   2.406  15.670 -1.1954 -0.7087  0.1833
12471TIP3    H258905   5.526   2.502  15.787 -0.2573  0.1271 -0.5294
12472TIP3   OH258906   0.597   2.605  15.180  0.2251 -0.1613 -0.2852
12472TIP3    H158907   0.645   2.664  15.238  0.2331  0.7110 -1.1646
12472TIP3    H258908   0.527   2.569  15.235  0.7139  0.0315  0.4793
12473TIP3   OH258909   6.016   1.206  12.988  0.4654 -0.3375  0.1617
12473TIP3    H158910   6.081   1.148  13.028 -0.0714 -0.8132  0.3485
12473TIP3    H258911   6.062   1.290  12.978  0.6919 -0.2794  1.5473
12474TIP3   OH258912   4.584   5.008   6.279  0.2490 -0.4554 -0.0237
12474TIP3    H158913   4.585   4.958   6.361 -3.0985 -1.3236 -0.3544
12474TIP3    H258914   4.496   4.994   6.244  0.4622  2.5574 -2.1344
12475TIP3   OH258915   0.385   3.094  14.080  0.1414 -0.1794 -0.2195
12475TIP3    H158916   0.457   3.033  14.100 -0.2469 -0.5951 -0.0637
12475TIP3    H258917   0.363   3.076  13.989  0.1634 -0.1276 -0.2348
12476TIP3   OH258918   6.636   4.865  13.218 -0.3271 -0.1276 -0.2941
12476TIP3    H158919   6.549   4.846  13.254  0.7811 -1.3730  1.9126
12476TIP3    H258920   6.619   4.931  13.150 -2.8309  0.7040  0.9870
12477TIP3   OH258921   2.677   4.304   1.052 -0.3586  0.3428 -0.1452
12477TIP3    H158922   2.746   4.347   1.002 -1.2609  0.9677 -0.8783
12477TIP3    H258923   2.625   4.256   0.986  1.0029 -2.5196  0.6848
12478TIP3   OH258924   2.575   3.720  14.440 -0.2895  0.0548 -0.0311
12478TIP3    H158925   2.600   3.628  14.441 -2.8017 -0.6934  1.5107
12478TIP3    H258926   2.489   3.722  14.398 -1.8396  1.1266  2.8931
12479TIP3   OH258927   0.277   4.940   3.647 -0.0231 -0.2391  0.4825
12479TIP3    H158928   0.187   4.909   3.655 -0.5177  1.0749  0.1889
12479TIP3    H258929   0.305   4.955   3.737 -1.3260  2.6419  0.5299
12480TIP3   OH258930   5.014   1.196  16.545  0.0020 -0.2918  0.0284
12480TIP3    H158931   5.041   1.198  16.453  1.8704 -2.7103  0.4382
12480TIP3    H258932   4.921   1.173  16.542  0.5647 -2.6945 -1.2644
12481TIP3   OH258933   4.403   3.555  12.786  0.3916 -0.5177 -0.2331
12481TIP3    H158934   4.483   3.534  12.835  1.1104  0.5734 -0.8723
12481TIP3    H258935   4.429   3.628  12.730 -1.8139  2.0093  1.7372
12482TIP3   OH258936   2.640   1.522   3.322  0.4664  0.1530  0.3919
12482TIP3    H158937   2.606   1.450   3.269  0.9551  0.6019 -0.5410
12482TIP3    H258938   2.591   1.515   3.404 -0.3587 -0.4996 -0.1350
12483TIP3   OH258939   2.299   5.599  13.502  0.4275  0.4159  0.0507
12483TIP3    H158940   2.242   5.628  13.573  0.1142  1.0455 -0.4437
12483TIP3    H258941   2.274   5.654  13.427  0.0054 -0.9559 -0.8445
12484TIP3   OH258942   4.976   6.230  13.461  1.1279  0.0257  0.1558
12484TIP3    H158943   4.887   6.195  13.455  1.1343  0.0855 -0.3162
12484TIP3    H258944   4.997   6.259  13.372  1.1298  1.2143  0.5285
12485TIP3   OH258945   0.816   5.762  12.367  0.1759 -0.3295 -0.2162
12485TIP3    H158946   0.823   5.720  12.453  0.2541 -3.4130 -1.6316
12485TIP3    H258947   0.759   5.837  12.382 -3.9363 -3.4581  1.6756
12486TIP3   OH258948   1.869   2.359  10.887  0.5105 -0.6605  0.4804
12486TIP3    H158949   1.874   2.438  10.834 -0.0836  0.1245  1.5680
12486TIP3    H258950   1.795   2.311  10.851  0.0533 -0.0889  0.6502
12487TIP3   OH258951   6.355   4.592   3.774  0.4432  0.2415 -0.1935
12487TIP3    H158952   6.399   4.593   3.690 -0.0949  0.7860 -0.4777
12487TIP3    H258953   6.281   4.653   3.764  0.0328 -0.1251  0.4833
12488TIP3   OH258954   3.477   5.209   4.212  0.2827  0.5370  0.2271
12488TIP3    H158955   3.399   5.179   4.165  0.6094 -0.6478  0.4089
12488TIP3    H258956   3.526   5.259   4.147 -0.3055  0.7220 -0.0827
12489TIP3   OH258957   5.705   3.067   3.184 -0.3734  0.0733 -0.1257
12489TIP3    H158958   5.758   3.083   3.106 -1.6135  0.0428 -1.0094
12489TIP3    H258959   5.751   2.997   3.231 -0.2933 -0.8509 -1.5241
12490TIP3   OH258960   2.033   5.190   0.779 -0.1367 -0.2856  0.8460
12490TIP3    H158961   1.953   5.235   0.752  0.9795  0.5629 -1.1916
12490TIP3    H258962   2.087   5.259   0.818  0.6893 -0.2859 -0.2765
12491TIP3   OH258963   1.294   4.058   1.783  0.6829  0.3562 -0.1634
12491TIP3    H158964   1.314   4.149   1.758  1.8374  0.2809  0.4235
12491TIP3    H258965   1.379   4.020   1.803  0.0565 -0.3839  1.1897
12492TIP3   OH258966   4.623   4.626  13.847  0.0363  0.0435  0.4306
12492TIP3    H158967   4.689   4.637  13.779 -0.6617  0.8299 -0.1487
12492TIP3    H258968   4.672   4.604  13.926  0.8222 -1.5934 -0.4566
12493TIP3   OH258969   0.147   4.036  12.498  0.1056  0.4250  0.1396
12493TIP3    H158970   0.196   3.957  12.518 -0.7299  0.1280  1.0943
12493TIP3    H258971   0.178   4.100  12.562  2.1415  1.5010 -1.7748
12494TIP3   OH258972   1.857   3.794  15.035 -0.3102  0.3851 -0.9075
12494TIP3    H158973   1.790   3.801  15.103  0.2263 -1.2851 -0.1389
12494TIP3    H258974   1.812   3.818  14.954 -1.4245  0.7689 -0.1946
12495TIP3   OH258975   4.519   0.837  14.093 -0.9562  0.3259 -0.0255
12495TIP3    H158976   4.567   0.892  14.155 -0.3999  0.3127 -0.4388
12495TIP3    H258977   4.438   0.815  14.139  0.8131 -2.4503  2.1636
12496TIP3   OH258978   6.247   6.553  15.920 -0.1635  0.8604 -0.2180
12496TIP3    H158979   6.299   6.621  15.877  1.2152 -0.1376 -0.1902
12496TIP3    H258980   6.201   6.509  15.849  0.7383  0.3532 -0.5017
12497TIP3   OH258981   5.403   0.853  16.027 -0.1698 -0.5298 -0.2065
12497TIP3    H158982   5.449   0.821  15.950  2.1341  1.2336  0.3423
12497TIP3    H258983   5.464   0.838  16.099  0.1003  2.8508  0.4045
12498TIP3   OH258984   5.074   2.858  13.631 -0.4893 -0.3392  0.1691
12498TIP3    H158985   5.149   2.908  13.663 -1.3245  2.0640 -1.3370
12498TIP3    H258986   5.013   2.858  13.705 -0.3407  0.6332  0.3110
12499TIP3   OH258987   4.816   2.885  15.416 -0.6616 -0.4416  0.5091
12499TIP3    H158988   4.848   2.883  15.325 -0.0498 -0.6293  0.7268
12499TIP3    H258989   4.858   2.962  15.454 -0.4890 -0.6712  0.7871
12500TIP3   OH258990   5.864   1.097   1.242 -0.2321  0.7510 -0.1286
12500TIP3    H158991   5.775   1.081   1.210  0.2122  1.1113 -1.5913
12500TIP3    H258992   5.906   1.011   1.240  0.1595  0.9579 -1.7184
12501TIP3   OH258993   6.333   0.228   3.168  0.1430  0.3637 -0.4463
12501TIP3    H158994   6.280   0.175   3.108 -0.6949  0.3432  0.2847
12501TIP3    H258995   6.281   0.232   3.248  2.0644 -1.2094  0.9787
12502TIP3   OH258996   5.696   6.804  15.881  0.7475  0.2732  0.3240
12502TIP3    H158997   5.689   6.722  15.833 -0.6819  0.3541  0.3751
12502TIP3    H258998   5.649   6.867  15.827  1.5259  0.9990  0.4648
12503TIP3   OH258999   5.725   2.087   5.467  0.0537 -0.1105 -0.1242
12503TIP3    H159000   5.801   2.083   5.409  0.1635  1.1509 -0.0902
12503TIP3    H259001   5.761   2.109   5.553 -0.4161  1.7381 -0.3499
12504TIP3   OH259002   4.019   3.117  12.515  0.5094  0.4696  0.3823
12504TIP3    H159003   4.002   3.191  12.573  1.2392  0.1738  0.9960
12504TIP3    H259004   4.112   3.124  12.495  0.8484 -0.8644  1.3195
12505TIP3   OH259005   5.361   6.145   4.100 -0.2395 -1.3163 -0.1616
12505TIP3    H159006   5.308   6.165   4.177  1.0905 -1.1247  0.7235
12505TIP3    H259007   5.412   6.068   4.126 -1.5207 -2.7491 -1.7069
12506TIP3   OH259008   4.740   5.158  12.692  0.4955 -0.4209 -0.3264
12506TIP3    H159009   4.830   5.185  12.711  0.3511 -0.6612  0.7967
12506TIP3    H259010   4.749   5.069  12.657  0.6134 -1.1921  1.5328
12507TIP3   OH259011   1.329   2.433  11.838 -0.1287  0.2323 -0.3123
12507TIP3    H159012   1.287   2.503  11.788  0.3653 -0.4216 -1.7249
12507TIP3    H259013   1.265   2.408  11.904 -0.8266  1.1436 -0.6307
12508TIP3   OH259014   6.693   3.198  12.549  0.0068 -0.0939 -0.4781
12508TIP3    H159015   6.614   3.210  12.602  1.3518  1.0223  1.3609
12508TIP3    H259016   6.689   3.107  12.520 -0.3667 -1.0370  2.2729
12509TIP3   OH259017   1.806   2.064  14.646  0.3365  0.4200  0.4045
12509TIP3    H159018   1.856   2.118  14.585  0.7753  0.2844  0.6390
12509TIP3    H259019   1.721   2.055  14.604  0.5299  0.5854 -0.0439
12510TIP3   OH259020   2.566   3.118   5.958  0.0687  0.0334 -0.0639
12510TIP3    H159021   2.513   3.105   6.036  0.2923 -0.1010  0.0677
12510TIP3    H259022   2.655   3.094   5.985  0.2408  0.4870 -0.2157
12511TIP3   OH259023   1.553   2.325  12.350  0.5528  0.2539 -0.1581
12511TIP3    H159024   1.509   2.241  12.340  0.6430  0.2577 -0.6286
12511TIP3    H259025   1.587   2.344  12.263 -0.9346  1.5895 -0.5104
12512TIP3   OH259026   0.814   1.332  13.620  0.0057  0.8761 -0.3243
12512TIP3    H159027   0.889   1.352  13.564 -0.3079  1.7987 -0.4304
12512TIP3    H259028   0.845   1.348  13.709  0.6131 -0.9324 -0.1789
12513TIP3   OH259029   1.618   4.104   0.077 -0.0600  0.1215 -0.4655
12513TIP3    H159030   1.555   4.136   0.013  0.9983  0.9570 -1.1429
12513TIP3    H259031   1.674   4.180   0.095  0.1821 -0.3335  0.8276
12514TIP3   OH259032   1.692   3.823   1.052 -1.2517  0.4858  0.0542
12514TIP3    H159033   1.748   3.899   1.034 -0.2763 -0.2314  0.0297
12514TIP3    H259034   1.752   3.752   1.072 -2.1254 -0.5028 -0.6862
12515TIP3   OH259035   6.311   1.109  13.815  0.3189 -0.3472  0.1607
12515TIP3    H159036   6.396   1.122  13.858  0.4782  0.2862 -0.3452
12515TIP3    H259037   6.278   1.028  13.854  1.6203 -1.1708 -0.3866
12516TIP3   OH259038   0.274   6.460  13.355 -0.5970  0.1453  0.3559
12516TIP3    H159039   0.209   6.517  13.397  0.3710  1.6425 -0.1083
12516TIP3    H259040   0.357   6.486  13.393 -0.1229 -0.9467  0.0911
12517TIP3   OH259041   2.308   0.722  15.949 -0.0024 -0.3231 -1.3263
12517TIP3    H159042   2.225   0.768  15.939  0.5851  1.7551  1.7712
12517TIP3    H259043   2.372   0.778  15.904  0.0996 -0.5859 -1.5143
12518TIP3   OH259044   3.861   4.311  14.363  0.3725 -0.6569 -0.2006
12518TIP3    H159045   3.822   4.350  14.285 -0.9766  0.3579  0.9286
12518TIP3    H259046   3.811   4.348  14.436  1.5915 -1.5676  1.1553
12519TIP3   OH259047   1.517   2.640  15.979  0.4436  0.1474 -0.2815
12519TIP3    H159048   1.535   2.547  15.966  2.7654  0.6648 -1.0982
12519TIP3    H259049   1.434   2.655  15.933 -0.4767 -1.6778  0.6861
12520TIP3   OH259050   6.767   6.049  15.322  0.5684 -0.3441 -0.9164
12520TIP3    H159051   6.729   6.025  15.238  0.1430 -0.0853 -0.8013
12520TIP3    H259052   6.837   5.986  15.336  0.0570 -0.9455 -1.0407
12521TIP3   OH259053   5.361   2.956  13.531 -0.2235  0.2509 -0.7519
12521TIP3    H159054   5.288   2.970  13.470 -1.9090  1.5449  1.4249
12521TIP3    H259055   5.334   3.000  13.611  2.7529  0.2808  0.3471
12522TIP3   OH259056   3.056   0.893  10.768  0.0627  0.6656  0.1262
12522TIP3    H159057   3.003   0.814  10.759  0.5908  0.0342  1.9120
12522TIP3    H259058   3.038   0.923  10.858  2.6967  0.3699  0.8396
12523TIP3   OH259059   5.331   4.683  15.410 -0.3606  0.1751  0.1743
12523TIP3    H159060   5.237   4.693  15.390  0.0391  1.3596 -1.3041
12523TIP3    H259061   5.371   4.764  15.378  1.2818 -0.6556  0.0427
12524TIP3   OH259062   5.438   1.782  14.302  0.7072  0.3395  0.6641
12524TIP3    H159063   5.448   1.706  14.360  1.3745  1.6004  2.2938
12524TIP3    H259064   5.358   1.765  14.254  0.6965 -1.2766  1.1836
12525TIP3   OH259065   3.126   0.481   0.131 -0.3076  0.2034  0.2090
12525TIP3    H159066   3.184   0.411   0.161  0.3186  1.0218  0.9706
12525TIP3    H259067   3.174   0.561   0.149 -0.2434  0.8043 -2.2946
12526TIP3   OH259068   5.133   5.655  11.740 -0.5486  0.2032  0.0357
12526TIP3    H159069   5.071   5.591  11.703  1.5848 -2.1950  0.3824
12526TIP3    H259070   5.106   5.663  11.831 -0.0662 -1.2853  0.3433
12527TIP3   OH259071   1.325   3.171  13.495 -0.1942 -0.4491  0.1408
12527TIP3    H159072   1.367   3.133  13.418 -2.5561 -0.9138 -1.0012
12527TIP3    H259073   1.359   3.121  13.568  0.3989 -1.5249 -0.8455
12528TIP3   OH259074   3.808   5.946   1.002  0.1911  0.5906  0.1529
12528TIP3    H159075   3.866   6.013   0.967 -0.9941  1.1392 -0.8463
12528TIP3    H259076   3.769   5.905   0.924 -0.7536  0.2524  0.7843
12529TIP3   OH259077   2.373   3.560   0.382  0.5850  0.1110  0.3207
12529TIP3    H159078   2.329   3.642   0.403  0.3543 -0.1341  0.7810
12529TIP3    H259079   2.311   3.492   0.405  0.8380 -0.2025  0.0881
12530TIP3   OH259080   4.450   5.813  16.798 -0.4582 -0.9745 -0.0092
12530TIP3    H159081   4.490   5.852  16.721  0.0857  1.0529  1.2457
12530TIP3    H259082   4.501   5.733  16.814  0.1639 -0.7914 -1.0340
12531TIP3   OH259083   2.428   3.589   0.713 -0.2501 -0.5092  0.2288
12531TIP3    H159084   2.520   3.610   0.697 -0.1912 -0.5473  0.5136
12531TIP3    H259085   2.416   3.603   0.807 -0.7969  0.5101  0.0243
12532TIP3   OH259086   6.442   0.627  13.424 -0.4429  0.0771 -0.1161
12532TIP3    H159087   6.393   0.548  13.401 -1.0992  0.6629 -0.7924
12532TIP3    H259088   6.505   0.639  13.353 -1.6661  1.2237 -1.0620
12533TIP3   OH259089   0.307   2.062  15.643 -0.6819  0.2544  0.4022
12533TIP3    H159090   0.256   2.080  15.564  0.5708 -2.0346 -1.0450
12533TIP3    H259091   0.360   2.141  15.656 -0.6870  0.5702 -1.2485
12534TIP3   OH259092   4.017   0.051   4.870  0.0268  0.1440  0.4002
12534TIP3    H159093   4.051   0.057   4.960 -0.4018  0.6460  0.5296
12534TIP3    H259094   3.937  -0.001   4.878 -0.1424  0.3964  0.3452
12535TIP3   OH259095   4.180   0.770  12.915 -0.1270  0.0053 -0.0648
12535TIP3    H159096   4.159   0.778  13.008  4.0348 -0.3050  1.1046
12535TIP3    H259097   4.191   0.675  12.902 -0.7525  0.0457 -0.9317
12536TIP3   OH259098   4.089   4.644  10.886  0.2395  0.1259 -0.3136
12536TIP3    H159099   4.086   4.675  10.977 -0.1220  1.8399 -0.8570
12536TIP3    H259100   4.024   4.574  10.882 -0.9110  1.0994  0.4137
12537TIP3   OH259101   4.865   1.482  16.745 -0.4241  0.0499  0.5773
12537TIP3    H159102   4.926   1.544  16.783 -0.2397  1.4152 -1.7664
12537TIP3    H259103   4.779   1.522  16.757 -0.8279 -1.2744  2.7319
12538TIP3   OH259104   2.788   1.848  12.174 -0.0283 -0.4853 -0.2039
12538TIP3    H159105   2.741   1.878  12.096 -1.6494 -0.9625  0.5484
12538TIP3    H259106   2.726   1.859  12.246  0.2595 -3.0505  0.5407
12539TIP3   OH259107   6.704   0.062   2.744 -0.4161  0.4329 -0.0726
12539TIP3    H159108   6.718   0.151   2.712 -0.5683  0.9404  1.2151
12539TIP3    H259109   6.611   0.057   2.765 -1.0519 -0.9704 -2.7749
12540TIP3   OH259110   6.753   5.753   1.039 -0.2273 -0.4417  0.1169
12540TIP3    H159111   6.713   5.768   0.954 -0.5456  1.2534  0.5151
12540TIP3    H259112   6.708   5.814   1.098  1.2512 -0.2163  1.0933
12541TIP3   OH259113   6.490   2.776  13.115 -0.0543  0.7666  0.4752
12541TIP3    H159114   6.539   2.695  13.132 -0.5109  0.5437  0.7443
12541TIP3    H259115   6.556   2.836  13.080 -0.2901 -0.8249 -3.1903
12542TIP3   OH259116   1.848   2.499   5.344 -0.1910 -0.2895 -0.1928
12542TIP3    H159117   1.866   2.452   5.263 -0.5255  0.3041 -0.6150
12542TIP3    H259118   1.761   2.536   5.332 -0.0036  0.2935  0.2081
12543TIP3   OH259119   5.153   5.750  14.162  0.4757 -0.4841  0.4741
12543TIP3    H159120   5.168   5.702  14.080 -0.9164 -0.5165  0.2094
12543TIP3    H259121   5.204   5.703  14.227 -0.7161 -2.2657  0.1976
12544TIP3   OH259122   6.194   0.540  15.842 -0.2827  0.2022 -0.0247
12544TIP3    H159123   6.140   0.462  15.860 -0.9327  0.6168 -0.1255
12544TIP3    H259124   6.281   0.517  15.874 -0.6160 -0.3385  0.5199
12545TIP3   OH259125   6.729   4.909   4.544 -0.3074 -0.1394  0.1450
12545TIP3    H159126   6.814   4.900   4.500  0.0994 -0.7390  1.0357
12545TIP3    H259127   6.728   5.000   4.574 -0.0428 -0.0882  0.0055
12546TIP3   OH259128   2.661   2.964   5.545 -0.5453  0.2221  0.5777
12546TIP3    H159129   2.618   2.952   5.630 -1.5629 -1.1832 -0.0921
12546TIP3    H259130   2.680   3.057   5.540 -0.1174  0.2807  2.4976
12547TIP3   OH259131   4.073   6.739   1.910  0.2048  0.2008  0.1344
12547TIP3    H159132   4.085   6.702   1.823 -0.4861  0.5603 -0.1263
12547TIP3    H259133   4.153   6.789   1.927  0.3928  0.0262 -0.2447
12548TIP3   OH259134   0.329   0.120  13.104 -0.5214  0.4994  0.1241
12548TIP3    H159135   0.380   0.040  13.093 -0.1883  0.6234  0.7443
12548TIP3    H259136   0.325   0.158  13.016  2.1564  1.5201  0.3560
12549TIP3   OH259137   5.595   3.005  14.510 -0.1934 -0.3720 -0.1388
12549TIP3    H159138   5.573   2.922  14.468  2.7013 -1.1938 -0.3106
12549TIP3    H259139   5.638   2.979  14.591  1.7128  0.8604 -0.6936
12550TIP3   OH259140   2.156   4.315   0.372 -0.7339 -0.3926  0.0616
12550TIP3    H159141   2.180   4.224   0.355  0.0919  0.1228 -1.6890
12550TIP3    H259142   2.236   4.365   0.356 -1.3494  0.7127  0.3387
12551TIP3   OH259143   3.000   0.053   0.456  0.4674 -0.3801 -1.1286
12551TIP3    H159144   3.074   0.056   0.395  0.8161 -1.9819 -0.8209
12551TIP3    H259145   2.931   0.007   0.407 -0.3761  1.1315 -1.4298
12552TIP3   OH259146   1.015   0.482   4.881  0.0595  0.0380  0.7701
12552TIP3    H159147   0.934   0.532   4.874  0.8873  1.2864 -0.3458
12552TIP3    H259148   1.011   0.441   4.967 -2.4157 -1.1574  0.1911
12553TIP3   OH259149   4.960   3.956  10.867 -0.3433 -0.3426  0.0706
12553TIP3    H159150   4.908   4.017  10.815 -0.2204 -0.5324 -0.2787
12553TIP3    H259151   4.896   3.910  10.922 -0.4540 -0.0215  0.2130
12554TIP3   OH259152   2.012   6.717  13.741  0.3425 -0.2751 -0.5612
12554TIP3    H159153   1.928   6.706  13.696  0.5454  0.4664 -1.1368
12554TIP3    H259154   2.024   6.635  13.789 -1.0863 -0.0927  0.1680
12555TIP3   OH259155   3.146   0.510  11.282  0.1476  0.8714 -0.7831
12555TIP3    H159156   3.148   0.464  11.199  1.1569  1.6823 -1.2308
12555TIP3    H259157   3.235   0.502  11.316 -0.2500  0.5669  0.2118
12556TIP3   OH259158   1.174   6.691  16.491 -1.1819 -0.1262 -0.2898
12556TIP3    H159159   1.103   6.628  16.482 -1.2710 -0.0384 -0.1929
12556TIP3    H259160   1.156   6.758  16.424 -0.5986 -0.6698 -1.0122
12557TIP3   OH259161   3.419   2.958   2.759  0.4904 -0.6901  0.6531
12557TIP3    H159162   3.460   2.941   2.674 -2.7013 -1.8206 -0.8467
12557TIP3    H259163   3.415   3.053   2.765  3.8845 -0.4896  1.2909
12558TIP3   OH259164   3.916   2.316  12.952 -0.3089  0.2371 -0.1723
12558TIP3    H159165   3.950   2.242  12.902  0.0975 -0.0010  0.4569
12558TIP3    H259166   3.852   2.357  12.893  0.8800  0.5595 -1.2862
12559TIP3   OH259167   6.033   4.113   2.193  0.4337 -0.1837 -0.3686
12559TIP3    H159168   6.126   4.132   2.206  0.1932  1.0637 -0.3650
12559TIP3    H259169   6.028   4.017   2.194  1.8378 -0.3011 -1.1983
12560TIP3   OH259170   0.315   2.389   5.364  0.4845  0.0524 -0.1802
12560TIP3    H159171   0.358   2.445   5.299 -0.2719  0.0818 -0.6667
12560TIP3    H259172   0.261   2.449   5.416  1.1788  0.0476  0.5713
12561TIP3   OH259173   0.806   4.120  13.322 -0.5386  0.7155 -0.3735
12561TIP3    H159174   0.846   4.061  13.387  0.6414  1.9968  0.1160
12561TIP3    H259175   0.880   4.161  13.278 -1.3315  1.4850 -1.0266
12562TIP3   OH259176   0.739   1.530   0.249  0.2591  0.2803  0.0681
12562TIP3    H159177   0.779   1.537   0.162 -0.5300  2.7331 -0.1875
12562TIP3    H259178   0.770   1.447   0.284  0.9488 -0.5666 -2.3838
12563TIP3   OH259179   0.100   1.070  16.165 -0.0701  0.3414  0.2403
12563TIP3    H159180   0.126   1.005  16.230 -0.8487 -1.7402 -1.4324
12563TIP3    H259181   0.038   1.127  16.210  0.7566  0.0534  1.7935
12564TIP3   OH259182   6.515   1.357   3.885  0.2875 -0.2033 -0.0368
12564TIP3    H159183   6.500   1.280   3.829  0.0147 -1.2408  1.4107
12564TIP3    H259184   6.550   1.321   3.966  1.9427  1.4055  0.0025
12565TIP3   OH259185   3.003   2.187   2.139 -0.1174 -0.1446  0.1330
12565TIP3    H159186   3.009   2.266   2.193  3.2493 -0.6277  0.7088
12565TIP3    H259187   3.055   2.208   2.061 -0.9188 -1.1054 -0.6831
12566TIP3   OH259188   0.399   2.626  13.477 -0.3606  0.6498 -0.2046
12566TIP3    H159189   0.413   2.544  13.430  1.4881  1.1879 -0.6959
12566TIP3    H259190   0.325   2.667  13.432 -1.0969 -0.5794 -0.1596
12567TIP3   OH259191   1.534   3.082  16.056  0.2959 -0.3608 -0.0534
12567TIP3    H159192   1.559   3.166  16.095  0.1990 -0.6272  0.5944
12567TIP3    H259193   1.462   3.104  15.997 -2.4021 -0.4423  2.9104
12568TIP3   OH259194   4.130   3.158  13.786 -0.6360 -0.1697 -0.2980
12568TIP3    H159195   4.119   3.206  13.704  0.0919 -0.1767 -0.4113
12568TIP3    H259196   4.124   3.224  13.854  1.4809  0.3277 -0.4998
12569TIP3   OH259197   0.812   3.463   1.906 -0.4739 -0.4305  0.6009
12569TIP3    H159198   0.788   3.438   1.817 -1.7195  1.2671  0.3927
12569TIP3    H259199   0.855   3.386   1.943 -0.3632 -1.3262 -1.3032
12570TIP3   OH259200   3.249   2.592  10.690 -0.2826  0.0070  0.2604
12570TIP3    H159201   3.316   2.537  10.651 -0.0042 -0.2365  1.0594
12570TIP3    H259202   3.185   2.530  10.725  0.2630  0.1566  1.5740
12571TIP3   OH259203   4.899   0.159  12.596  0.0432 -0.1622  0.1591
12571TIP3    H159204   4.931   0.079  12.554 -1.8075  0.2402 -2.1830
12571TIP3    H259205   4.805   0.147  12.603 -0.2336  1.6718  0.0522
12572TIP3   OH259206   6.496   5.204  13.476  0.7185 -0.9486 -0.4015
12572TIP3    H159207   6.437   5.137  13.510  0.5393 -0.1596  0.9063
12572TIP3    H259208   6.527   5.250  13.554 -0.9237  1.9853 -1.3334
12573TIP3   OH259209   1.495   1.219  11.025 -0.3181  0.7989 -0.0251
12573TIP3    H159210   1.579   1.239  11.066 -0.1231  0.0453 -0.0353
12573TIP3    H259211   1.490   1.123  11.026 -1.6192  0.8513  0.8630
12574TIP3   OH259212   5.785   2.316   5.986 -0.2457  0.0434  0.0180
12574TIP3    H159213   5.703   2.364   5.981  0.7303  1.7885 -0.0445
12574TIP3    H259214   5.778   2.265   6.067 -2.2864 -1.6776 -1.1526
12575TIP3   OH259215   4.956   5.413   1.077 -0.2146  0.1817  0.6149
12575TIP3    H159216   4.903   5.389   1.002 -0.2509  2.2954 -0.0891
12575TIP3    H259217   4.913   5.490   1.114 -0.5927 -1.1682  3.2576
12576TIP3   OH259218   4.435   2.526  16.584  0.1088 -0.3002 -0.1639
12576TIP3    H159219   4.344   2.550  16.568  0.0781 -0.6980 -0.6431
12576TIP3    H259220   4.485   2.605  16.563 -0.1745  0.1633  0.8512
12577TIP3   OH259221   2.177   3.738   3.601  0.4380 -0.2252  0.5867
12577TIP3    H159222   2.153   3.762   3.690 -2.2806 -0.5729  0.0407
12577TIP3    H259223   2.151   3.646   3.593 -0.0569  0.0002 -0.7546
12578TIP3   OH259224   3.316   2.351  12.016  0.1082  0.2949  0.3676
12578TIP3    H159225   3.269   2.314  12.090  0.2329  1.6177  1.1433
12578TIP3    H259226   3.311   2.446  12.029  0.8189  0.5313 -0.8874
12579TIP3   OH259227   2.474   3.845  14.906 -0.4866 -0.0706  0.1099
12579TIP3    H159228   2.566   3.816  14.898 -0.4943 -0.4126  1.1381
12579TIP3    H259229   2.477   3.917  14.969 -0.8748  0.1908 -0.1696
12580TIP3   OH259230   5.898   0.159  10.740  0.3036 -0.0970  0.0388
12580TIP3    H159231   5.805   0.175  10.760  0.4492  1.2875 -0.2512
12580TIP3    H259232   5.900   0.144  10.646  0.4505  0.6316 -0.0794
12581TIP3   OH259233   2.864   4.525  14.781  0.3158  0.1363  0.7523
12581TIP3    H159234   2.836   4.496  14.868 -1.1592 -0.0357  0.2562
12581TIP3    H259235   2.948   4.569  14.795  2.0259 -3.1718  1.7298
12582TIP3   OH259236   5.727   5.605  16.157  0.5591 -0.4163  0.5069
12582TIP3    H159237   5.757   5.584  16.245 -2.1660 -1.2131  1.3328
12582TIP3    H259238   5.732   5.523  16.109  0.1585 -0.4443  0.5107
12583TIP3   OH259239   1.161   0.345  11.927  0.0775 -0.2776  0.4108
12583TIP3    H159240   1.188   0.307  11.844 -0.6217 -3.4896  1.5051
12583TIP3    H259241   1.065   0.347  11.922  0.0826  1.7352  0.3087
12584TIP3   OH259242   0.325   6.242  16.823  0.2439  0.2983  0.5836
12584TIP3    H159243   0.377   6.236  16.903 -1.4333 -0.4100  1.6756
12584TIP3    H259244   0.389   6.257  16.753  1.8149  0.1808  1.9543
12585TIP3   OH259245   5.993   2.534  13.400 -0.5238  0.5736 -0.2140
12585TIP3    H159246   5.957   2.463  13.347 -1.8121  1.7074 -0.8946
12585TIP3    H259247   5.943   2.532  13.482 -0.8193  0.9313 -0.3842
12586TIP3   OH259248   2.740   6.804  14.556  0.1687  0.0970 -0.2449
12586TIP3    H159249   2.785   6.847  14.628  0.2750  0.2064 -0.3742
12586TIP3    H259250   2.783   6.719  14.548  0.0344  0.0119 -0.0620
12587TIP3   OH259251   2.207   1.792   2.386 -0.8520  0.3574 -0.6400
12587TIP3    H159252   2.260   1.842   2.324 -0.8543  0.5628 -0.4769
12587TIP3    H259253   2.176   1.717   2.335 -3.1767  1.9461 -1.7449
12588TIP3   OH259254   5.481   3.604  16.855  0.2206  0.5072  0.0198
12588TIP3    H159255   5.442   3.651  16.781 -0.1945  0.0667 -0.0510
12588TIP3    H259256   5.575   3.605  16.838  0.1562  0.7019 -0.3369
12589TIP3   OH259257   2.267   2.967  10.781  0.2103 -0.5126 -0.0489
12589TIP3    H159258   2.309   3.052  10.768  1.7371 -1.2961 -0.5312
12589TIP3    H259259   2.194   2.967  10.718 -0.1080  0.6137  0.3027
12590TIP3   OH259260   6.186   3.651  16.880 -0.1902 -0.7515 -0.3236
12590TIP3    H159261   6.275   3.676  16.855 -0.5659  0.0173 -0.9310
12590TIP3    H259262   6.169   3.700  16.960  0.2504 -1.6094  0.3205
12591TIP3   OH259263   4.605   5.042   2.513  0.0027 -0.3440  0.4284
12591TIP3    H159264   4.662   5.105   2.559 -1.3107 -0.6783  2.6682
12591TIP3    H259265   4.517   5.079   2.522 -0.2861 -0.0936 -2.5334
12592TIP3   OH259266   2.445   5.589  15.704  0.0463  0.1364 -0.0976
12592TIP3    H159267   2.501   5.517  15.735 -0.2446 -0.1551 -0.2335
12592TIP3    H259268   2.357   5.562  15.730 -0.1786 -0.0080 -0.9762
12593TIP3   OH259269   0.835   5.511   3.041 -0.8349 -0.2458 -0.3505
12593TIP3    H159270   0.766   5.467   2.992 -0.1819 -0.7470 -0.8366
12593TIP3    H259271   0.899   5.442   3.059 -1.7261 -0.4797  2.5626
12594TIP3   OH259272   0.118   5.674   4.223  0.1543 -0.6846  0.6077
12594TIP3    H159273   0.063   5.646   4.149  0.2394  0.6649  0.0082
12594TIP3    H259274   0.204   5.688   4.184 -0.1149  1.3874  0.6280
12595TIP3   OH259275   1.704   3.604  15.822 -0.3995  0.2019  0.4615
12595TIP3    H159276   1.624   3.556  15.844 -1.2617  1.0233 -0.8019
12595TIP3    H259277   1.771   3.536  15.817 -0.9408 -0.4804  1.7586
12596TIP3   OH259278   3.553   2.270   1.214  0.7134 -0.2586  0.1221
12596TIP3    H159279   3.593   2.325   1.281  1.0772 -1.4102  0.8749
12596TIP3    H259280   3.484   2.325   1.177  1.3036  0.8337  0.5789
12597TIP3   OH259281   2.064   6.386   5.096  0.9736 -0.0507 -0.5232
12597TIP3    H159282   2.020   6.436   5.164  1.8556 -1.5776  1.2730
12597TIP3    H259283   2.008   6.394   5.019 -1.0548  0.1972  0.9147
12598TIP3   OH259284   5.065   2.301  12.978  0.7273  0.2023  0.0194
12598TIP3    H159285   5.081   2.335  13.066 -0.0246  1.1790 -0.2050
12598TIP3    H259286   5.004   2.363  12.939  0.4302 -0.6548 -0.9207
12599TIP3   OH259287   0.735   4.335   4.817  0.1915  0.3852 -0.1942
12599TIP3    H159288   0.742   4.419   4.772 -1.9061  0.4304 -0.5168
12599TIP3    H259289   0.805   4.281   4.778 -0.1964  1.1030 -1.9705
12600TIP3   OH259290   0.697   3.956   5.685 -0.0925 -0.2010 -0.1873
12600TIP3    H159291   0.784   3.923   5.705 -0.7533 -1.9717 -0.0996
12600TIP3    H259292   0.640   3.915   5.750 -1.2853 -0.6594 -1.4794
12601TIP3   OH259293   3.517   6.725  15.839 -0.3580  0.1217  0.3265
12601TIP3    H159294   3.426   6.696  15.845 -0.9632  2.0466  1.2874
12601TIP3    H259295   3.531   6.740  15.746 -0.8529 -0.6245  0.1170
12602TIP3   OH259296   4.049   3.723  12.485  0.0832 -0.6476 -0.0226
12602TIP3    H159297   4.088   3.695  12.568  0.9619  1.5141  0.3798
12602TIP3    H259298   3.956   3.729  12.504 -0.0864 -2.6253  0.0098
12603TIP3   OH259299   0.653   3.331  11.211  0.4046  0.6688 -0.2817
12603TIP3    H159300   0.612   3.401  11.261  2.1956  1.2761  0.4073
12603TIP3    H259301   0.707   3.285  11.274  0.4732 -0.3710 -1.0701
12604TIP3   OH259302   4.106   1.195  13.413  0.3714  0.0772 -0.0828
12604TIP3    H159303   4.015   1.196  13.443  0.5099 -0.1644  0.3567
12604TIP3    H259304   4.119   1.281  13.373  0.0470  0.2339  0.1452
12605TIP3   OH259305   2.580   2.426   6.102 -0.1420  0.1675  0.6834
12605TIP3    H159306   2.531   2.504   6.073 -2.0467 -1.2657 -0.1404
12605TIP3    H259307   2.669   2.459   6.118 -0.2358  2.1003 -1.9707
12606TIP3   OH259308   6.520   3.453   4.648  0.0355  0.0056 -0.1457
12606TIP3    H159309   6.528   3.402   4.567  2.3952 -0.7760  0.4756
12606TIP3    H259310   6.435   3.430   4.683 -1.3621  0.8845 -2.6931
12607TIP3   OH259311   4.247   6.724   4.981 -0.1898  0.2506 -0.2404
12607TIP3    H159312   4.237   6.687   4.893  1.9888  1.0984 -0.9001
12607TIP3    H259313   4.236   6.649   5.039  1.2486 -0.9353 -1.4008
12608TIP3   OH259314   2.059   1.643   0.700 -0.3902  0.4577  0.3917
12608TIP3    H159315   2.124   1.575   0.718 -0.3259 -0.1208 -1.7455
12608TIP3    H259316   2.088   1.718   0.754  0.6733 -0.5467  1.2726
12609TIP3   OH259317   2.835   1.107  12.342 -0.2053  0.2253 -0.3975
12609TIP3    H159318   2.916   1.152  12.315  0.9832 -2.0765 -0.9585
12609TIP3    H259319   2.769   1.137  12.279  0.3351  1.7243 -0.2845
12610TIP3   OH259320   3.303   0.839   3.646 -0.4059  0.2560 -0.4471
12610TIP3    H159321   3.270   0.814   3.732 -4.1216  1.2772 -1.3770
12610TIP3    H259322   3.394   0.810   3.645 -0.3947 -0.3239  3.5508
12611TIP3   OH259323   5.627   3.829   5.564 -0.0682  0.0869  0.4489
12611TIP3    H159324   5.657   3.884   5.491 -1.0411  0.7844  0.5493
12611TIP3    H259325   5.538   3.803   5.539 -1.1436  1.8100  2.1304
12612TIP3   OH259326   0.515   3.484   0.942  0.0421 -0.0435 -0.2025
12612TIP3    H159327   0.435   3.515   0.899  0.7184 -0.7438 -2.0817
12612TIP3    H259328   0.512   3.388   0.932  0.4750 -0.1825  0.8916
12613TIP3   OH259329   5.659   5.491  10.987  0.2915 -0.2947 -0.2943
12613TIP3    H159330   5.729   5.440  11.026  1.4410  1.5281  0.1767
12613TIP3    H259331   5.608   5.428  10.936  1.7670 -1.8276  0.0371
12614TIP3   OH259332   0.148   0.863  13.671 -0.2288 -0.4163 -0.5558
12614TIP3    H159333   0.175   0.953  13.688 -1.9034 -0.1065  0.7359
12614TIP3    H259334   0.202   0.835  13.597 -2.1166  2.9080 -3.5145
12615TIP3   OH259335   3.955   4.267   5.417 -0.1255 -0.0986  0.5064
12615TIP3    H159336   3.865   4.254   5.389 -0.3003 -0.6059  1.2796
12615TIP3    H259337   3.949   4.314   5.500  0.3376  0.3656  0.2820
12616TIP3   OH259338   3.918   4.435   5.634 -0.2995  0.2612 -0.4282
12616TIP3    H159339   3.855   4.391   5.691  0.7352  0.8575  1.2279
12616TIP3    H259340   3.901   4.529   5.646  0.6042  0.4167 -0.3052
12617TIP3   OH259341   5.932   0.666  12.023  0.4556  0.2263  0.2132
12617TIP3    H159342   6.023   0.693  12.031  0.9052 -1.2912  0.5310
12617TIP3    H259343   5.930   0.613  11.943 -0.2220  0.5120  0.0329
12618TIP3   OH259344   6.815   5.657  14.242 -0.2875 -0.0107 -0.3325
12618TIP3    H159345   6.843   5.694  14.158 -0.7033 -0.6214 -0.7434
12618TIP3    H259346   6.868   5.703  14.307 -0.0325  0.5406 -0.9189
12619TIP3   OH259347   5.756   4.661   4.503  0.0298 -0.2343  0.2708
12619TIP3    H159348   5.760   4.744   4.456 -1.0922 -0.2089  0.2029
12619TIP3    H259349   5.841   4.654   4.547  1.1319 -0.2802 -1.7746
12620TIP3   OH259350   0.397   4.242   6.128 -0.0834  0.2724  0.5066
12620TIP3    H159351   0.377   4.189   6.206  1.4430 -0.1044  0.6945
12620TIP3    H259352   0.370   4.331   6.152 -0.3721  0.0178  1.1624
12621TIP3   OH259353   3.176   1.896   5.184  0.4438  0.4496  1.3308
12621TIP3    H159354   3.172   1.938   5.099  0.5647 -0.5231  0.8322
12621TIP3    H259355   3.126   1.954   5.242  1.7204  1.9563  0.9885
12622TIP3   OH259356   0.590   6.048  12.027 -0.3437  0.0337  0.7536
12622TIP3    H159357   0.629   6.114  12.084 -0.1483  0.3419  0.2759
12622TIP3    H259358   0.583   6.092  11.942  3.0633 -1.6369 -0.5726
12623TIP3   OH259359   6.345   1.822  15.246 -0.0497  0.2548  0.0392
12623TIP3    H159360   6.374   1.753  15.306  0.6650 -0.7218 -1.3755
12623TIP3    H259361   6.335   1.899  15.302  0.6262 -0.5992  1.3987
12624TIP3   OH259362   2.865   3.760   4.833  0.1586 -0.1557 -0.0314
12624TIP3    H159363   2.777   3.721   4.827  1.2518 -3.2091  1.5041
12624TIP3    H259364   2.867   3.800   4.919  0.0528  0.5978 -0.3732
12625TIP3   OH259365   5.020   0.685  15.611 -0.6458 -0.6329 -0.2217
12625TIP3    H159366   4.955   0.646  15.670 -1.5273  0.3307 -0.5200
12625TIP3    H259367   5.104   0.653  15.643 -1.0995 -0.1828  1.5284
12626TIP3   OH259368   5.006   4.468  15.975  0.5054 -0.2003 -0.6786
12626TIP3    H159369   5.064   4.403  16.014 -1.6088 -1.9015 -0.2016
12626TIP3    H259370   5.038   4.479  15.885  1.2990 -1.3983 -0.5561
12627TIP3   OH259371   3.644   1.072   1.302 -0.0301  0.2127  0.1805
12627TIP3    H159372   3.552   1.080   1.329 -0.6874 -2.4885 -0.9366
12627TIP3    H259373   3.640   1.026   1.218  2.3968 -0.5268  0.4034
12628TIP3   OH259374   5.511   1.638  16.659 -0.4647  0.2068  0.0549
12628TIP3    H159375   5.583   1.690  16.695  1.7666 -0.7242 -2.6381
12628TIP3    H259376   5.479   1.586  16.732  0.9215  1.4070  1.5851
12629TIP3   OH259377   4.574   2.790  11.501 -0.6673  0.1836 -0.8893
12629TIP3    H159378   4.595   2.811  11.592  1.3044  1.2091 -1.5203
12629TIP3    H259379   4.491   2.833  11.484 -0.7392  0.5010  0.2547
12630TIP3   OH259380   6.824   5.655  14.639  0.7750 -0.1890  0.3601
12630TIP3    H159381   6.867   5.570  14.638 -0.2992 -0.8726  3.2788
12630TIP3    H259382   6.884   5.711  14.689  0.6014  0.2842  0.0480
12631TIP3   OH259383   1.976   5.337  14.632  0.1516  0.5793  0.3609
12631TIP3    H159384   1.994   5.428  14.656  0.0223  0.8261 -0.4651
12631TIP3    H259385   2.055   5.308  14.587 -0.1494  0.5700 -0.1694
12632TIP3   OH259386   5.643   3.555  12.450 -0.3209  0.3859  0.1175
12632TIP3    H159387   5.644   3.529  12.358 -1.5336 -1.0858  0.4820
12632TIP3    H259388   5.734   3.579  12.469 -0.2720  2.0052 -1.7760
12633TIP3   OH259389   4.164   4.028   3.104  0.2786  0.4127 -0.6432
12633TIP3    H159390   4.196   3.957   3.160  0.5884  0.7939 -0.3344
12633TIP3    H259391   4.227   4.031   3.032  1.1466  1.3765  0.1303
12634TIP3   OH259392   0.871   1.470   0.829  0.1424 -0.0231 -0.3090
12634TIP3    H159393   0.861   1.422   0.747  0.8877 -0.4310 -0.1745
12634TIP3    H259394   0.786   1.512   0.843  0.1436  0.4057 -1.4978
12635TIP3   OH259395   6.099   3.097  12.777 -0.2216 -0.0362  0.6200
12635TIP3    H159396   6.167   3.082  12.843 -1.3452 -1.1753  1.5757
12635TIP3    H259397   6.016   3.087  12.825 -1.0944  1.7358 -0.4053
12636TIP3   OH259398   0.986   0.988  11.769  0.0347 -0.0557  0.2844
12636TIP3    H159399   0.901   1.028  11.748 -0.1517  0.6233  2.1406
12636TIP3    H259400   0.963   0.901  11.804  0.2114 -0.4222 -0.4923
12637TIP3   OH259401   0.141   3.838   6.479 -0.3835  0.8608  0.1153
12637TIP3    H159402   0.091   3.756   6.479  0.9477  0.0005  0.3144
12637TIP3    H259403   0.081   3.903   6.443 -2.4030  0.4112  2.3729
12638TIP3   OH259404   6.080   0.733   4.120 -0.1443  0.4156  0.2696
12638TIP3    H159405   5.987   0.725   4.142 -0.6102 -0.3764 -1.7361
12638TIP3    H259406   6.095   0.827   4.115 -0.4249  0.5856  2.1015
12639TIP3   OH259407   5.416   0.285   0.604  0.3032 -0.1561  0.1346
12639TIP3    H159408   5.354   0.334   0.550  1.1330  1.1517  0.3222
12639TIP3    H259409   5.502   0.306   0.566  0.7443 -0.7693  0.7788
12640TIP3   OH259410   2.074   1.418  12.956  0.2619  0.2728 -0.5156
12640TIP3    H159411   2.092   1.324  12.944 -1.4035 -0.1966  0.3577
12640TIP3    H259412   2.122   1.461  12.885 -0.4986 -1.4082 -2.1189
12641TIP3   OH259413   2.908   4.418  16.790  0.3279 -0.0940 -0.4353
12641TIP3    H159414   2.859   4.391  16.712 -1.2581  1.9047 -0.2313
12641TIP3    H259415   2.882   4.356  16.858  1.6248 -1.7751 -1.3992
12642TIP3   OH259416   6.726   5.341   2.500 -0.0069 -0.4463  0.3994
12642TIP3    H159417   6.686   5.368   2.582 -0.1408  1.1015 -0.1366
12642TIP3    H259418   6.776   5.418   2.471 -0.3143 -0.7937 -1.1656
12643TIP3   OH259419   0.318   6.678  11.410 -0.4094 -0.2415 -0.6498
12643TIP3    H159420   0.340   6.590  11.440  2.2311  0.6227  0.2434
12643TIP3    H259421   0.373   6.692  11.332 -2.5028 -0.1403 -2.2168
12644TIP3   OH259422   2.693   4.998   3.456 -0.4905  0.2062 -0.1613
12644TIP3    H159423   2.676   4.977   3.548 -0.2065 -1.0074 -0.3764
12644TIP3    H259424   2.779   4.960   3.438  0.8426  2.9828 -0.1370
12645TIP3   OH259425   0.751   4.228   1.353 -0.4942 -0.4202  0.2791
12645TIP3    H159426   0.750   4.314   1.310 -0.7254  0.4166  1.9113
12645TIP3    H259427   0.843   4.211   1.372 -0.5731  0.0439  1.0781
12646TIP3   OH259428   5.257   3.447  15.763  0.3067  0.4240 -0.0772
12646TIP3    H159429   5.273   3.353  15.755  1.7970  0.6431  0.1411
12646TIP3    H259430   5.269   3.482  15.675 -0.8346  0.3449 -0.2794
12647TIP3   OH259431   2.536   2.315   4.067 -0.1684  0.7158  0.0987
12647TIP3    H159432   2.486   2.276   4.139  0.0069  1.1854  0.4812
12647TIP3    H259433   2.622   2.332   4.104 -0.4632  2.1766  0.1974
12648TIP3   OH259434   1.139   4.264  13.845  0.3177  0.4141 -0.8473
12648TIP3    H159435   1.067   4.218  13.803  0.6400 -0.6925 -0.2493
12648TIP3    H259436   1.120   4.357  13.833 -2.4611  0.2344  1.3484
12649TIP3   OH259437   5.841   2.671   1.085 -0.0096 -0.3486 -0.1930
12649TIP3    H159438   5.805   2.742   1.032 -0.0641  0.0213  0.3279
12649TIP3    H259439   5.787   2.595   1.064  0.7902 -0.5609 -1.6672
12650TIP3   OH259440   6.553   5.771  12.713  0.2605  0.3264 -0.0373
12650TIP3    H159441   6.530   5.737  12.626 -1.1206 -0.2304  0.5267
12650TIP3    H259442   6.615   5.707  12.748  1.1955  0.7996 -0.7814
12651TIP3   OH259443   4.090   1.635  14.554  0.3122 -0.0240 -0.3097
12651TIP3    H159444   4.133   1.690  14.489  1.2246 -1.0698 -0.6083
12651TIP3    H259445   4.093   1.547  14.517  1.4284 -0.7549  1.4147
12652TIP3   OH259446   6.128   3.533  16.202  0.4764  0.2053 -0.4267
12652TIP3    H159447   6.065   3.462  16.198 -0.5208  1.1192 -1.8160
12652TIP3    H259448   6.080   3.606  16.241  0.9855  0.6077 -0.5430
12653TIP3   OH259449   0.622   2.845   2.296 -0.3873 -0.2305  0.3413
12653TIP3    H159450   0.598   2.783   2.228  1.3852  0.5723 -1.1019
12653TIP3    H259451   0.696   2.804   2.341 -0.2324  0.1449  0.4361
12654TIP3   OH259452   0.869   3.057   0.451  0.1176 -0.1233  0.0095
12654TIP3    H159453   0.923   3.031   0.376  1.2812 -0.2001  0.8440
12654TIP3    H259454   0.827   2.976   0.480 -0.7541 -0.0024 -0.8555
12655TIP3   OH259455   0.335   1.235   4.343  0.3985  0.3136  0.4214
12655TIP3    H159456   0.291   1.219   4.260 -1.4415  0.8198  1.2256
12655TIP3    H259457   0.318   1.328   4.362  1.0727  0.2946  1.1985
12656TIP3   OH259458   2.050   5.865   2.257  0.1058 -0.2906  0.4321
12656TIP3    H159459   2.111   5.806   2.215  1.5922  0.3054  1.6704
12656TIP3    H259460   2.037   5.829   2.344  0.1670  0.5846  0.8179
12657TIP3   OH259461   3.822   5.273  14.870 -0.2892 -0.4811 -0.1999
12657TIP3    H159462   3.768   5.350  14.891 -0.3885 -0.5778 -0.1038
12657TIP3    H259463   3.843   5.284  14.777  1.1117  0.5467  0.2033
12658TIP3   OH259464   1.085   0.259  16.097  0.2754 -0.1548  0.0551
12658TIP3    H159465   1.174   0.292  16.082  0.5583 -0.8403  0.1746
12658TIP3    H259466   1.037   0.335  16.131  0.7127  0.3179 -0.3563
12659TIP3   OH259467   1.601   6.669   3.554 -0.4637 -0.9839 -0.4120
12659TIP3    H159468   1.627   6.672   3.463 -1.6420  0.3339 -0.7478
12659TIP3    H259469   1.626   6.581   3.584  2.1375 -0.6155 -1.2718
12660TIP3   OH259470   2.734   4.729   4.892  0.3915 -0.2914 -0.4054
12660TIP3    H159471   2.745   4.805   4.949 -0.1279  0.7876 -1.6976
12660TIP3    H259472   2.777   4.754   4.810  0.3073 -1.4455 -0.8234
12661TIP3   OH259473   2.554   3.145  11.998  0.1702  0.2252  0.3512
12661TIP3    H159474   2.566   3.082  12.070 -0.0998  0.3142  0.4763
12661TIP3    H259475   2.625   3.125  11.937  1.3833  1.1992  1.3987
12662TIP3   OH259476   2.231   4.242   3.801  0.0973  0.2258  0.1198
12662TIP3    H159477   2.285   4.163   3.801 -0.5671 -0.2585 -1.5093
12662TIP3    H259478   2.155   4.220   3.748 -1.5837  1.0098  2.0818
12663TIP3   OH259479   1.900   0.276   2.926  0.6533  0.4920 -0.2388
12663TIP3    H159480   1.820   0.225   2.941  0.8517  0.5546  1.1286
12663TIP3    H259481   1.876   0.340   2.860 -0.6489  0.9874  0.6814
12664TIP3   OH259482   0.681   4.783   2.205 -0.0580  0.3304 -0.0981
12664TIP3    H159483   0.709   4.863   2.162 -0.3117  0.6117  0.2501
12664TIP3    H259484   0.611   4.749   2.149 -0.2013  0.5497 -0.0542
12665TIP3   OH259485   5.956   0.245  11.070  0.2066  0.5290  0.0436
12665TIP3    H159486   5.919   0.217  11.154  0.7050  1.4153  0.5750
12665TIP3    H259487   5.959   0.166  11.017  1.3769 -0.3881  1.4174
12666TIP3   OH259488   4.813   1.545   3.112  0.3233 -0.0496 -0.1420
12666TIP3    H159489   4.732   1.591   3.132  0.6736  0.4522  0.1357
12666TIP3    H259490   4.856   1.533   3.196  0.0855 -1.1906 -0.1615
12667TIP3   OH259491   4.086   6.304   4.527 -0.1718  0.8952 -0.5041
12667TIP3    H159492   4.040   6.386   4.510 -0.1021  1.4156  1.5190
12667TIP3    H259493   4.124   6.316   4.614 -0.3410 -1.3644 -0.0686
12668TIP3   OH259494   4.319   1.548  14.812  0.3186  0.1280 -0.0254
12668TIP3    H159495   4.381   1.504  14.870 -1.1320  0.1617  1.6395
12668TIP3    H259496   4.272   1.477  14.768  0.1501  0.0669  0.2543
12669TIP3   OH259497   4.887   0.129  12.237 -0.0139  0.0338 -0.5494
12669TIP3    H159498   4.849   0.195  12.295  2.0935 -0.7664  1.9655
12669TIP3    H259499   4.959   0.174  12.192 -0.3227  0.1249 -0.9578
12670TIP3   OH259500   2.900   5.642   2.589 -0.3035  0.8420  0.2006
12670TIP3    H159501   2.813   5.675   2.607 -0.9315  0.4623 -1.8667
12670TIP3    H259502   2.887   5.549   2.570  0.2324  1.1326 -1.8508
12671TIP3   OH259503   2.649   1.807   3.979  0.1121  0.4884 -0.1988
12671TIP3    H159504   2.630   1.766   3.894  0.0652 -1.3627  0.6524
12671TIP3    H259505   2.563   1.826   4.017  0.1095  0.2339 -0.0750
12672TIP3   OH259506   6.308   1.622  12.295  0.5239 -0.3933  0.6752
12672TIP3    H159507   6.281   1.538  12.258 -1.4104  0.2046  0.5909
12672TIP3    H259508   6.305   1.683  12.221  0.8683 -0.0401  0.9491
12673TIP3   OH259509   1.675   5.978  14.347  0.7452  0.0634  0.4242
12673TIP3    H159510   1.766   5.956  14.328  0.8797  0.1540  0.9556
12673TIP3    H259511   1.624   5.924  14.287  1.1860  1.1925 -1.0352
12674TIP3   OH259512   5.585   3.263  15.829  0.1235  0.1368 -0.7888
12674TIP3    H159513   5.554   3.352  15.849  0.0188  0.0660 -0.6283
12674TIP3    H259514   5.509   3.219  15.790  0.1500  0.0922 -0.7905
12675TIP3   OH259515   3.010   6.453  12.482  0.5483 -0.1475  0.2282
12675TIP3    H159516   2.918   6.428  12.479 -0.0194  1.5550  1.9038
12675TIP3    H259517   3.019   6.518  12.412 -0.1405  1.4165  1.5334
12676TIP3   OH259518   1.757   3.157  16.604  0.2495 -0.0597 -0.1585
12676TIP3    H159519   1.776   3.175  16.512  0.1455  1.2789  0.0552
12676TIP3    H259520   1.732   3.065  16.606  0.0380 -0.0516 -1.5062
12677TIP3   OH259521   0.538   4.064  13.316 -0.0715  0.5053  0.0620
12677TIP3    H159522   0.518   4.142  13.265  0.2279 -0.1445 -1.0764
12677TIP3    H259523   0.633   4.066  13.326 -0.1364  0.6701  0.6670
12678TIP3   OH259524   5.130   3.327   4.805 -0.0494 -0.3397  0.1147
12678TIP3    H159525   5.113   3.233   4.814  0.6644 -0.4230  0.7902
12678TIP3    H259526   5.199   3.344   4.869  1.4435  0.2003 -1.5435
12679TIP3   OH259527   6.059   3.321   0.393  0.4387  0.2284  0.7592
12679TIP3    H159528   6.087   3.276   0.313 -1.3309  2.1969 -1.0787
12679TIP3    H259529   6.044   3.250   0.455 -0.8244 -1.6642 -1.5307
12680TIP3   OH259530   0.866   3.820   1.688 -0.1555 -0.4350  0.3756
12680TIP3    H159531   0.951   3.824   1.644  0.0322 -0.4583  0.7394
12680TIP3    H259532   0.883   3.851   1.777 -0.5775 -0.1985  0.3737
12681TIP3   OH259533   4.387   0.705  15.818 -0.3922 -0.0478  0.3622
12681TIP3    H159534   4.294   0.718  15.796 -0.1616 -0.9650 -1.3613
12681TIP3    H259535   4.385   0.657  15.901 -1.4318  0.4252  0.6390
12682TIP3   OH259536   6.074   4.936  15.881 -0.6062 -0.2974 -0.3269
12682TIP3    H159537   6.160   4.898  15.860 -0.5141  0.1330 -0.7506
12682TIP3    H259538   6.058   4.998  15.810 -1.9453 -1.4409 -1.0718
12683TIP3   OH259539   1.892   1.560  15.530 -0.0596  0.4109  0.1910
12683TIP3    H159540   1.851   1.534  15.613  0.5754  1.1071  0.7332
12683TIP3    H259541   1.912   1.653  15.540  0.4976  0.3841 -0.5476
12684TIP3   OH259542   0.855   2.586   3.984 -0.8190 -0.1873  0.7379
12684TIP3    H159543   0.774   2.534   3.987 -0.0647 -1.6100 -1.0940
12684TIP3    H259544   0.835   2.665   4.034 -4.2568  0.7735 -1.7437
12685TIP3   OH259545   1.382   3.867  14.644  0.2921  0.2785 -0.0172
12685TIP3    H159546   1.347   3.828  14.724 -1.0212  0.4117 -0.5123
12685TIP3    H259547   1.447   3.930  14.675  0.0649  0.0631  0.9312
12686TIP3   OH259548   2.763   2.342   3.777  0.3322  0.6284  0.4988
12686TIP3    H159549   2.718   2.315   3.697 -0.7076 -0.5729  1.4527
12686TIP3    H259550   2.770   2.262   3.829  0.2607  1.5379  1.9562
12687TIP3   OH259551   3.459   3.873   3.243 -0.2653 -0.0966  0.0128
12687TIP3    H159552   3.464   3.897   3.150 -3.6601  1.4762  0.0823
12687TIP3    H259553   3.396   3.801   3.245  0.9757 -1.1819  0.9944
12688TIP3   OH259554   4.546   2.272  12.396  0.1914  0.1797  0.1423
12688TIP3    H159555   4.571   2.208  12.329 -0.4926  0.0143  0.0439
12688TIP3    H259556   4.451   2.279  12.389 -0.0808 -0.8874  2.0279
12689TIP3   OH259557   6.075   3.427   3.224 -0.1824 -0.1337 -0.1324
12689TIP3    H159558   6.119   3.508   3.252  0.1276 -0.1459 -0.5633
12689TIP3    H259559   6.025   3.399   3.300  1.9816 -1.1155  1.0174
12690TIP3   OH259560   6.650   6.273  15.476  0.3540 -0.0291 -0.2781
12690TIP3    H159561   6.600   6.330  15.417  1.3357  0.1397 -0.9612
12690TIP3    H259562   6.687   6.205  15.419 -0.3117 -1.0291  0.4416
12691TIP3   OH259563   4.694   5.047   1.227  0.2631 -0.4073 -0.0696
12691TIP3    H159564   4.670   4.974   1.170 -0.7045  0.6226 -1.0466
12691TIP3    H259565   4.777   5.079   1.193 -0.5776  0.5510 -1.3038
12692TIP3   OH259566   5.448   3.146  12.870  0.1135 -0.1223  0.3043
12692TIP3    H159567   5.484   3.100  12.794  0.5686  1.0559 -0.2265
12692TIP3    H259568   5.391   3.082  12.913  1.0570 -1.2881 -0.1522
12693TIP3   OH259569   2.032   0.819   3.616  0.4687  0.0864  0.3599
12693TIP3    H159570   2.050   0.912   3.623  0.2023  0.2505 -0.9384
12693TIP3    H259571   2.104   0.784   3.563 -0.4375 -0.0847 -0.8096
12694TIP3   OH259572   6.576   1.372   5.888 -0.6055 -0.1179  0.2959
12694TIP3    H159573   6.639   1.369   5.961  0.8057 -0.1766 -0.8674
12694TIP3    H259574   6.552   1.464   5.881 -0.0060  0.0427  0.2500
12695TIP3   OH259575   0.315   4.110  13.528 -0.2766  0.2579 -0.3772
12695TIP3    H159576   0.370   4.112  13.449  0.0846 -0.6110 -0.1644
12695TIP3    H259577   0.313   4.201  13.558 -0.1389  0.5434 -1.1930
12696TIP3   OH259578   0.878   4.407   3.634 -0.3523 -0.1911 -0.1429
12696TIP3    H159579   0.843   4.319   3.621  0.4544 -0.3306 -1.5168
12696TIP3    H259580   0.969   4.401   3.607 -0.6546  1.3893 -1.7008
12697TIP3   OH259581   4.672   1.578  13.389 -0.0923  0.1436  0.2229
12697TIP3    H159582   4.706   1.523  13.318  0.9969  0.2820  0.6251
12697TIP3    H259583   4.740   1.643  13.405 -0.2267 -0.0019  1.5340
12698TIP3   OH259584   6.714   1.646  16.521  0.2945  0.0309  0.3050
12698TIP3    H159585   6.684   1.580  16.584 -0.8074  0.3548  0.1300
12698TIP3    H259586   6.662   1.629  16.442 -1.3099  2.2364  0.8308
12699TIP3   OH259587   3.828   4.429   1.940 -0.1715  0.1775  0.2259
12699TIP3    H159588   3.826   4.376   2.020 -1.0823  1.1399  0.8757
12699TIP3    H259589   3.750   4.484   1.947  0.5677  1.3676 -0.5844
12700TIP3   OH259590   2.821   6.205  11.129 -0.3664  0.0600 -0.2141
12700TIP3    H159591   2.843   6.257  11.052  0.9666 -1.2067 -0.7301
12700TIP3    H259592   2.770   6.132  11.094  0.5128 -0.6932  0.0389
12701TIP3   OH259593   4.743   1.695   3.695  0.1788  0.2200 -0.6851
12701TIP3    H159594   4.819   1.709   3.751  0.8948 -2.7985 -0.7168
12701TIP3    H259595   4.772   1.630   3.631 -2.3297 -0.8854 -0.8223
12702TIP3   OH259596   6.690   0.404   5.340  0.6806  0.1358  0.3142
12702TIP3    H159597   6.622   0.391   5.275  0.2486 -2.2010  1.1361
12702TIP3    H259598   6.651   0.376   5.422  1.7600  1.4100  1.3114
12703TIP3   OH259599   3.483   0.525   6.330  0.0301 -0.1013  0.0364
12703TIP3    H159600   3.521   0.573   6.255 -0.7469 -0.5655 -0.6651
12703TIP3    H259601   3.549   0.459   6.351  0.5160  0.4098  0.1452
12704TIP3   OH259602   1.935   4.717  15.727  0.0252 -0.4620  1.0122
12704TIP3    H159603   1.958   4.628  15.750 -2.0321 -0.7351  2.3256
12704TIP3    H259604   1.856   4.708  15.673 -0.8075  0.5332  1.9967
12705TIP3   OH259605   2.714   4.358   4.941  0.2347  1.0632 -0.0598
12705TIP3    H159606   2.658   4.351   4.863  0.6041  1.4114 -0.3573
12705TIP3    H259607   2.652   4.364   5.014 -0.1157  0.9158 -0.3393
12706TIP3   OH259608   0.204   3.843  14.096  0.3578  0.1966 -0.1964
12706TIP3    H159609   0.223   3.759  14.054 -1.4180 -0.3639  0.0339
12706TIP3    H259610   0.269   3.904  14.060  0.1521 -0.7123 -2.2206
12707TIP3   OH259611   5.437   2.045   3.207  0.0303 -0.0843 -0.0362
12707TIP3    H159612   5.445   2.114   3.142 -0.1275 -2.1847 -2.4560
12707TIP3    H259613   5.516   1.993   3.196 -1.0134 -1.7283 -0.1757
12708TIP3   OH259614   4.400   6.759  14.863 -0.0121  0.5235 -0.3184
12708TIP3    H159615   4.317   6.711  14.859 -0.2891  1.0553 -0.9746
12708TIP3    H259616   4.410   6.781  14.956  1.4232 -3.0278  0.5345
12709TIP3   OH259617   6.331   0.751   3.381  0.7922 -0.1351  0.0348
12709TIP3    H159618   6.352   0.675   3.327  1.8033  0.0755  0.1016
12709TIP3    H259619   6.332   0.718   3.471 -0.1873 -0.3378 -0.0258
12710TIP3   OH259620   1.987   2.589  14.855  0.1784 -0.0044  0.5505
12710TIP3    H159621   1.971   2.649  14.928 -2.1302 -0.0802  0.2002
12710TIP3    H259622   1.981   2.645  14.777 -0.4804 -0.4098  0.2992
12711TIP3   OH259623   1.141   4.666  15.013  0.6905 -0.0338 -0.0911
12711TIP3    H159624   1.233   4.651  14.991  0.4533 -2.0954  0.0609
12711TIP3    H259625   1.118   4.591  15.068 -1.2337  0.1412 -0.5976
12712TIP3   OH259626   4.065   2.003   2.076 -0.4205 -0.0952  0.6493
12712TIP3    H159627   4.019   1.925   2.107 -1.2939  0.6925  1.3703
12712TIP3    H259628   4.157   1.987   2.100 -0.4848 -1.1717  0.2229
12713TIP3   OH259629   3.103   1.996   1.507  0.4373 -0.0859 -0.4432
12713TIP3    H159630   3.105   1.952   1.423  1.0285  1.6800 -1.4135
12713TIP3    H259631   3.194   2.024   1.522 -0.2298  2.7099 -1.0169
12714TIP3   OH259632   2.015   4.888   5.500  0.1615  0.4795  0.4656
12714TIP3    H159633   2.096   4.935   5.519  1.4239 -1.3953 -0.0997
12714TIP3    H259634   1.968   4.945   5.439  1.2820  1.3514  0.3903
12715TIP3   OH259635   3.937   0.098   1.383  0.1947  0.1818  0.1991
12715TIP3    H159636   3.906   0.164   1.445  0.3438 -0.8924  1.4719
12715TIP3    H259637   4.020   0.068   1.419  0.2799 -0.4774 -0.5197
12716TIP3   OH259638   3.864   1.479  13.048  0.1889 -0.2555  0.1731
12716TIP3    H159639   3.939   1.428  13.017  1.2284  0.8280  0.8177
12716TIP3    H259640   3.788   1.434  13.011  1.1822 -0.9512 -1.1181
12717TIP3   OH259641   2.386   4.534  16.673 -0.3945  0.2624  0.1725
12717TIP3    H159642   2.312   4.578  16.630 -0.4470 -1.0302 -1.1353
12717TIP3    H259643   2.345   4.476  16.737 -0.3168  2.1820  2.0692
12718TIP3   OH259644   2.256   4.416  13.823 -0.2582 -0.0494  0.1574
12718TIP3    H159645   2.211   4.344  13.780  0.7256 -0.5333 -0.0994
12718TIP3    H259646   2.309   4.374  13.891  1.0189  0.3078 -0.5776
12719TIP3   OH259647   0.948   0.047  10.955 -0.2726 -0.3421 -0.3312
12719TIP3    H159648   0.858   0.079  10.957 -0.4859 -0.8089 -1.4018
12719TIP3    H259649   0.943  -0.039  10.998  0.5166  1.3928  3.6275
12720TIP3   OH259650   6.446   3.962  12.078 -0.3460 -0.2201  0.2120
12720TIP3    H159651   6.435   3.868  12.091 -1.1133  0.0909  2.1948
12720TIP3    H259652   6.465   3.996  12.166 -1.2328  1.6077 -0.2554
12721TIP3   OH259653   1.988   1.844   1.916 -0.1251  0.2271  0.4837
12721TIP3    H159654   1.895   1.855   1.936 -1.2016 -1.6176 -2.7515
12721TIP3    H259655   2.005   1.906   1.845  0.8161 -0.2480  0.2808
12722TIP3   OH259656   3.359   4.488  16.359 -0.2974  0.1572 -0.3291
12722TIP3    H159657   3.293   4.540  16.404  0.8863  0.8711  0.6411
12722TIP3    H259658   3.430   4.550  16.341  1.2776 -1.1566  1.1281
12723TIP3   OH259659   3.915   1.940   6.141  0.0856  0.1917  0.0197
12723TIP3    H159660   3.939   1.942   6.048  0.2837  0.4598  0.0768
12723TIP3    H259661   3.822   1.964   6.142  0.1001  0.2533 -0.1030
12724TIP3   OH259662   4.363   2.022  11.754  0.4160  0.3231  0.4926
12724TIP3    H159663   4.378   1.971  11.675  2.1456  0.0027  0.9972
12724TIP3    H259664   4.396   2.109  11.734  2.1990 -0.1186  1.2698
12725TIP3   OH259665   3.276   4.897  11.635  0.2358  0.2981  0.3554
12725TIP3    H159666   3.180   4.897  11.633  0.2200  0.8799 -1.9307
12725TIP3    H259667   3.301   4.956  11.563  2.3018 -0.5377  0.3324
12726TIP3   OH259668   3.894   1.416  15.619  0.1443 -0.0479 -0.3559
12726TIP3    H159669   3.864   1.415  15.710  0.8837  2.6000 -0.0130
12726TIP3    H259670   3.869   1.503  15.586 -1.2204 -1.3535 -3.1202
12727TIP3   OH259671   1.496   5.906   5.596 -0.4231  0.1964 -0.8837
12727TIP3    H159672   1.539   5.885   5.679 -0.3278  0.5524 -0.8406
12727TIP3    H259673   1.418   5.851   5.595 -0.8553  0.7897 -0.1812
12728TIP3   OH259674   3.986   5.629   0.696  0.5847 -0.4096  0.5442
12728TIP3    H159675   3.969   5.648   0.603  1.9218  0.5746  0.4557
12728TIP3    H259676   3.903   5.596   0.730 -0.0749 -0.3114 -0.8869
12729TIP3   OH259677   5.395   0.626   2.341  0.0811 -0.4772  0.3424
12729TIP3    H159678   5.315   0.623   2.289  1.5709  0.1630 -2.1931
12729TIP3    H259679   5.449   0.693   2.298  1.8259 -0.6261  2.1620
12730TIP3   OH259680   4.690   5.353  13.285 -0.1426 -0.0321  0.3377
12730TIP3    H159681   4.635   5.431  13.294 -0.2242  0.3674 -2.7428
12730TIP3    H259682   4.779   5.387  13.280  0.3164 -0.5404  3.2664
12731TIP3   OH259683   1.598   5.926   5.142 -0.5305  0.6165  0.2938
12731TIP3    H159684   1.671   5.957   5.088 -0.0912 -1.1110 -0.1652
12731TIP3    H259685   1.592   5.832   5.123 -1.3973  0.2695  2.0603
12732TIP3   OH259686   6.691   1.108   1.002  0.6022  0.5131  0.1262
12732TIP3    H159687   6.614   1.155   0.970 -0.2452 -0.7214  0.3190
12732TIP3    H259688   6.735   1.076   0.923 -1.3580 -2.3286  0.0745
12733TIP3   OH259689   6.601   4.260   5.497  0.4516  0.1369 -0.1043
12733TIP3    H159690   6.602   4.179   5.445 -0.9791  1.7421 -2.8518
12733TIP3    H259691   6.694   4.276   5.517  0.8154 -1.8225  0.0360
12734TIP3   OH259692   4.007   5.703  12.032 -0.4614 -0.0716 -0.0225
12734TIP3    H159693   3.922   5.734  12.003 -0.1590 -0.6857 -1.6659
12734TIP3    H259694   4.058   5.782  12.046 -0.9800  0.2682 -0.0398
12735TIP3   OH259695   1.631   3.673  13.095 -0.1768 -0.3429  0.1646
12735TIP3    H159696   1.679   3.668  13.178 -0.6691 -0.5303  0.4453
12735TIP3    H259697   1.666   3.602  13.042 -0.7813 -1.0586  0.7118
12736TIP3   OH259698   6.519   5.280  10.968 -0.3919 -0.0816 -0.2705
12736TIP3    H159699   6.432   5.267  11.005 -1.5811 -0.5855 -2.9599
12736TIP3    H259700   6.530   5.206  10.908  0.5560  1.5476 -2.2253
12737TIP3   OH259701   2.507   5.199  14.119 -0.0242 -0.5012 -0.3242
12737TIP3    H159702   2.603   5.203  14.121 -0.0134 -0.7567 -0.3561
12737TIP3    H259703   2.480   5.229  14.206  0.0868 -0.4717 -0.2999
12738TIP3   OH259704   1.036   4.846  14.200  0.4753 -0.6154  0.1664
12738TIP3    H159705   1.100   4.874  14.265  0.3957 -2.3317  1.0211
12738TIP3    H259706   1.048   4.908  14.128  3.5952 -1.2749 -0.0216
12739TIP3   OH259707   4.792   3.623  13.247 -0.4453 -0.0196  0.3353
12739TIP3    H159708   4.711   3.581  13.218  0.1171 -0.6892 -0.3260
12739TIP3    H259709   4.827   3.565  13.314 -0.0577 -0.2147 -0.0300
12740TIP3   OH259710   3.651   4.915   5.676  0.2479  0.2381  0.1474
12740TIP3    H159711   3.613   4.913   5.589 -0.0593 -1.8537  0.2705
12740TIP3    H259712   3.654   5.008   5.700 -3.1665  0.6378 -0.5547
12741TIP3   OH259713   4.525   3.349   0.051 -0.7237 -0.1312 -0.3782
12741TIP3    H159714   4.469   3.424   0.031 -1.5678 -0.9062 -1.0061
12741TIP3    H259715   4.584   3.381   0.120 -2.9285  0.2785  1.4230
12742TIP3   OH259716   1.040   3.218   2.409 -0.2373 -0.0843 -0.0707
12742TIP3    H159717   1.049   3.186   2.499  2.5569 -0.4096 -0.3970
12742TIP3    H259718   1.006   3.143   2.360 -3.3560  0.5346  0.8620
12743TIP3   OH259719   0.646   5.369   2.923  0.5481  0.3625 -0.1226
12743TIP3    H159720   0.590   5.329   2.990  1.4338 -2.1664 -0.7569
12743TIP3    H259721   0.620   5.326   2.841  1.7843  0.8492 -0.8087
12744TIP3   OH259722   2.650   5.737  16.751  0.0207 -0.2560  0.1951
12744TIP3    H159723   2.683   5.698  16.670 -0.4714  0.1709 -0.2151
12744TIP3    H259724   2.650   5.664  16.813  1.3523 -0.3604  0.1061
12745TIP3   OH259725   4.373   0.640   3.105 -0.5305  0.1276  0.3386
12745TIP3    H159726   4.317   0.716   3.088  0.4519  0.2854 -2.8864
12745TIP3    H259727   4.434   0.639   3.031  1.3292 -2.1892  1.7765
12746TIP3   OH259728   5.979   4.551  12.377 -0.0537  0.0354  0.1294
12746TIP3    H159729   6.044   4.568  12.445  0.6374 -0.0584 -0.5082
12746TIP3    H259730   5.896   4.549  12.425  0.6248 -2.3383  1.3791
12747TIP3   OH259731   1.404   1.645   5.441 -0.5132  0.0772  0.1483
12747TIP3    H159732   1.468   1.597   5.388 -0.5716  0.1272  0.0324
12747TIP3    H259733   1.390   1.727   5.393 -1.6065 -0.4575 -0.4932
12748TIP3   OH259734   0.666   2.657  12.501  0.0383  0.1641  0.2708
12748TIP3    H159735   0.652   2.723  12.569 -0.3842 -0.6936  1.0503
12748TIP3    H259736   0.582   2.611  12.496 -0.6201  1.4860 -2.2776
12749TIP3   OH259737   3.076   5.549  12.024  0.2688  0.1610  0.0391
12749TIP3    H159738   2.983   5.573  12.032  0.2533  0.0610  0.1442
12749TIP3    H259739   3.092   5.549  11.929  0.6692  2.1719  0.0461
12750TIP3   OH259740   5.943   0.857  12.407  0.7097 -0.8826 -0.4756
12750TIP3    H159741   5.945   0.765  12.380  1.3823 -0.9558 -0.1860
12750TIP3    H259742   5.934   0.854  12.502  0.1419 -0.6365 -0.5171
12751TIP3   OH259743   6.194   5.339  13.749 -1.0576  0.4883 -0.4620
12751TIP3    H159744   6.144   5.324  13.830  0.9036 -1.1783  0.5631
12751TIP3    H259745   6.141   5.300  13.680 -2.0685  0.5467  0.2641
12752TIP3   OH259746   2.053   2.003   1.687  0.3676 -0.0537 -0.4076
12752TIP3    H159747   2.140   2.004   1.648 -0.5913  1.1553 -2.7268
12752TIP3    H259748   2.003   1.942   1.633 -0.0023 -1.6479  1.5977
12753TIP3   OH259749   0.509   1.474  15.952  0.0706 -0.3624 -0.3831
12753TIP3    H159750   0.563   1.424  15.891  0.1508  0.6606 -1.1889
12753TIP3    H259751   0.571   1.506  16.017  0.1275 -0.7399 -0.2483
12754TIP3   OH259752   4.905   4.954   1.848 -0.4471  1.0351 -0.5789
12754TIP3    H159753   4.909   4.963   1.753 -1.6049  0.7491 -0.6724
12754TIP3    H259754   4.819   4.988   1.872 -0.7178 -0.1218  0.1995
12755TIP3   OH259755   0.247   5.076   5.345  0.6560  0.4778 -0.1228
12755TIP3    H159756   0.267   4.993   5.389  0.0844  0.6098  0.3975
12755TIP3    H259757   0.250   5.054   5.251  1.1645  0.0267 -0.0102
12756TIP3   OH259758   1.775   6.461  13.402 -0.4204  0.4305 -0.2920
12756TIP3    H159759   1.684   6.475  13.427 -1.3012 -1.2580 -2.2425
12756TIP3    H259760   1.784   6.504  13.317  0.7147  0.8246  0.0067
12757TIP3   OH259761   5.485   6.558   4.520 -0.2443  0.1370  0.5309
12757TIP3    H159762   5.517   6.472   4.551 -1.5285 -1.9199 -3.2428
12757TIP3    H259763   5.559   6.595   4.472 -0.8755 -0.8081 -1.2422
12758TIP3   OH259764   4.645   0.587   0.225 -0.3212 -0.0314  0.1111
12758TIP3    H159765   4.649   0.557   0.134 -0.2067  1.8043 -0.5323
12758TIP3    H259766   4.660   0.508   0.277  0.0686 -1.0455 -1.4670
12759TIP3   OH259767   1.112   3.647  16.532  0.2558  0.0889 -0.0262
12759TIP3    H159768   1.017   3.645  16.538  0.2805 -1.3050  0.3278
12759TIP3    H259769   1.141   3.700  16.606 -0.2385  0.1102  0.1512
12760TIP3   OH259770   2.607   6.171  11.915  0.0193  0.4892 -0.0725
12760TIP3    H159771   2.586   6.116  11.840  0.9906  0.3029 -0.2260
12760TIP3    H259772   2.553   6.249  11.904 -1.4624 -0.4733  0.2211
12761TIP3   OH259773   6.460   5.049  11.538  0.2040 -0.3131  0.6063
12761TIP3    H159774   6.488   4.994  11.465  0.1767 -1.9544  1.7851
12761TIP3    H259775   6.379   5.008  11.570 -1.6845  2.2874 -0.4846
12762TIP3   OH259776   0.810   0.321   3.715  0.5711  0.7443  0.0701
12762TIP3    H159777   0.774   0.407   3.695 -0.6706  0.2183 -0.0920
12762TIP3    H259778   0.734   0.262   3.711  1.4258 -0.3927 -0.0622
12763TIP3   OH259779   1.722   4.327   4.353 -0.3631  0.0336  0.2141
12763TIP3    H159780   1.653   4.337   4.418  0.9768  0.0128  1.7177
12763TIP3    H259781   1.717   4.407   4.300 -0.5488  0.7900  1.3193
12764TIP3   OH259782   3.809   2.295  15.872  0.2629  0.3883  0.4579
12764TIP3    H159783   3.889   2.325  15.830  0.0405  0.2964 -0.0374
12764TIP3    H259784   3.753   2.373  15.876 -0.0917  0.1813 -0.3067
12765TIP3   OH259785   2.396   4.004   3.758  0.0409  0.6472 -0.2422
12765TIP3    H159786   2.401   4.059   3.680  1.0910 -0.6771 -1.1475
12765TIP3    H259787   2.487   3.979   3.775 -0.3919 -0.5947  0.2978
12766TIP3   OH259788   4.499   1.435  11.666 -0.7371 -0.8056  0.3024
12766TIP3    H159789   4.497   1.342  11.689 -2.2083 -1.1078 -0.9439
12766TIP3    H259790   4.408   1.458  11.650 -0.5589  1.1894  1.7730
12767TIP3   OH259791   2.837   4.151   2.317 -0.7819  0.3112  0.1431
12767TIP3    H159792   2.841   4.200   2.399  0.2248  1.1895 -0.4135
12767TIP3    H259793   2.802   4.214   2.253 -2.4522 -0.6338  0.0701
12768TIP3   OH259794   3.950   1.886  11.541 -0.7504  0.3347 -0.4173
12768TIP3    H159795   3.949   1.790  11.549 -1.6571  0.3367 -0.4751
12768TIP3    H259796   3.981   1.916  11.626  0.4291 -0.0330 -0.6967
12769TIP3   OH259797   6.693   0.983  12.272  0.4642 -0.0572  0.2469
12769TIP3    H159798   6.780   0.982  12.232 -0.9141  2.3908 -3.3410
12769TIP3    H259799   6.700   1.048  12.342  1.7495 -0.6374  0.6837
12770TIP3   OH259800   0.454   2.629   0.221 -0.3359 -0.4385  0.6661
12770TIP3    H159801   0.380   2.570   0.211  0.5041 -1.5964  0.9940
12770TIP3    H259802   0.470   2.663   0.134 -0.6624 -0.9433  0.4049
12771TIP3   OH259803   1.740   4.882  16.586 -1.3678 -0.7893 -0.0485
12771TIP3    H159804   1.645   4.879  16.597 -1.2602 -0.0801  1.3230
12771TIP3    H259805   1.766   4.967  16.622 -0.0495 -1.6587  1.1866
12772TIP3   OH259806   1.466   2.407  15.732  0.0936  0.1960 -0.2017
12772TIP3    H159807   1.483   2.388  15.825 -0.1549  1.9232  0.2343
12772TIP3    H259808   1.540   2.367  15.686  1.7817  1.7179  1.0361
12773TIP3   OH259809   1.725   1.977   4.944  0.5462  0.2281  0.2730
12773TIP3    H159810   1.763   2.064   4.932 -2.1030  1.8765  2.5106
12773TIP3    H259811   1.645   1.979   4.892  0.2405 -0.6970  0.6808
12774TIP3   OH259812   2.941   6.513   1.489  0.7503  0.2564 -0.3655
12774TIP3    H159813   2.904   6.453   1.425 -1.2134 -0.2208  1.1057
12774TIP3    H259814   3.036   6.503   1.480  0.5068 -0.8465 -2.1575
12775TIP3   OH259815   5.717   6.050  13.446 -0.1298 -0.3926  0.0935
12775TIP3    H159816   5.802   6.076  13.480  0.2026 -0.2951 -0.7861
12775TIP3    H259817   5.706   6.101  13.366 -1.4085  0.2372  0.6405
12776TIP3   OH259818   4.902   4.316  14.254 -0.0186 -0.0510 -0.0615
12776TIP3    H159819   4.867   4.343  14.169 -1.0042 -0.9090  0.0522
12776TIP3    H259820   4.953   4.237  14.234 -0.9419 -0.7382  0.2495
12777TIP3   OH259821   5.616   1.266  11.224 -0.4502  0.3441 -0.1878
12777TIP3    H159822   5.591   1.247  11.133 -1.8797  2.1504 -0.2469
12777TIP3    H259823   5.554   1.216  11.277  0.1005 -0.3619 -0.1962
12778TIP3   OH259824   2.204   5.744  13.282 -0.2642  0.5152  0.2341
12778TIP3    H159825   2.157   5.676  13.233 -0.2412 -0.4051  1.4556
12778TIP3    H259826   2.234   5.805  13.214 -0.1883 -0.7386 -0.9100
12779TIP3   OH259827   6.470   4.456  16.041 -0.5955  0.3195 -0.1199
12779TIP3    H159828   6.563   4.471  16.021 -0.8779 -0.1677 -2.0529
12779TIP3    H259829   6.471   4.377  16.096  0.1087 -0.1878 -0.8249
12780TIP3   OH259830   5.539   0.690  10.954  0.2652  0.5826 -0.6002
12780TIP3    H159831   5.629   0.662  10.970  0.2302  0.7434 -0.1084
12780TIP3    H259832   5.540   0.724  10.864  0.3543 -0.7817 -1.1490
12781TIP3   OH259833   6.584   2.988  12.211 -0.6024 -0.7703 -0.3736
12781TIP3    H159834   6.559   3.038  12.289 -0.5338 -1.3225  0.0078
12781TIP3    H259835   6.529   3.023  12.142  0.3593  0.7613 -0.4255
12782TIP3   OH259836   5.254   2.806  15.890  0.0833  0.7231  0.2824
12782TIP3    H159837   5.286   2.812  15.800 -0.9213  2.7553 -0.0148
12782TIP3    H259838   5.163   2.776  15.881  0.4183 -0.4661  0.7476
12783TIP3   OH259839   3.234   4.895   0.514  0.0564  0.0770  0.0240
12783TIP3    H159840   3.314   4.843   0.519  0.9704  1.3447 -0.8362
12783TIP3    H259841   3.164   4.830   0.503  1.1827 -0.9644 -1.4247
12784TIP3   OH259842   4.556   1.295  14.447  0.1840 -0.1121 -0.4261
12784TIP3    H159843   4.610   1.360  14.490  0.1050 -0.2046 -0.1857
12784TIP3    H259844   4.479   1.344  14.416 -0.7252 -0.3934  1.2969
12785TIP3   OH259845   3.106   4.199   3.259 -0.3848 -0.0596  0.0776
12785TIP3    H159846   3.090   4.287   3.225 -0.3808  1.9225  4.4872
12785TIP3    H259847   3.022   4.155   3.251 -0.2844  0.0680 -2.5761
12786TIP3   OH259848   0.274   4.179   0.790 -0.3708  0.1392 -0.0517
12786TIP3    H159849   0.280   4.254   0.731  1.6705 -1.2195 -1.7458
12786TIP3    H259850   0.296   4.215   0.877  0.3038  1.5440 -0.7661
12787TIP3   OH259851   5.141   4.860  15.932 -0.1618  0.1549 -0.2112
12787TIP3    H159852   5.059   4.825  15.895 -1.0976  2.8797 -0.9613
12787TIP3    H259853   5.120   4.878  16.024  0.2813 -0.9942  0.1397
12788TIP3   OH259854   3.470   6.316  12.838 -0.0614 -0.0645 -0.4643
12788TIP3    H159855   3.450   6.305  12.745  1.4192  0.5702 -0.8838
12788TIP3    H259856   3.386   6.339  12.878 -0.7793 -0.6356 -1.5751
12789TIP3   OH259857   4.133   6.170  11.463  0.4699  0.7012  0.2628
12789TIP3    H159858   4.183   6.216  11.530  0.4512  0.2865  0.5667
12789TIP3    H259859   4.049   6.216  11.461  0.9774  1.6210 -0.5004
12790TIP3   OH259860   4.622   1.022   0.812  0.8733 -0.2103 -0.4371
12790TIP3    H159861   4.672   0.980   0.882 -1.5172 -1.2746  0.7365
12790TIP3    H259862   4.575   0.950   0.770 -2.6240  1.0216  1.0253
12791TIP3   OH259863   5.080   5.968  10.994 -0.3283  0.6062  0.3414
12791TIP3    H159864   5.016   5.975  10.924 -0.6332 -1.6420  0.3379
12791TIP3    H259865   5.036   6.003  11.071  0.1679  3.5537 -0.5692
12792TIP3   OH259866   2.461   6.325  13.933 -0.7069 -0.0395 -0.1792
12792TIP3    H159867   2.468   6.235  13.903 -1.4018 -0.1437 -0.0379
12792TIP3    H259868   2.447   6.376  13.853  0.3662  0.0351 -0.3361
12793TIP3   OH259869   1.458   5.739   6.010  0.4041  0.4517 -0.3033
12793TIP3    H159870   1.539   5.766   6.053  0.4387  0.4000 -0.3353
12793TIP3    H259871   1.399   5.814   6.019  0.6942  0.7579 -0.9065
12794TIP3   OH259872   1.865   0.744  11.110  0.0366 -0.7260  0.3393
12794TIP3    H159873   1.912   0.825  11.091 -0.1351 -0.6379  0.2965
12794TIP3    H259874   1.805   0.767  11.181 -0.3482 -0.6981  0.0049
12795TIP3   OH259875   5.062   3.994   3.814  0.1013 -0.4726 -0.4394
12795TIP3    H159876   5.123   4.066   3.801  0.4971 -0.5186  0.9388
12795TIP3    H259877   5.003   3.997   3.739  0.2531  1.1449 -0.5123
12796TIP3   OH259878   3.300   4.457  13.901 -0.6998  0.8128  0.3427
12796TIP3    H159879   3.337   4.369  13.897 -0.4341  0.7844  2.2337
12796TIP3    H259880   3.246   4.465  13.823 -1.0584 -1.1949  0.3453
12797TIP3   OH259881   3.476   0.375  12.346  0.2133 -0.1586  0.2233
12797TIP3    H159882   3.418   0.313  12.302  0.3442  0.5549 -0.9828
12797TIP3    H259883   3.435   0.388  12.432 -0.6132 -0.7669 -0.0631
12798TIP3   OH259884   4.811   2.078  15.108 -0.1355 -0.1708 -0.6512
12798TIP3    H159885   4.842   2.165  15.083  1.3822 -0.4416  0.1363
12798TIP3    H259886   4.821   2.076  15.203  0.5705 -1.4443 -0.7239
12799TIP3   OH259887   3.008   0.023  16.966  0.1193 -0.5488  0.4518
12799TIP3    H159888   3.044  -0.064  16.987  1.6109 -0.3998 -1.2053
12799TIP3    H259889   3.079   0.084  16.987  0.0757 -0.0171 -0.8343
12800TIP3   OH259890   3.297   0.079   4.107  0.0831  0.1326 -0.0290
12800TIP3    H159891   3.275   0.173   4.105 -0.6385 -0.0202  0.6841
12800TIP3    H259892   3.393   0.078   4.102  0.0982  0.9054 -0.1416
12801TIP3   OH259893   1.512   6.153  14.122 -0.3551 -0.1300  0.7696
12801TIP3    H159894   1.475   6.065  14.124 -0.0360 -0.3361 -0.7763
12801TIP3    H259895   1.598   6.141  14.080 -1.2933  1.1963 -1.7620
12802TIP3   OH259896   6.102   6.509  16.460  0.1140  0.8249 -0.2890
12802TIP3    H159897   6.072   6.470  16.378 -1.6864  1.5841 -0.0329
12802TIP3    H259898   6.046   6.585  16.473  0.4062  0.7675  1.6157
12803TIP3   OH259899   4.159   5.758  12.394 -0.2495  1.0667  0.0683
12803TIP3    H159900   4.234   5.803  12.433  0.2894  1.0988 -0.9788
12803TIP3    H259901   4.172   5.666  12.414  2.2035  0.5140 -3.4056
12804TIP3   OH259902   1.248   2.161  12.491  0.5319  0.0094  0.1500
12804TIP3    H159903   1.267   2.221  12.564  2.3528 -0.3150 -0.0169
12804TIP3    H259904   1.325   2.104  12.486 -1.3948 -2.8128  0.7024
12805TIP3   OH259905   0.958   2.059   5.481 -0.7545 -0.2114 -0.1464
12805TIP3    H159906   0.888   2.106   5.528 -0.4949  0.4392 -0.3979
12805TIP3    H259907   1.005   2.128   5.433  0.5807 -0.5082  0.6722
12806TIP3   OH259908   5.047   6.564   6.102  0.3701  0.2218 -0.0650
12806TIP3    H159909   4.971   6.610   6.064  0.5200  1.7163  1.3375
12806TIP3    H259910   5.019   6.473   6.108 -1.0011  0.5955 -0.3768
12807TIP3   OH259911   6.831   3.312   4.972  0.2800 -0.0111  0.1466
12807TIP3    H159912   6.762   3.372   4.945 -1.0110 -0.1911  2.7282
12807TIP3    H259913   6.815   3.232   4.923 -1.0881  0.1169  0.3457
12808TIP3   OH259914   4.975   5.945   3.263  0.0935 -0.0011 -0.1950
12808TIP3    H159915   4.981   5.970   3.171  0.1634  0.3594 -0.0972
12808TIP3    H259916   5.016   6.019   3.310 -0.4620  0.0880  0.1575
12809TIP3   OH259917   2.019   4.388  14.037 -0.6628  0.2033  0.0171
12809TIP3    H159918   2.022   4.358  13.946 -0.7522 -0.5272  0.2502
12809TIP3    H259919   2.091   4.342  14.080 -2.1646 -1.4571  0.9013
12810TIP3   OH259920   6.416   5.255   4.954  0.1899  0.2433  0.3203
12810TIP3    H159921   6.363   5.175   4.960  1.0462 -0.5826 -2.0180
12810TIP3    H259922   6.352   5.326   4.946 -0.5746 -0.2671  1.6598
12811TIP3   OH259923   1.063   5.058   0.217 -0.8426  0.9249  0.0457
12811TIP3    H159924   0.968   5.051   0.214 -0.7715 -0.3525  0.1130
12811TIP3    H259925   1.092   5.030   0.130 -0.4035 -2.4548  1.1043
12812TIP3   OH259926   4.620   1.107   1.517  0.0892 -0.1404 -0.0018
12812TIP3    H159927   4.713   1.124   1.531  0.6517 -0.5906 -2.6158
12812TIP3    H259928   4.609   1.014   1.535 -0.0791  0.0763  1.1155
12813TIP3   OH259929   2.586   2.928   3.471 -0.1308 -0.2214 -0.2565
12813TIP3    H159930   2.628   3.011   3.492  1.9014 -0.6748 -2.1949
12813TIP3    H259931   2.627   2.864   3.529 -0.5157 -0.1597  0.0919
12814TIP3   OH259932   5.269   0.165   0.197  0.2483 -0.0848  0.1817
12814TIP3    H159933   5.227   0.239   0.153  1.3195  0.4028 -0.0733
12814TIP3    H259934   5.270   0.096   0.131  2.8680  1.0018 -1.0889
12815TIP3   OH259935   5.131   2.748  15.172 -0.0544 -0.4650  0.1557
12815TIP3    H159936   5.214   2.749  15.124  0.3730  1.8987  0.8044
12815TIP3    H259937   5.156   2.734  15.263 -0.6330 -2.2714  0.0726
12816TIP3   OH259938   5.835   6.634   5.044 -0.5388  0.2375 -0.1015
12816TIP3    H159939   5.818   6.665   5.133 -1.0385  1.2219 -0.5263
12816TIP3    H259940   5.787   6.551   5.038  0.2823 -0.3300  0.8391
12817TIP3   OH259941   0.663   3.207  13.238  0.4025  0.1926 -0.1944
12817TIP3    H159942   0.644   3.276  13.301 -0.0916 -0.0933 -0.0309
12817TIP3    H259943   0.724   3.149  13.283  2.7785  1.7840 -1.1479
12818TIP3   OH259944   2.541   0.317   0.816  0.4293 -0.5492 -0.4002
12818TIP3    H159945   2.490   0.385   0.861  0.7574 -0.9519  0.6115
12818TIP3    H259946   2.629   0.326   0.853  0.4119 -1.6895 -0.0593
12819TIP3   OH259947   0.754   0.858  16.508  0.6396  0.1549  0.0616
12819TIP3    H159948   0.849   0.869  16.507  0.8223 -0.9324  1.5782
12819TIP3    H259949   0.722   0.921  16.444  2.2254  2.0533  1.0109
12820TIP3   OH259950   6.317   5.103  12.078  0.0943 -0.3857  0.0783
12820TIP3    H159951   6.234   5.088  12.032  0.6063 -0.9826 -0.6760
12820TIP3    H259952   6.359   5.174  12.028 -0.1202  0.1770  0.6853
12821TIP3   OH259953   6.082   2.432  11.315  0.3931 -0.4721 -0.0528
12821TIP3    H159954   6.049   2.365  11.255  2.8989 -0.1264 -1.9445
12821TIP3    H259955   6.091   2.510  11.261 -1.7796  1.3144  1.9561
12822TIP3   OH259956   3.609   5.187   6.067 -0.5236  0.2787  0.0284
12822TIP3    H159957   3.703   5.200   6.080 -0.3564  1.8462 -2.1721
12822TIP3    H259958   3.569   5.217   6.149  0.8146  1.0665  0.4341
12823TIP3   OH259959   4.876   3.468   4.049 -0.7114  0.0737 -0.5294
12823TIP3    H159960   4.959   3.474   4.003 -0.9383  0.2233 -0.9162
12823TIP3    H259961   4.892   3.402   4.117 -0.7105 -0.9902 -1.5291
12824TIP3   OH259962   5.012   0.898   0.791  0.5547 -0.3875 -0.1429
12824TIP3    H159963   4.958   0.823   0.816 -1.0138  0.9342  0.6209
12824TIP3    H259964   4.976   0.928   0.708  0.1990  0.3940  0.2794
12825TIP3   OH259965   4.473   2.668   2.650 -0.0003  0.9247  0.4812
12825TIP3    H159966   4.478   2.758   2.618  0.3023  0.7817  0.1105
12825TIP3    H259967   4.398   2.630   2.604  1.9836 -0.0821 -2.2196
12826TIP3   OH259968   3.629   6.186  11.106  0.3701 -0.3325 -0.4408
12826TIP3    H159969   3.621   6.142  11.191  1.9295 -0.5759 -0.3930
12826TIP3    H259970   3.585   6.126  11.044  0.3222 -0.7587  0.0012
12827TIP3   OH259971   1.240   1.281   2.940  0.4226  0.2315 -0.0893
12827TIP3    H159972   1.250   1.359   2.994  0.6095  0.4919 -0.4970
12827TIP3    H259973   1.321   1.232   2.955  0.8461  0.7034 -0.7635
12828TIP3   OH259974   4.753   1.609  14.276 -0.2093 -0.5586  0.4608
12828TIP3    H159975   4.769   1.597  14.369 -0.0666  0.0624  0.5210
12828TIP3    H259976   4.715   1.697  14.269  1.4505  0.1462 -0.2438
12829TIP3   OH259977   5.274   4.758  12.840 -0.3099  0.9838 -0.2935
12829TIP3    H159978   5.367   4.737  12.850 -0.3408  0.1739 -1.4483
12829TIP3    H259979   5.236   4.741  12.926  0.7701  2.3437  0.4891
12830TIP3   OH259980   4.764   0.093   0.180  0.6506  0.3209  0.4525
12830TIP3    H159981   4.802   0.181   0.181 -0.1302  0.7985 -2.5327
12830TIP3    H259982   4.674   0.107   0.150  1.0707 -1.6174 -1.9425
12831TIP3   OH259983   4.942   5.134  15.843  0.6206  0.1439 -0.3198
12831TIP3    H159984   4.938   5.185  15.924  0.8557  2.3506 -1.6151
12831TIP3    H259985   5.036   5.118  15.830  0.4615 -2.4442  1.0746
12832TIP3   OH259986   0.422   2.962  11.223 -0.7155 -0.2111  0.0668
12832TIP3    H159987   0.444   2.886  11.277 -1.4940 -0.5496 -0.0736
12832TIP3    H259988   0.484   3.030  11.249  1.3871 -1.5122 -1.2817
12833TIP3   OH259989   1.479   3.823  11.729 -0.3231  0.7082 -0.6563
12833TIP3    H159990   1.496   3.818  11.635 -0.5020 -1.2678 -0.6225
12833TIP3    H259991   1.405   3.884  11.737 -0.8856  0.2200 -1.8944
12834TIP3   OH259992   5.643   2.776   2.028 -0.3394 -0.0469  0.2527
12834TIP3    H159993   5.696   2.740   1.957 -1.4706 -1.4190  0.0617
12834TIP3    H259994   5.556   2.788   1.989 -0.9046 -0.5738  1.3125
12835TIP3   OH259995   0.166   1.454  16.893 -0.2105 -0.0351  0.3384
12835TIP3    H159996   0.184   1.540  16.856  0.7056 -0.6274 -0.6148
12835TIP3    H259997   0.142   1.399  16.818  2.0267 -1.3440  0.4875
12836TIP3   OH259998   2.545   2.723  15.144 -0.3645  0.1353 -0.0561
12836TIP3    H159999   2.562   2.689  15.056 -0.7720 -0.2830  0.0226
12836TIP3    H260000   2.516   2.647  15.194 -0.8779  0.5121  0.2340
12837TIP3   OH260001   0.973   1.599  11.900  0.2501  0.5687 -0.4436
12837TIP3    H160002   1.064   1.586  11.872 -0.1134  2.2272 -2.7729
12837TIP3    H260003   0.929   1.517  11.878  0.6358  0.7726 -2.1541
12838TIP3   OH260004   6.758   2.239  13.029 -0.0866 -0.2976 -0.8148
12838TIP3    H160005   6.726   2.159  12.989 -2.2891  0.2741 -0.3132
12838TIP3    H260006   6.738   2.230  13.122  0.5642  0.4265 -0.5862
12839TIP3   OH260007   1.507   0.670   1.892 -0.1457 -0.0310 -0.1289
12839TIP3    H160008   1.461   0.661   1.808 -1.8106 -1.5706  0.8726
12839TIP3    H260009   1.449   0.725   1.945 -0.2513 -0.9726  0.7528
12840TIP3   OH260010   3.219   2.775  14.937 -0.1945 -0.8663 -0.5174
12840TIP3    H160011   3.140   2.828  14.926 -0.7359 -1.6899 -0.7222
12840TIP3    H260012   3.262   2.779  14.851  0.8875  0.9388  0.0573
12841TIP3   OH260013   1.165   3.890   1.585 -0.6445  0.0088  0.0085
12841TIP3    H160014   1.208   3.913   1.502  0.8025 -1.4759  0.2781
12841TIP3    H260015   1.215   3.937   1.651  2.3160 -3.4126  0.5604
12842TIP3   OH260016   2.273   4.582   4.938  0.3572 -0.5685 -0.5801
12842TIP3    H160017   2.211   4.633   4.886  1.0008 -0.9943 -1.8196
12842TIP3    H260018   2.345   4.563   4.878  2.3959  1.0856  1.1881
12843TIP3   OH260019   1.442   6.832  11.903 -0.1959 -0.0722 -0.4723
12843TIP3    H160020   1.477   6.901  11.847 -2.9988  1.5939 -0.3565
12843TIP3    H260021   1.378   6.787  11.848 -0.8652 -0.3242  0.4808
12844TIP3   OH260022   0.962   0.395  14.843 -0.0144 -0.2733  0.2891
12844TIP3    H160023   0.887   0.356  14.888 -0.1701 -1.7485 -1.1544
12844TIP3    H260024   1.029   0.327  14.843  0.8592  0.5493  0.3623
12845TIP3   OH260025   2.576   5.949  15.996 -0.3634 -0.0061  0.1439
12845TIP3    H160026   2.609   6.006  16.066  1.8101 -0.5583 -0.3355
12845TIP3    H260027   2.521   6.006  15.942 -0.4160  0.9386  1.1580
12846TIP3   OH260028   2.751   0.686   6.266 -0.2863 -0.3216  0.0239
12846TIP3    H160029   2.818   0.667   6.331 -0.1603 -1.6546 -0.4780
12846TIP3    H260030   2.779   0.640   6.187 -0.4674  1.2258 -0.9896
12847TIP3   OH260031   4.639   5.517  13.011 -0.0631 -0.3237 -0.0202
12847TIP3    H160032   4.595   5.440  13.048 -0.1387 -0.8142 -1.0924
12847TIP3    H260033   4.716   5.529  13.067 -1.3947  0.4321  1.7577
12848TIP3   OH260034   5.927   1.857   3.204 -0.3317  0.1201  0.2820
12848TIP3    H160035   6.009   1.874   3.158 -0.0845  1.8831  1.2863
12848TIP3    H260036   5.952   1.801   3.278 -0.3331 -0.7554 -0.3741
12849TIP3   OH260037   0.354   0.412  11.410  0.4147 -0.3522  0.3501
12849TIP3    H160038   0.258   0.409  11.417  0.3694  0.3965  0.1266
12849TIP3    H260039   0.381   0.320  11.411 -0.4362 -0.6560 -1.1588
12850TIP3   OH260040   0.489   2.679  14.082 -0.1031 -0.3622  0.0430
12850TIP3    H160041   0.551   2.614  14.050 -0.1242 -0.8019  0.8772
12850TIP3    H260042   0.532   2.763  14.064  1.8967 -0.6654  2.7371
12851TIP3   OH260043   3.123   3.615   4.938 -0.0103  0.3115 -0.5450
12851TIP3    H160044   3.104   3.649   4.851 -1.6752  0.1560 -0.2620
12851TIP3    H260045   3.125   3.520   4.927  1.7763  0.3344 -0.7687
12852TIP3   OH260046   5.347   2.270   4.447 -0.2783  0.1184 -0.3186
12852TIP3    H160047   5.437   2.248   4.470 -0.3697 -0.8401 -0.8070
12852TIP3    H260048   5.296   2.244   4.523 -0.1116  0.9723  0.0912
12853TIP3   OH260049   6.440   2.170   4.339  0.1602  0.1268 -0.9265
12853TIP3    H160050   6.437   2.096   4.279 -0.9711 -0.0643 -0.6585
12853TIP3    H260051   6.429   2.247   4.283  0.4169  0.0390 -1.0998
12854TIP3   OH260052   6.405   5.043   3.034  0.4730  0.1166 -0.3985
12854TIP3    H160053   6.404   5.095   3.115  0.6450 -0.6467  0.1006
12854TIP3    H260054   6.474   4.977   3.048 -1.3227 -1.7701 -0.0419
12855TIP3   OH260055   1.268   2.263   3.136 -0.1988 -0.1442  0.7732
12855TIP3    H160056   1.223   2.182   3.111  0.4386 -0.0714 -0.7322
12855TIP3    H260057   1.269   2.316   3.056  2.2466 -0.0278  0.7988
12856TIP3   OH260058   0.392   0.514   9.855 -0.1379 -0.2207 -0.0706
12856TIP3    H160059   0.301   0.545   9.853 -0.2742 -0.6412 -0.5782
12856TIP3    H260060   0.442   0.585   9.815 -0.3927 -0.4540 -0.8178
12857TIP3   OH260061   1.071   3.210   1.383  0.3054  0.3843 -0.4161
12857TIP3    H160062   1.041   3.267   1.453 -0.1296 -0.4888  0.1338
12857TIP3    H260063   1.103   3.131   1.428  1.9181  0.6148 -1.0775
12858TIP3   OH260064   5.376   0.664   0.564  0.6298  0.0661 -0.0639
12858TIP3    H160065   5.416   0.723   0.629 -1.0612  0.5271  0.6154
12858TIP3    H260066   5.321   0.606   0.616 -0.5999  0.3020 -1.0544
12859TIP3   OH260067   2.784   4.046   0.387 -0.0994  0.1245  0.3194
12859TIP3    H160068   2.833   4.104   0.446 -1.5172  1.5095  0.1937
12859TIP3    H260069   2.842   4.034   0.312  0.4668  0.9090  0.6155
12860TIP3   OH260070   2.472   4.235  10.842 -0.2549 -0.3081 -0.2239
12860TIP3    H160071   2.435   4.299  10.903 -1.4025 -1.1399 -0.0121
12860TIP3    H260072   2.560   4.269  10.823  0.3283 -0.2409  2.2255
12861TIP3   OH260073   1.996   1.167   1.999 -0.7388  0.4282 -0.2059
12861TIP3    H160074   1.959   1.174   1.911 -1.6942  2.5449  0.3020
12861TIP3    H260075   2.089   1.185   1.987 -0.8230  0.4771 -0.8151
12862TIP3   OH260076   0.227   0.944   4.417  0.8751 -0.1671  0.2024
12862TIP3    H160077   0.290   1.015   4.427  2.3666 -1.3724 -0.3270
12862TIP3    H260078   0.172   0.972   4.343  1.5955  0.3386 -0.1565
12863TIP3   OH260079   2.503   3.348   0.604 -0.1693 -0.1520 -0.4337
12863TIP3    H160080   2.596   3.366   0.597  0.3082 -1.5250  1.4713
12863TIP3    H260081   2.464   3.430   0.634  0.6189  0.1008 -0.0883
12864TIP3   OH260082   0.225   0.761   4.148  0.7545  0.2936  0.2899
12864TIP3    H160083   0.161   0.692   4.133  1.5816 -0.5217  0.4436
12864TIP3    H260084   0.172   0.837   4.172 -0.2263  0.0014 -0.8430
12865TIP3   OH260085   6.348   0.623   4.138  0.4240  0.1293 -0.8458
12865TIP3    H160086   6.263   0.626   4.094  0.6997 -1.6717 -1.5903
12865TIP3    H260087   6.387   0.542   4.108  1.5837 -0.0591  1.0254
12866TIP3   OH260088   0.764   4.617   4.793 -0.5167  0.2454 -0.0682
12866TIP3    H160089   0.845   4.667   4.782 -1.3082  1.0388 -3.0534
12866TIP3    H260090   0.727   4.649   4.875  1.3355  1.1089  0.4835
12867TIP3   OH260091   1.627   2.288  15.554 -0.3393 -0.4985  0.7012
12867TIP3    H160092   1.577   2.254  15.480  0.1809 -0.7010  0.4352
12867TIP3    H260093   1.706   2.326  15.514 -0.9601  1.1829  0.9632
12868TIP3   OH260094   5.038   5.952   2.591 -0.4005 -0.3372  0.0699
12868TIP3    H160095   4.980   5.901   2.534  0.5865 -0.0383 -1.2444
12868TIP3    H260096   5.019   5.920   2.679 -1.4342 -1.3473 -0.4907
12869TIP3   OH260097   2.060   1.257  15.431  0.7133 -0.2540  0.0366
12869TIP3    H160098   2.021   1.194  15.492  0.8899 -1.7564 -1.3283
12869TIP3    H260099   2.094   1.327  15.486 -1.1886 -0.3941  1.4940
12870TIP3   OH260100   3.721   2.465   0.912 -0.1662  0.7197  0.1848
12870TIP3    H160101   3.766   2.536   0.957 -0.3983  1.2907 -0.4658
12870TIP3    H260102   3.738   2.481   0.819 -0.5122  0.1188  0.0116
12871TIP3   OH260103   2.045   3.022  10.632 -0.4392 -0.2575  0.1578
12871TIP3    H160104   2.029   3.042  10.539 -0.6833  1.6019  0.5660
12871TIP3    H260105   1.996   2.941  10.647 -0.8197 -0.3182 -1.2101
12872TIP3   OH260106   0.036   3.289   5.860 -0.0350  0.0183 -0.0218
12872TIP3    H160107   0.053   3.195   5.866  0.1772  0.0012 -0.7399
12872TIP3    H260108   0.114   3.324   5.816 -1.4517  0.0533 -2.7553
12873TIP3   OH260109   0.170   0.615   1.812  0.3560  0.2036  0.0696
12873TIP3    H160110   0.118   0.555   1.865  0.4341  0.6223  0.6306
12873TIP3    H260111   0.124   0.619   1.728 -0.9658  1.1425  0.7880
12874TIP3   OH260112   6.851   3.578   1.915  0.1951  0.5300  0.1211
12874TIP3    H160113   6.918   3.513   1.894 -0.8667 -0.4965 -0.1095
12874TIP3    H260114   6.777   3.528   1.947 -0.1579  1.7214  1.2581
12875TIP3   OH260115   1.463   0.352   1.929 -0.2318 -0.3487  0.1419
12875TIP3    H160116   1.516   0.344   1.850  1.5367  1.1095  1.1130
12875TIP3    H260117   1.386   0.402   1.902  0.2081 -0.1324 -0.7256
12876TIP3   OH260118   2.911   1.088   1.019  0.2153  0.3061 -0.2936
12876TIP3    H160119   2.831   1.141   1.015 -0.0164  0.0441  0.7729
12876TIP3    H260120   2.953   1.112   1.101  0.5710 -0.5149 -0.2209
12877TIP3   OH260121   2.203   6.504  15.843  0.3212  0.2808 -0.1927
12877TIP3    H160122   2.122   6.512  15.891  0.2377  0.2173 -0.3210
12877TIP3    H260123   2.176   6.484  15.753  0.4161  2.0902 -0.6491
12878TIP3   OH260124   0.928   4.438  16.030 -0.3387  0.2325 -0.0329
12878TIP3    H160125   0.954   4.487  15.951  0.2998 -0.7478 -0.4516
12878TIP3    H260126   0.909   4.350  15.998 -0.9650  0.0653  0.7877
12879TIP3   OH260127   1.911   3.262  16.804  0.4579  0.5637 -0.2067
12879TIP3    H160128   1.857   3.198  16.758  0.6071  1.0231 -1.0420
12879TIP3    H260129   1.942   3.216  16.882  0.5625 -0.3815 -0.7872
12880TIP3   OH260130   2.668   5.237   0.807  0.4213  0.0179 -0.3829
12880TIP3    H160131   2.627   5.217   0.891 -0.5407 -2.7826 -1.4128
12880TIP3    H260132   2.757   5.264   0.829 -0.3079  1.0037  1.5950
12881TIP3   OH260133   4.579   4.228  14.035 -0.0354  0.2319  0.0552
12881TIP3    H160134   4.563   4.157  13.973  2.3945 -2.0158  1.7627
12881TIP3    H260135   4.663   4.265  14.008 -0.5599  1.4898  0.0781
12882TIP3   OH260136   3.772   2.166  14.909  0.4422 -0.6864 -0.8453
12882TIP3    H160137   3.844   2.198  14.854  1.5705 -0.8925  0.4567
12882TIP3    H260138   3.732   2.245  14.945  1.4014 -0.6214  0.1137
12883TIP3   OH260139   0.314   3.853  12.604  0.0551  0.5009  0.0723
12883TIP3    H160140   0.262   3.790  12.654 -1.0135  0.7487 -0.6764
12883TIP3    H260141   0.330   3.925  12.665  0.6008 -0.1379  0.6898
12884TIP3   OH260142   6.768   0.054  12.740  0.9394  0.2860  0.4624
12884TIP3    H160143   6.779   0.080  12.649 -0.4937 -3.2126 -0.8830
12884TIP3    H260144   6.850   0.079  12.782  2.2078  0.8039 -2.1029
12885TIP3   OH260145   5.346   0.731  11.301  0.2972  0.1140  0.0983
12885TIP3    H160146   5.300   0.815  11.298  1.4880  1.0033  3.1674
12885TIP3    H260147   5.309   0.686  11.377  0.8092 -1.4924 -0.5566
12886TIP3   OH260148   0.901   4.619  16.225  0.2323  0.0557  0.4896
12886TIP3    H160149   0.917   4.552  16.292  2.3681 -0.4115 -0.3920
12886TIP3    H260150   0.892   4.570  16.144  1.1250  0.7684 -0.0608
12887TIP3   OH260151   5.457   1.332  15.802 -0.3585 -0.2594  0.4203
12887TIP3    H160152   5.372   1.338  15.759 -0.1551 -1.0042 -0.1118
12887TIP3    H260153   5.439   1.289  15.885 -0.6915  0.7939  0.9005
12888TIP3   OH260154   4.960   1.241   0.196 -0.0028 -0.0360 -0.0777
12888TIP3    H160155   4.882   1.229   0.142 -0.7773  1.4518  0.6671
12888TIP3    H260156   4.967   1.160   0.246 -0.6855 -0.4339 -0.6030
12889TIP3   OH260157   3.957   4.271  12.979  0.3456  0.1367  0.2154
12889TIP3    H160158   3.904   4.335  12.931 -0.8035 -0.6885  0.3349
12889TIP3    H260159   4.010   4.228  12.912  1.8189  1.8229  0.2516
12890TIP3   OH260160   0.341   6.562  15.425 -0.6762 -0.4082 -0.8760
12890TIP3    H160161   0.340   6.556  15.520  2.4781  3.6764 -0.3006
12890TIP3    H260162   0.413   6.504  15.399 -1.8555 -1.9136 -0.9551
12891TIP3   OH260163   2.547   0.521   3.161 -0.2042  0.2116  0.8736
12891TIP3    H160164   2.570   0.429   3.171 -0.2838  0.3115  2.0179
12891TIP3    H260165   2.606   0.567   3.220 -0.1322  0.9130  0.2740
12892TIP3   OH260166   6.122   1.829  17.113 -0.4097  0.5598 -0.5770
12892TIP3    H160167   6.174   1.749  17.105 -0.6693  0.4592 -1.3705
12892TIP3    H260168   6.149   1.867  17.197 -0.2842 -0.3554 -0.1892
12893TIP3   OH260169   6.455   2.214  14.998  0.4870  0.4417  0.1590
12893TIP3    H160170   6.527   2.173  15.045  0.9176  0.1998 -0.6947
12893TIP3    H260171   6.378   2.200  15.054  0.7689 -0.8574  0.2381
12894TIP3   OH260172   1.247   1.622   5.012  0.2413  0.0085  0.0050
12894TIP3    H160173   1.209   1.664   5.089 -2.2809 -2.1725  0.0978
12894TIP3    H260174   1.301   1.551   5.047  0.3819 -0.0036 -0.2305
12895TIP3   OH260175   4.155   1.183   1.533  1.1571  0.4270 -0.4681
12895TIP3    H160176   4.086   1.144   1.478  1.1224 -1.9031  1.0891
12895TIP3    H260177   4.108   1.242   1.592  0.8218  0.7183 -1.0175
12896TIP3   OH260178   2.620   6.371  10.476 -0.2924 -0.1914 -0.1408
12896TIP3    H160179   2.654   6.289  10.440  2.7329  0.0474  1.8063
12896TIP3    H260180   2.666   6.440  10.429 -1.4941  0.3635 -0.5396
12897TIP3   OH260181   2.698   4.659  11.781 -1.0777 -0.2794 -0.3076
12897TIP3    H160182   2.640   4.609  11.838 -0.0127 -0.9856  0.1681
12897TIP3    H260183   2.750   4.593  11.735 -0.0737  0.3631 -0.1185
12898TIP3   OH260184   0.865   3.199  12.389 -0.1363  0.2376  0.4061
12898TIP3    H160185   0.843   3.108  12.366 -0.8395  0.4942  0.0235
12898TIP3    H260186   0.930   3.191  12.458  0.1174 -0.5625  0.0897
12899TIP3   OH260187   5.885   4.283  11.258  0.3412  0.7996  0.1299
12899TIP3    H160188   5.871   4.188  11.258  0.5499  0.7654 -0.3333
12899TIP3    H260189   5.953   4.297  11.324  0.1928  0.6408  0.3151
12900TIP3   OH260190   1.578   2.697  13.443 -0.0238  0.2099  0.7141
12900TIP3    H160191   1.564   2.604  13.460 -0.7086  0.0535 -0.6164
12900TIP3    H260192   1.626   2.699  13.360 -0.3888  1.0539  0.5192
12901TIP3   OH260193   4.299   2.768  15.311 -0.2154 -0.2070  0.2618
12901TIP3    H160194   4.361   2.810  15.251 -1.2851  1.2495  0.1220
12901TIP3    H260195   4.353   2.712  15.366  1.0048 -0.2658 -0.9415
12902TIP3   OH260196   6.198   5.718   0.778  0.0780  0.6532  0.3312
12902TIP3    H160197   6.134   5.680   0.838  0.2848 -0.7418 -0.2805
12902TIP3    H260198   6.164   5.695   0.691  0.3849  1.6369 -0.0607
12903TIP3   OH260199   4.837   4.273  13.991 -0.0168 -0.0506 -0.3999
12903TIP3    H160200   4.907   4.298  13.930 -0.7003 -0.4204 -1.3695
12903TIP3    H260201   4.853   4.180  14.007 -0.2811 -0.1357 -0.6233
12904TIP3   OH260202   3.022   4.197  16.159 -0.0565 -0.3537  0.4016
12904TIP3    H160203   2.950   4.134  16.170  0.2607 -0.5593  1.5044
12904TIP3    H260204   3.003   4.266  16.223  0.9906 -0.6854  1.1126
12905TIP3   OH260205   1.332   6.119  13.449  0.0365 -0.8987  0.2483
12905TIP3    H160206   1.381   6.175  13.388  0.2294 -1.3020  0.0324
12905TIP3    H260207   1.295   6.180  13.513  1.7094 -0.6880  1.0544
12906TIP3   OH260208   5.159   0.755   2.184  0.4097  0.4740  0.2730
12906TIP3    H160209   5.128   0.792   2.101 -1.9307 -0.4212  0.6821
12906TIP3    H260210   5.166   0.661   2.167  2.9833  0.5843  0.2480
12907TIP3   OH260211   0.328   1.955  10.210  0.3208 -0.4956  0.8246
12907TIP3    H160212   0.329   1.859  10.208  1.6452 -0.5019  0.8306
12907TIP3    H260213   0.396   1.978  10.274  1.9021  0.4482 -1.0776
12908TIP3   OH260214   4.458   1.004  15.843  0.1282  0.0832 -0.5246
12908TIP3    H160215   4.551   1.014  15.822  0.7809 -1.7261  1.1298
12908TIP3    H260216   4.441   0.911  15.828 -0.9358  0.0190  0.8939
12909TIP3   OH260217   1.961   1.730  16.487 -0.2495  0.3640  0.0476
12909TIP3    H160218   1.951   1.808  16.542 -0.5944  0.9507 -0.8306
12909TIP3    H260219   2.056   1.720  16.477 -0.1944  0.4606  0.4488
12910TIP3   OH260220   5.149   0.063  12.008  0.6702  0.3912  0.5346
12910TIP3    H160221   5.171   0.108  11.926  2.2549  0.5360  1.0022
12910TIP3    H260222   5.078   0.003  11.985  0.9702  0.5559 -0.8980
12911TIP3   OH260223   0.435   5.275   0.696  0.1034  0.2400  0.1026
12911TIP3    H160224   0.519   5.311   0.670 -0.1782 -0.2937 -1.6965
12911TIP3    H260225   0.372   5.315   0.636 -0.8274  0.0777  0.9407
12912TIP3   OH260226   3.155   5.968   3.076 -0.2095  0.4519 -0.2962
12912TIP3    H160227   3.158   5.983   3.170 -0.7128  0.9018 -0.3508
12912TIP3    H260228   3.155   6.055   3.037  0.1150  0.2679 -0.7213
12913TIP3   OH260229   4.423   2.630  12.604  0.6563 -0.2554 -0.1243
12913TIP3    H160230   4.378   2.623  12.520  1.0376 -0.1602 -0.3405
12913TIP3    H260231   4.424   2.725  12.622  0.9399 -0.2404 -0.2154
12914TIP3   OH260232   1.785   2.534   0.751  0.1125 -0.5869  0.5162
12914TIP3    H160233   1.722   2.503   0.816 -0.7903 -0.0016 -0.0573
12914TIP3    H260234   1.732   2.555   0.674  0.6898  2.1076  0.7655
12915TIP3   OH260235   0.417   2.904   3.077  0.3851 -0.1679  0.3165
12915TIP3    H160236   0.335   2.939   3.112  0.6014  0.9552 -0.2434
12915TIP3    H260237   0.416   2.926   2.984  1.7990  0.8972  0.5038
12916TIP3   OH260238   4.801   0.992   3.216  0.3300 -0.1598  0.0365
12916TIP3    H160239   4.807   1.020   3.308  1.0336  1.8270 -0.5766
12916TIP3    H260240   4.738   1.052   3.176  0.7751 -0.3677 -1.0087
12917TIP3   OH260241   3.778   2.708   4.903  0.2348  0.0235 -0.0027
12917TIP3    H160242   3.703   2.649   4.896 -0.5842  0.9282  0.8268
12917TIP3    H260243   3.799   2.709   4.997  1.1365 -0.0268 -0.1922
12918TIP3   OH260244   2.372   5.739   2.887 -0.1240 -0.6586 -0.2161
12918TIP3    H160245   2.328   5.685   2.952 -0.0212  0.9809  1.3076
12918TIP3    H260246   2.302   5.776   2.834 -0.5381  0.6935  1.1985
12919TIP3   OH260247   2.173   0.453  13.556  0.2628 -0.4370  0.4525
12919TIP3    H160248   2.097   0.443  13.612 -1.3832 -1.4230 -1.8060
12919TIP3    H260249   2.142   0.504  13.481  1.6020 -1.4477 -0.8626
12920TIP3   OH260250   1.840   4.668  12.577 -0.0439  0.7841 -0.3103
12920TIP3    H160251   1.845   4.638  12.486 -0.2276  0.1028 -0.1062
12920TIP3    H260252   1.887   4.751  12.578  0.1167  0.7075 -0.9909
12921TIP3   OH260253   0.567   5.791  12.148  0.3196  0.0770 -0.6334
12921TIP3    H160254   0.591   5.861  12.087 -0.0902  2.1092  1.4056
12921TIP3    H260255   0.482   5.817  12.183  0.4799 -1.0732  0.6961
12922TIP3   OH260256   1.154   4.432   4.393 -0.2086 -0.2586  0.3266
12922TIP3    H160257   1.241   4.450   4.357 -0.8060  1.4613 -0.3441
12922TIP3    H260258   1.125   4.353   4.346 -0.5896  1.3824 -2.3862
12923TIP3   OH260259   3.247   2.999  15.639  0.1897 -0.1233  0.5092
12923TIP3    H160260   3.236   2.989  15.544 -2.0799  0.6282  0.6298
12923TIP3    H260261   3.330   2.955  15.658 -0.0095 -1.6012 -1.6058
12924TIP3   OH260262   5.729   2.794   5.312  0.1166  0.4195 -0.0682
12924TIP3    H160263   5.765   2.883   5.318 -0.0673  0.4658  0.3677
12924TIP3    H260264   5.806   2.737   5.310  0.2234  0.5228  0.8004
12925TIP3   OH260265   3.514   5.019  14.579 -0.4140 -0.4668  0.4869
12925TIP3    H160266   3.523   5.048  14.489  0.5312 -0.2278  0.6462
12925TIP3    H260267   3.432   5.058  14.609 -0.6467 -0.4143 -0.2157
12926TIP3   OH260268   5.363   6.249  11.788  0.0362  0.0161  0.0260
12926TIP3    H160269   5.347   6.312  11.858  0.3821  1.7946 -1.4085
12926TIP3    H260270   5.435   6.194  11.821  0.0321  0.6476  1.1420
12927TIP3   OH260271   0.671   3.817  16.921  0.3152  0.1791 -0.2781
12927TIP3    H160272   0.704   3.906  16.927 -0.9497  0.5836  2.9328
12927TIP3    H260273   0.712   3.771  16.995  0.0812 -1.5898 -1.1950
12928TIP3   OH260274   5.029   2.032  12.924  0.2666  0.2195  0.6337
12928TIP3    H160275   5.024   2.004  13.016 -0.3589  1.2958  0.9449
12928TIP3    H260276   5.051   2.125  12.929  1.4270  0.0236 -0.3510
12929TIP3   OH260277   1.158   0.816  13.625 -0.2711  0.2464  0.3012
12929TIP3    H160278   1.134   0.883  13.689 -1.3962  2.0953 -1.9051
12929TIP3    H260279   1.253   0.818  13.623 -0.1469 -0.7138  2.7131
12930TIP3   OH260280   3.360   2.078   1.468 -0.7188 -0.5499  0.7026
12930TIP3    H160281   3.427   2.140   1.495 -1.2125  0.6743 -0.7660
12930TIP3    H260282   3.407   2.012   1.416 -0.6423  0.4501 -0.5476
12931TIP3   OH260283   3.387   2.976   5.417  0.7125  0.0747 -0.0886
12931TIP3    H160284   3.442   2.969   5.338  1.0340 -0.4037  0.1671
12931TIP3    H260285   3.322   3.043   5.396  0.5794 -0.2990 -0.8876
12932TIP3   OH260286   4.475   2.559   5.034  0.0897 -0.3636  0.2454
12932TIP3    H160287   4.545   2.542   5.097 -0.3589 -0.3367  0.7631
12932TIP3    H260288   4.453   2.473   4.998  0.9718 -0.2620 -0.5612
12933TIP3   OH260289   0.322   4.756   1.295  0.0513 -0.1355 -0.4280
12933TIP3    H160290   0.276   4.839   1.311  0.1220 -0.1084 -0.3623
12933TIP3    H260291   0.411   4.772   1.325  0.3761  0.1443 -1.4772
12934TIP3   OH260292   2.834   2.435  14.852  0.2506 -1.2138  0.2884
12934TIP3    H160293   2.914   2.423  14.801  1.5210 -1.3257  2.1783
12934TIP3    H260294   2.818   2.350  14.893 -2.3455 -1.9522 -1.9943
12935TIP3   OH260295   4.038   1.899  12.982  0.2442 -0.2045 -0.1045
12935TIP3    H160296   4.015   1.947  12.902  0.3193  0.6075  0.3475
12935TIP3    H260297   4.107   1.839  12.955  0.8609  0.6492 -0.4860
12936TIP3   OH260298   3.916   6.152   1.747  0.3746 -0.3690 -0.0677
12936TIP3    H160299   3.981   6.219   1.770 -1.7547  1.3845  1.3212
12936TIP3    H260300   3.861   6.193   1.680  0.1285 -1.4516 -0.5516
12937TIP3   OH260301   4.609   3.199   4.141  0.1891  0.1965  0.6734
12937TIP3    H160302   4.543   3.197   4.072  1.0106 -0.9842 -0.1417
12937TIP3    H260303   4.692   3.183   4.095  0.8533  0.0785  1.8546
12938TIP3   OH260304   0.127   0.949   9.852  0.1025  0.6078  0.2086
12938TIP3    H160305   0.180   0.959   9.931  1.0887  0.4525 -0.4220
12938TIP3    H260306   0.111   1.039   9.823 -0.6413  0.6818  0.8235
12939TIP3   OH260307   5.131   1.109  13.338 -0.4768 -0.0886 -0.7811
12939TIP3    H160308   5.224   1.119  13.320 -0.3217  0.8352  0.4118
12939TIP3    H260309   5.124   1.028  13.388  0.3160  1.8654  2.8376
12940TIP3   OH260310   0.704   5.643   5.305 -0.5633  0.1495  0.5398
12940TIP3    H160311   0.784   5.608   5.265 -1.7930 -0.5461 -1.4762
12940TIP3    H260312   0.687   5.586   5.380  0.6980  0.1857  0.8690
12941TIP3   OH260313   4.078   4.481  11.294 -0.2177 -0.0382  0.1873
12941TIP3    H160314   4.128   4.403  11.315 -0.9189 -0.4423  0.3767
12941TIP3    H260315   4.005   4.450  11.241 -0.1854  0.5659 -0.2328
12942TIP3   OH260316   5.874   3.753   5.219 -0.2004  0.1447 -0.5982
12942TIP3    H160317   5.864   3.658   5.216 -1.5800  0.2577 -0.2438
12942TIP3    H260318   5.847   3.783   5.133 -3.1612  0.4353  0.3035
12943TIP3   OH260319   4.608   1.575  10.978 -0.1621  0.3939 -0.4858
12943TIP3    H160320   4.615   1.506  10.913  1.8012  1.2255 -1.2387
12943TIP3    H260321   4.543   1.636  10.943 -0.4888 -0.1030 -0.7420
12944TIP3   OH260322   0.680   4.061   2.879 -0.2548  0.3396 -0.7455
12944TIP3    H160323   0.753   4.061   2.818  0.1163  1.9064 -0.3658
12944TIP3    H260324   0.651   3.970   2.884  1.4442 -0.2530 -1.1753
12945TIP3   OH260325   5.512   3.954   4.870 -0.5205  0.3606  0.2854
12945TIP3    H160326   5.434   4.009   4.869 -0.7789 -0.0077  0.3171
12945TIP3    H260327   5.481   3.866   4.849 -0.2994 -0.0337  1.5270
12946TIP3   OH260328   1.829   1.177  10.606 -0.3475 -0.9129 -0.2262
12946TIP3    H160329   1.905   1.190  10.662 -0.3437  0.6555 -0.5299
12946TIP3    H260330   1.754   1.173  10.666 -0.3439  0.7562 -0.0554
12947TIP3   OH260331   1.031   5.972   3.222  0.7899  0.6605 -0.2344
12947TIP3    H160332   0.954   5.968   3.279  0.5684  0.9605 -0.5110
12947TIP3    H260333   1.031   5.888   3.175 -0.3063  1.3176 -1.4461
12948TIP3   OH260334   0.533   3.430   3.204  0.1484  0.3843  0.2170
12948TIP3    H160335   0.503   3.347   3.168  0.9942  0.4830 -0.7265
12948TIP3    H260336   0.578   3.407   3.286  1.1236 -0.1756 -0.4685
12949TIP3   OH260337   5.810   1.814  11.583  0.4313  0.3011  0.3884
12949TIP3    H160338   5.893   1.833  11.628 -0.0132  0.2482  1.2555
12949TIP3    H260339   5.755   1.890  11.599 -0.4472 -0.5598  1.6962
12950TIP3   OH260340   2.884   3.764  13.535 -0.2278 -0.0612  0.2713
12950TIP3    H160341   2.936   3.740  13.458 -0.1143  1.1518 -0.0453
12950TIP3    H260342   2.794   3.770  13.503 -0.3339 -0.5688  0.4665
12951TIP3   OH260343   0.847   1.211  14.915  0.0543 -0.3255 -0.0803
12951TIP3    H160344   0.812   1.138  14.862  0.4658 -0.7917  0.2759
12951TIP3    H260345   0.942   1.200  14.908  0.1218  0.3526 -0.2515
12952TIP3   OH260346   4.382   5.103  15.121  0.1174  0.1753  0.1006
12952TIP3    H160347   4.429   5.030  15.080  1.9946  0.1823  2.0719
12952TIP3    H260348   4.315   5.127  15.057 -0.1326 -2.8121 -0.9060
12953TIP3   OH260349   5.029   2.631   6.649  0.0866 -0.2080  0.0171
12953TIP3    H160350   4.935   2.623   6.634  0.1467  0.2495 -0.6094
12953TIP3    H260351   5.038   2.710   6.702  0.2528  0.7299 -1.3703
12954TIP3   OH260352   3.171   0.804  14.407  0.7321 -0.2821 -0.1431
12954TIP3    H160353   3.172   0.897  14.385 -0.1762 -0.1850  0.2134
12954TIP3    H260354   3.149   0.760  14.325  0.1981 -0.1189 -0.0859
12955TIP3   OH260355   3.930   2.229   5.975 -0.3610 -0.2053  0.4213
12955TIP3    H160356   3.925   2.134   5.965 -3.2614 -0.0854  0.0564
12955TIP3    H260357   3.900   2.245   6.065 -0.5881  0.4012  0.2437
12956TIP3   OH260358   0.668   5.242  14.111  0.1718 -0.4537  0.0187
12956TIP3    H160359   0.752   5.281  14.134  0.5859 -0.3486 -1.5459
12956TIP3    H260360   0.604   5.287  14.167  0.7201  1.9083 -1.1390
12957TIP3   OH260361   1.126   4.467  15.179  0.1495  0.5728  0.1773
12957TIP3    H160362   1.059   4.423  15.230 -1.4406  0.9886 -1.4586
12957TIP3    H260363   1.157   4.400  15.117 -1.7078  1.4065 -1.7814
12958TIP3   OH260364   0.335   4.053  12.776 -0.0631  0.3142 -0.5529
12958TIP3    H160365   0.320   4.042  12.870 -0.9532  0.5674 -0.6524
12958TIP3    H260366   0.430   4.060  12.767 -0.0122  1.2082  0.4368
12959TIP3   OH260367   2.270   3.576  13.116 -0.4279  0.5354  0.0297
12959TIP3    H160368   2.259   3.663  13.153  0.8563  0.4581  0.6678
12959TIP3    H260369   2.304   3.591  13.028  1.3711  0.7107  0.7034
12960TIP3   OH260370   3.257   1.280  12.348 -0.2794  0.1895  0.2436
12960TIP3    H160371   3.190   1.309  12.410 -1.8520  0.4797 -1.4900
12960TIP3    H260372   3.310   1.359  12.332  0.0707  0.1390  1.1068
12961TIP3   OH260373   5.366   6.178  13.843 -0.2499 -0.0692  0.6462
12961TIP3    H160374   5.312   6.232  13.785 -0.3666  0.1316  0.9420
12961TIP3    H260375   5.447   6.228  13.852  0.1987 -0.6213 -0.2265
12962TIP3   OH260376   5.938   0.205  15.236 -0.1108  0.2951  0.1047
12962TIP3    H160377   5.990   0.126  15.220 -1.5332 -0.9804  1.4784
12962TIP3    H260378   5.927   0.245  15.150 -0.0580 -1.4592 -0.7491
12963TIP3   OH260379   4.788   4.766  15.361 -0.3817  0.0942  0.0264
12963TIP3    H160380   4.866   4.822  15.362  0.7066 -1.3746  0.2102
12963TIP3    H260381   4.755   4.769  15.450 -0.9279  1.2071 -0.1906
12964TIP3   OH260382   2.274   6.805   1.657 -0.0729 -0.7077 -0.0018
12964TIP3    H160383   2.226   6.842   1.583 -0.0947  0.9735  0.7892
12964TIP3    H260384   2.206   6.765   1.712 -0.0215 -2.2280 -0.9949
12965TIP3   OH260385   6.323   0.347  10.445 -0.1021 -0.3585 -0.0867
12965TIP3    H160386   6.283   0.307  10.368  1.4120  0.9197 -1.6134
12965TIP3    H260387   6.260   0.415  10.472  0.1469  0.3909 -1.3187
12966TIP3   OH260388   4.957   5.359  16.762  0.3391 -0.1238  0.5370
12966TIP3    H160389   4.903   5.351  16.684  1.5887 -1.9782 -0.2371
12966TIP3    H260390   4.932   5.442  16.802 -1.5205  0.0617 -0.9121
12967TIP3   OH260391   3.228   0.190   3.343 -0.2523 -0.6847 -0.3123
12967TIP3    H160392   3.273   0.234   3.271  1.2503 -0.6823  0.5839
12967TIP3    H260393   3.215   0.259   3.408  1.9854 -1.4457  1.0422
12968TIP3   OH260394   5.114   2.600  12.974 -0.4356 -0.1878 -0.2153
12968TIP3    H160395   5.090   2.597  13.066  1.9403  0.3143  0.4873
12968TIP3    H260396   5.052   2.541  12.931 -1.6523 -0.3572  1.6587
12969TIP3   OH260397   6.409   1.204   1.797  0.7610  0.1820  0.0865
12969TIP3    H160398   6.443   1.123   1.759  0.8366  0.9335 -1.5728
12969TIP3    H260399   6.466   1.222   1.871  0.8379 -1.1930  0.3768
12970TIP3   OH260400   5.120   5.198  14.280  0.6731  0.1456 -0.3721
12970TIP3    H160401   5.086   5.131  14.339  1.1531 -0.8161 -1.1610
12970TIP3    H260402   5.195   5.157  14.237  1.2496  1.3449 -0.5523
12971TIP3   OH260403   2.445   6.334  13.468 -0.3479 -0.5257  0.1903
12971TIP3    H160404   2.494   6.394  13.525 -0.8128 -0.9499  1.0628
12971TIP3    H260405   2.353   6.357  13.484 -0.4702 -0.3736 -0.7142
12972TIP3   OH260406   2.341   2.881   4.128 -0.0306  0.3678 -0.3425
12972TIP3    H160407   2.261   2.931   4.112  0.1570  0.4031 -1.2254
12972TIP3    H260408   2.363   2.900   4.219 -1.6643 -0.5757  0.3027
12973TIP3   OH260409   1.597   1.007   0.060  0.0353  0.1756  0.0785
12973TIP3    H160410   1.624   1.023   0.151 -0.5628  2.3966 -0.0592
12973TIP3    H260411   1.506   0.980   0.066 -0.3435  1.3947  0.1253
12974TIP3   OH260412   3.311   0.144  13.764  0.0728  0.3620 -0.3380
12974TIP3    H160413   3.290   0.165  13.855 -2.5301 -1.3363 -0.4224
12974TIP3    H260414   3.374   0.072  13.769 -2.1005 -1.6440  0.3175
12975TIP3   OH260415   1.063   6.716  17.091  0.2808 -0.4468 -0.0343
12975TIP3    H160416   1.002   6.643  17.080 -1.3258  0.6707  0.9747
12975TIP3    H260417   1.114   6.717  17.010 -0.9026 -1.5620 -0.8274
12976TIP3   OH260418   3.563   1.615  14.495 -0.1587  0.4211 -0.1975
12976TIP3    H160419   3.653   1.640  14.513 -0.0342 -0.4957  0.5349
12976TIP3    H260420   3.528   1.586  14.580 -0.6653 -0.6552 -0.7402
12977TIP3   OH260421   5.100   3.865  13.486  0.7852  0.2188 -0.1684
12977TIP3    H160422   5.169   3.814  13.443  0.3739 -0.8872  0.4526
12977TIP3    H260423   5.042   3.800  13.525  0.8269  1.1699  1.5967
12978TIP3   OH260424   6.138   0.277  11.674 -0.2313  0.0362 -0.5277
12978TIP3    H160425   6.151   0.190  11.711  4.4852  0.3584 -0.7721
12978TIP3    H260426   6.073   0.265  11.605 -1.2619 -2.7853  0.7942
12979TIP3   OH260427   6.024   6.833  14.984 -0.3581 -0.4630 -0.5316
12979TIP3    H160428   6.100   6.889  15.001 -0.1137 -1.0809  0.4577
12979TIP3    H260429   6.047   6.785  14.905  0.3396 -0.7252 -0.1802
12980TIP3   OH260430   6.366   1.458   5.201  0.8558  0.2453 -0.5093
12980TIP3    H160431   6.351   1.391   5.135  1.1027 -0.8840  0.5502
12980TIP3    H260432   6.455   1.441   5.233  0.9452  1.1125 -0.2477
12981TIP3   OH260433   1.147   4.291   6.302  0.2617 -0.1341  0.8953
12981TIP3    H160434   1.174   4.293   6.394  0.1824  0.7049  0.9025
12981TIP3    H260435   1.051   4.290   6.305  0.2432  0.9728  0.8086
12982TIP3   OH260436   0.757   2.915   6.299 -0.0888  0.0887  0.3197
12982TIP3    H160437   0.761   2.820   6.307 -1.3946 -0.0693 -0.6979
12982TIP3    H260438   0.757   2.931   6.205 -0.6228  1.0630  0.4775
12983TIP3   OH260439   0.735   5.104  16.399 -0.4921 -0.0187  0.2802
12983TIP3    H160440   0.813   5.157  16.418 -1.6375  1.7818  0.1570
12983TIP3    H260441   0.756   5.018  16.435  1.6449  0.3353  0.0350
12984TIP3   OH260442   0.818   4.136   3.215 -0.2209  0.1127  0.2613
12984TIP3    H160443   0.880   4.154   3.286  0.6595 -0.2132 -0.3936
12984TIP3    H260444   0.777   4.054   3.238 -0.0301  0.0735  0.4620
12985TIP3   OH260445   4.508   4.919  14.904  0.3937 -0.5678 -0.4472
12985TIP3    H160446   4.435   4.860  14.886  0.6223 -0.6261 -1.2149
12985TIP3    H260447   4.549   4.882  14.982 -0.4699 -0.4575  0.0741
12986TIP3   OH260448   4.851   2.550   0.910 -0.3591 -0.4934  0.4763
12986TIP3    H160449   4.944   2.527   0.919 -0.6171 -0.6865  3.2236
12986TIP3    H260450   4.851   2.622   0.847  1.7361 -0.0310  0.9313
12987TIP3   OH260451   0.302   1.385  12.110  0.5836  0.1731 -0.2277
12987TIP3    H160452   0.344   1.453  12.162 -3.0177  1.3259  1.4961
12987TIP3    H260453   0.236   1.432  12.059 -1.1300 -1.8595  0.0053
12988TIP3   OH260454   1.431   6.023   4.836  0.2849 -0.4304  0.3663
12988TIP3    H160455   1.408   6.113   4.861  3.5161  0.3065  1.1681
12988TIP3    H260456   1.410   5.972   4.914  1.7713  0.3231  1.3232
12989TIP3   OH260457   5.000   0.283   5.274 -0.2021 -0.2435  0.1679
12989TIP3    H160458   5.054   0.255   5.348  0.9407  1.2207 -0.0383
12989TIP3    H260459   4.919   0.315   5.313  0.4081  0.5550  0.8101
12990TIP3   OH260460   2.316   6.634  11.219  0.2124  0.0737 -0.1573
12990TIP3    H160461   2.308   6.680  11.302  0.0696 -0.4641  0.1322
12990TIP3    H260462   2.408   6.641  11.196  0.5761 -1.1038  0.8332
12991TIP3   OH260463   3.945   2.013   0.914 -0.0189  0.3097  0.8336
12991TIP3    H160464   3.883   1.983   0.847  1.9210 -0.0745 -0.8714
12991TIP3    H260465   3.910   1.978   0.996 -0.1956 -2.9203 -0.5032
12992TIP3   OH260466   3.511   5.550   0.155  0.9480 -0.0241  0.0385
12992TIP3    H160467   3.476   5.638   0.170 -1.0250 -0.4740 -1.4830
12992TIP3    H260468   3.560   5.557   0.074  2.6903  0.1125  1.0582
12993TIP3   OH260469   5.293   5.386  14.517  0.1745  0.6738  0.5992
12993TIP3    H160470   5.207   5.421  14.492  0.0386  0.5651  0.9132
12993TIP3    H260471   5.283   5.291  14.509 -0.0884  0.5865  1.7295
12994TIP3   OH260472   0.953   6.054   4.216 -0.1490 -0.2500 -0.5435
12994TIP3    H160473   0.972   6.011   4.300  1.6072 -2.4073 -1.9143
12994TIP3    H260474   1.010   6.131   4.215  0.3309 -0.5845 -0.0249
12995TIP3   OH260475   2.421   0.326  12.088  0.1184 -0.3305  0.7184
12995TIP3    H160476   2.461   0.379  12.020  0.1772 -0.9066  0.2972
12995TIP3    H260477   2.472   0.344  12.167  1.7877 -1.6921  0.0143
12996TIP3   OH260478   0.129   0.286   2.605 -0.3824  0.4211  0.2782
12996TIP3    H160479   0.047   0.324   2.637  0.2512  1.1989  1.0442
12996TIP3    H260480   0.184   0.278   2.684 -0.2597 -1.5611  0.0544
12997TIP3   OH260481   0.101   4.098  15.520  0.0522 -0.3980  0.6109
12997TIP3    H160482   0.057   4.112  15.437 -0.5816  0.5926  1.1020
12997TIP3    H260483   0.045   4.037  15.567 -0.3227  0.1363  0.8639
12998TIP3   OH260484   4.848   2.352  11.549  0.1446  0.2394 -0.2590
12998TIP3    H160485   4.922   2.322  11.496  1.8677  0.5619  1.8022
12998TIP3    H260486   4.820   2.273  11.597  1.5611  0.7733  1.5946
12999TIP3   OH260487   4.666   6.074   1.743  0.3075  0.3164 -0.2416
12999TIP3    H160488   4.652   5.994   1.793  1.9242 -0.9900 -1.7035
12999TIP3    H260489   4.757   6.098   1.761 -0.0207  1.5854 -0.1787
13000TIP3   OH260490   3.964   4.820   3.157  0.5234  0.4826 -0.6973
13000TIP3    H160491   3.980   4.773   3.075  0.0760 -0.8076 -0.0869
13000TIP3    H260492   4.050   4.824   3.199  0.5624  0.1550 -0.7399
13001TIP3   OH260493   5.712   4.234   2.620 -0.1052  0.2223  0.4911
13001TIP3    H160494   5.665   4.240   2.537  0.5891 -1.2223 -0.0365
13001TIP3    H260495   5.649   4.193   2.679 -0.6705  1.4338  0.7711
13002TIP3   OH260496   5.157   5.364  15.492  0.0164  0.1567 -0.3416
13002TIP3    H160497   5.247   5.379  15.519  1.0207 -2.3226 -1.9305
13002TIP3    H260498   5.115   5.325  15.569  0.6621  0.1639  0.0204
13003TIP3   OH260499   0.535   3.245  15.158 -0.2857 -0.1822 -0.5403
13003TIP3    H160500   0.479   3.235  15.236  0.2736 -0.1457 -0.1299
13003TIP3    H260501   0.615   3.286  15.191 -0.8329  1.7410 -1.4851
13004TIP3   OH260502   0.053   4.321  17.119  0.3026 -0.4939  0.6895
13004TIP3    H160503   0.146   4.301  17.110  0.3880  0.2600 -0.2373
13004TIP3    H260504   0.009   4.264  17.056  0.0388 -1.4178  1.6739
13005TIP3   OH260505   5.350   3.761   4.191 -0.3404 -0.2552 -0.3578
13005TIP3    H160506   5.333   3.855   4.190 -0.6464 -0.3097 -0.6425
13005TIP3    H260507   5.264   3.721   4.202 -0.2696 -0.5126 -0.7192
13006TIP3   OH260508   3.531   6.301   5.057 -0.0600 -0.2429 -0.2811
13006TIP3    H160509   3.497   6.384   5.091  2.1784  0.1717  1.1697
13006TIP3    H260510   3.497   6.234   5.116  0.5070  0.0028  0.3312
13007TIP3   OH260511   2.737   4.056   3.952 -0.1317  0.1292  0.7395
13007TIP3    H160512   2.725   4.151   3.965 -0.5450  0.2092 -0.1833
13007TIP3    H260513   2.817   4.049   3.900 -0.6554  0.0269 -0.0563
13008TIP3   OH260514   6.730   1.606   2.429  0.2874 -0.3591  0.4792
13008TIP3    H160515   6.806   1.606   2.370  0.8617  3.5664  0.9504
13008TIP3    H260516   6.657   1.633   2.374 -0.4491 -2.2046  0.4658
13009TIP3   OH260517   5.939   4.080   1.495 -0.7411  0.6127 -0.6122
13009TIP3    H160518   5.974   4.076   1.406 -0.0428 -0.3071 -0.3071
13009TIP3    H260519   5.926   4.174   1.511 -0.2529  0.8314 -1.4416
13010TIP3   OH260520   4.580   5.971  15.431  0.3003 -0.2368 -0.5502
13010TIP3    H160521   4.576   6.067  15.428 -0.6562 -0.1245  1.8764
13010TIP3    H260522   4.495   5.943  15.397  0.4950 -0.2138 -1.0560
13011TIP3   OH260523   0.699   3.484  15.662  0.1577  0.2647  0.0270
13011TIP3    H160524   0.657   3.505  15.745 -1.3707  0.4684 -0.7505
13011TIP3    H260525   0.626   3.457  15.605  1.0797  0.7779 -1.4425
13012TIP3   OH260526   6.551   0.733   0.039  0.0275  0.0188 -0.0578
13012TIP3    H160527   6.583   0.656   0.087 -0.6520 -1.1664 -1.4136
13012TIP3    H260528   6.620   0.750  -0.026 -0.1270  0.1245 -0.1952
13013TIP3   OH260529   4.036   3.466  14.441  0.5010  0.0458 -0.2773
13013TIP3    H160530   4.060   3.435  14.528 -1.3022 -2.4086 -0.5364
13013TIP3    H260531   4.103   3.430  14.383  1.3086  1.0960 -0.0332
13014TIP3   OH260532   6.388   6.789  15.851  0.5022  0.1862 -0.4114
13014TIP3    H160533   6.346   6.834  15.778 -1.4921  0.5357  0.8824
13014TIP3    H260534   6.346   6.825  15.929  2.4105 -0.3379  0.9281
13015TIP3   OH260535   3.838   5.377  15.873  0.3872  0.0256 -0.0471
13015TIP3    H160536   3.810   5.392  15.964 -1.3962  3.7499 -1.0113
13015TIP3    H260537   3.888   5.455  15.851 -2.0457  0.9023 -3.1838
13016TIP3   OH260538   0.318   1.631  11.684 -0.3632  0.2204 -0.0747
13016TIP3    H160539   0.297   1.636  11.778  0.6423  1.5000  0.1217
13016TIP3    H260540   0.302   1.719  11.651  0.1697  0.0234 -0.8957
13017TIP3   OH260541   0.236   2.618  15.561  0.2168 -0.3396  0.1386
13017TIP3    H160542   0.166   2.655  15.507 -0.2044 -1.3377 -0.0318
13017TIP3    H260543   0.209   2.637  15.651  0.4915  0.5924  0.0268
13018TIP3   OH260544   2.876   4.395   3.798 -0.6244 -0.1090 -0.0878
13018TIP3    H160545   2.829   4.474   3.824  0.4779  1.8098 -3.3999
13018TIP3    H260546   2.813   4.346   3.745 -1.2652 -1.4966  1.8570
13019TIP3   OH260547   1.865   2.925  11.356  0.0828  0.1095  0.2454
13019TIP3    H160548   1.807   2.851  11.338 -0.0149 -0.0416  1.1159
13019TIP3    H260549   1.826   2.968  11.432  0.7341  0.4134  0.4180
13020TIP3   OH260550   3.435   0.773  15.949  0.0558  0.7413 -0.1781
13020TIP3    H160551   3.479   0.692  15.924  0.6946  0.7862  0.7475
13020TIP3    H260552   3.413   0.815  15.866 -1.3108 -0.8991 -0.7134
13021TIP3   OH260553   3.845   3.794  11.273  0.3273 -0.4479  0.1905
13021TIP3    H160554   3.785   3.737  11.225  1.3947 -1.6144  0.1867
13021TIP3    H260555   3.931   3.774  11.236  0.8162  0.7195  0.6405
13022TIP3   OH260556   1.122   4.024   4.361  0.0260  0.0522  0.3508
13022TIP3    H160557   1.170   4.047   4.440  1.8654  1.4133 -1.0783
13022TIP3    H260558   1.083   4.107   4.331 -0.9375 -0.5087  0.0022
13023TIP3   OH260559   4.009   4.641   0.578 -0.7641  0.2895 -0.4164
13023TIP3    H160560   4.060   4.589   0.640 -1.8553 -0.7722 -0.3835
13023TIP3    H260561   3.920   4.641   0.612 -1.2383  0.3052 -1.5922
13024TIP3   OH260562   5.478   2.996  16.620  0.2793  0.3470 -0.6367
13024TIP3    H160563   5.433   2.932  16.565  1.5036 -1.1427  0.0081
13024TIP3    H260564   5.496   3.069  16.561 -0.4020 -0.2505 -1.6257
13025TIP3   OH260565   0.143   3.241   1.067  0.2344  0.0850  0.0644
13025TIP3    H160566   0.094   3.266   0.989 -1.2394  0.4828  1.0564
13025TIP3    H260567   0.181   3.156   1.046  0.2594  0.4067 -1.2382
13026TIP3   OH260568   3.015   0.403   5.815 -0.0246 -0.5945  0.1022
13026TIP3    H160569   2.939   0.425   5.868  0.0784 -1.9893  0.8767
13026TIP3    H260570   3.089   0.406   5.876  0.6260  0.9588 -0.6798
13027TIP3   OH260571   5.669   3.055  14.838 -0.0198 -0.0414 -0.3419
13027TIP3    H160572   5.754   3.042  14.880 -0.4112  1.2033  0.9184
13027TIP3    H260573   5.623   2.972  14.852  1.8799 -1.7967 -3.4633
13028TIP3   OH260574   1.286   0.379  16.370  0.4771  0.2964 -0.5790
13028TIP3    H160575   1.328   0.412  16.450 -0.4900  2.2304 -0.7994
13028TIP3    H260576   1.198   0.355  16.397  0.1278  1.0141 -1.0526
13029TIP3   OH260577   2.301   2.707  11.256  0.8342  0.7229 -0.4786
13029TIP3    H160578   2.220   2.666  11.285  1.4488  1.1091  2.0348
13029TIP3    H260579   2.366   2.637  11.257  0.7125  0.5595 -1.8456
13030TIP3   OH260580   0.158   3.068   3.166  0.8580 -0.0549  0.0075
13030TIP3    H160581   0.069   3.047   3.140 -0.5334 -0.1993  4.1505
13030TIP3    H260582   0.167   3.162   3.149 -0.9188  0.4154  1.2992
13031TIP3   OH260583   2.552   4.261  14.864  0.2903 -0.5737 -0.3430
13031TIP3    H160584   2.543   4.196  14.934 -2.5306 -0.8961 -0.9035
13031TIP3    H260585   2.646   4.259  14.842  1.2589 -0.6500  3.1690
13032TIP3   OH260586   4.566   3.296   0.606  0.0215 -0.1115  0.4283
13032TIP3    H160587   4.552   3.387   0.630  1.7953  0.5506 -0.8353
13032TIP3    H260588   4.503   3.279   0.536 -0.7609 -0.0975  1.1076
13033TIP3   OH260589   6.093   3.363   6.139 -0.0548 -0.0905 -0.1374
13033TIP3    H160590   6.022   3.425   6.157 -0.9714 -0.5183 -1.9821
13033TIP3    H260591   6.133   3.396   6.059 -2.4060 -3.2212 -2.8864
13034TIP3   OH260592   5.735   1.084   4.560  0.2451 -0.7922 -0.1988
13034TIP3    H160593   5.658   1.027   4.562 -0.4055  0.0509 -0.2332
13034TIP3    H260594   5.761   1.093   4.652  1.1719 -2.1851 -0.2965
13035TIP3   OH260595   6.441   4.238   3.618 -0.3641  0.4481  0.1047
13035TIP3    H160596   6.458   4.144   3.627 -0.1514  0.5220  0.4965
13035TIP3    H260597   6.491   4.264   3.541 -0.4581  0.2304 -0.0295
13036TIP3   OH260598   2.546   6.398   2.254  0.5837  0.9615  0.6083
13036TIP3    H160599   2.509   6.464   2.196  1.5387  1.5767  0.6888
13036TIP3    H260600   2.478   6.330   2.259  1.1956 -0.1100 -2.8077
13037TIP3   OH260601   6.183   4.680   1.165  0.8494 -0.0623 -0.1536
13037TIP3    H160602   6.109   4.732   1.196 -0.1939 -2.3078  1.4697
13037TIP3    H260603   6.164   4.663   1.073 -1.8814 -2.2442  0.6517
13038TIP3   OH260604   1.669   6.168  11.960  0.3932 -0.3201 -0.1228
13038TIP3    H160605   1.583   6.173  11.918  0.1581 -1.0265  0.2425
13038TIP3    H260606   1.731   6.176  11.888 -0.0062 -2.4036 -0.7739
13039TIP3   OH260607   1.994   5.182   2.017 -0.7310  0.3546 -0.2856
13039TIP3    H160608   1.923   5.209   1.959  0.1131  1.7317 -0.7352
13039TIP3    H260609   2.070   5.231   1.986  0.2649 -0.5617  0.6103
13040TIP3   OH260610   2.415   1.478   3.728 -0.3539  0.0645 -0.5266
13040TIP3    H160611   2.474   1.404   3.712 -0.1978  0.0661  0.0191
13040TIP3    H260612   2.470   1.555   3.718 -0.4579  0.0995 -0.8409
13041TIP3   OH260613   2.940   3.744  11.564 -0.5974  0.3771  0.4484
13041TIP3    H160614   2.951   3.802  11.488 -0.0723  1.0198  1.0006
13041TIP3    H260615   2.867   3.686  11.540 -1.3077  1.4349 -0.0205
13042TIP3   OH260616   3.716   4.254  12.146  0.5212  0.1091 -0.3219
13042TIP3    H160617   3.631   4.292  12.166  0.7643  0.2522  0.4486
13042TIP3    H260618   3.705   4.161  12.165  0.6187  0.1741  0.0668
13043TIP3   OH260619   0.132   4.886  14.402  0.2230  0.1991  0.1164
13043TIP3    H160620   0.084   4.807  14.380 -1.6996  1.2863  0.1432
13043TIP3    H260621   0.224   4.864  14.387 -0.0287 -2.6532  2.0674
13044TIP3   OH260622   5.193   5.254  11.344  0.5358  0.0022 -0.1679
13044TIP3    H160623   5.142   5.250  11.263 -1.9631 -1.0452  1.3221
13044TIP3    H260624   5.182   5.343  11.376  0.0230 -0.0797 -0.1090
13045TIP3   OH260625   3.291   1.116  13.278 -0.1304  0.3468  0.0841
13045TIP3    H160626   3.336   1.193  13.310  1.2860 -0.0350 -0.9127
13045TIP3    H260627   3.351   1.076  13.215 -2.1358  0.2095 -1.8749
13046TIP3   OH260628   2.816   6.053  15.433 -0.9491 -0.1390  0.0927
13046TIP3    H160629   2.784   6.037  15.344  0.3169  1.5635 -0.7373
13046TIP3    H260630   2.859   6.139  15.428  0.0146 -0.4343  2.1221
13047TIP3   OH260631   1.129   2.264   2.278 -0.0740  0.0211  0.1344
13047TIP3    H160632   1.102   2.207   2.351 -0.9917 -1.8367 -1.5501
13047TIP3    H260633   1.049   2.310   2.253 -0.6058 -1.7496 -1.6693
13048TIP3   OH260634   6.718   5.782   4.773  0.2170  0.3387  0.5306
13048TIP3    H160635   6.701   5.874   4.794 -0.0883 -0.0649  2.2578
13048TIP3    H260636   6.637   5.737   4.799  1.8550 -0.9485  3.9583
13049TIP3   OH260637   0.282   5.269  11.957 -0.2771  0.6331  0.1490
13049TIP3    H160638   0.274   5.346  11.901 -1.1084  1.8941  1.8960
13049TIP3    H260639   0.248   5.197  11.904  1.9928  1.0883 -2.1152
13050TIP3   OH260640   6.501   3.712   2.642 -0.4424  0.2261 -0.1819
13050TIP3    H160641   6.552   3.750   2.571  1.3009  1.8372  1.7668
13050TIP3    H260642   6.442   3.782   2.670 -1.3154 -0.4817 -0.2213
13051TIP3   OH260643   1.276   4.286  14.944  0.6739  0.7876 -0.0568
13051TIP3    H160644   1.327   4.306  14.865 -1.6303  2.5731 -1.2106
13051TIP3    H260645   1.207   4.227  14.914  0.2964  0.7831  0.8096
13052TIP3   OH260646   5.182   6.772   1.685 -0.8390 -0.2439  0.4088
13052TIP3    H160647   5.094   6.735   1.694 -1.3053  0.7029 -0.0467
13052TIP3    H260648   5.197   6.819   1.767 -0.9225 -0.0887  0.3366
13053TIP3   OH260649   1.143   5.409  13.029 -0.8608 -0.4602  0.0950
13053TIP3    H160650   1.136   5.355  13.109  3.3809 -3.3623 -1.0822
13053TIP3    H260651   1.107   5.354  12.960 -0.6231  0.1636 -0.5347
13054TIP3   OH260652   2.273   3.043   3.509 -0.0824  0.0148 -0.0945
13054TIP3    H160653   2.352   3.004   3.471 -0.3186 -1.5701  0.9718
13054TIP3    H260654   2.303   3.129   3.540  1.6389 -1.0835  1.5406
13055TIP3   OH260655   2.289   4.693  15.534  0.2429  0.2980  0.4966
13055TIP3    H160656   2.337   4.675  15.453 -1.1709  1.9964 -0.7819
13055TIP3    H260657   2.240   4.773  15.516 -0.3268  0.5819  2.9649
13056TIP3   OH260658   0.222   4.862   3.011 -0.0908 -0.1747 -0.1454
13056TIP3    H160659   0.294   4.823   3.061  0.4021  1.0068  0.1031
13056TIP3    H260660   0.240   4.837   2.920  0.2158 -0.5083  0.0030
13057TIP3   OH260661   1.574   1.446   5.346 -0.0911  0.4391  0.3450
13057TIP3    H160662   1.546   1.375   5.403  0.7328  0.9892  1.4726
13057TIP3    H260663   1.668   1.431   5.332 -0.3738 -0.0049 -1.3702
13058TIP3   OH260664   5.364   2.062   2.260 -0.3346 -0.6579 -0.0616
13058TIP3    H160665   5.425   2.003   2.215  0.9553  2.4431 -2.8351
13058TIP3    H260666   5.417   2.140   2.280 -3.0371  1.7474 -1.5827
13059TIP3   OH260667   0.325   0.124   1.128  0.1402  0.1088 -0.1575
13059TIP3    H160668   0.338   0.219   1.122  0.3127  0.0938 -0.0178
13059TIP3    H260669   0.229   0.114   1.129  0.1198  0.2996  0.0722
13060TIP3   OH260670   2.093   0.665  10.963 -0.7485 -0.4873  0.0144
13060TIP3    H160671   2.030   0.636  10.896 -0.4849 -3.1260  0.7726
13060TIP3    H260672   2.039   0.688  11.038 -1.1083  3.3536 -1.2490
13061TIP3   OH260673   6.544   4.156   0.399  0.2482 -0.4436  0.3584
13061TIP3    H160674   6.589   4.130   0.479  0.0538  1.2358  1.0688
13061TIP3    H260675   6.613   4.160   0.333  0.5031 -1.3323  0.5647
13062TIP3   OH260676   3.712   5.374   3.757 -0.7193  0.4573 -0.3420
13062TIP3    H160677   3.680   5.464   3.746 -1.1281  0.3853  0.2529
13062TIP3    H260678   3.694   5.332   3.673 -0.2609  1.0081 -0.7262
13063TIP3   OH260679   4.430   4.788   0.341 -0.5951 -0.3714  0.1805
13063TIP3    H160680   4.506   4.824   0.386  0.1036 -1.2386 -0.2838
13063TIP3    H260681   4.391   4.727   0.404 -1.3903  0.6474  0.7148
13064TIP3   OH260682   6.676   1.078   5.337 -0.3221 -0.4380  0.6132
13064TIP3    H160683   6.606   1.022   5.371 -0.3449 -1.2930 -0.7631
13064TIP3    H260684   6.642   1.167   5.347  0.1339 -0.4920  3.7875
13065TIP3   OH260685   2.732   5.873  11.656 -0.1295 -0.3170 -0.8040
13065TIP3    H160686   2.820   5.892  11.689 -0.5813 -1.5562  1.3248
13065TIP3    H260687   2.693   5.959  11.640  0.1956  0.4390  1.9341
13066TIP3   OH260688   3.584   0.634   3.187  0.3867 -0.2102 -0.0158
13066TIP3    H160689   3.624   0.686   3.257 -0.3789 -0.1244  0.3606
13066TIP3    H260690   3.515   0.690   3.152  1.4293  0.1629 -1.5522
13067TIP3   OH260691   6.604   5.737  11.620 -0.1466 -0.0841 -0.0610
13067TIP3    H160692   6.588   5.650  11.583  1.3518 -0.6446  0.5227
13067TIP3    H260693   6.522   5.784  11.606  0.0788 -0.4506 -3.4903
13068TIP3   OH260694   0.669   4.272   4.224  0.2777 -0.3988  0.0097
13068TIP3    H160695   0.658   4.179   4.207 -0.0942 -0.2046 -0.9348
13068TIP3    H260696   0.709   4.277   4.310  2.6419 -1.5357 -0.9160
13069TIP3   OH260697   6.808   3.664  12.279 -0.0423  0.0060  0.4867
13069TIP3    H160698   6.854   3.635  12.358 -0.1549 -1.7152 -0.0387
13069TIP3    H260699   6.875   3.661  12.210 -1.0087 -3.4985 -0.5000
13070TIP3   OH260700   3.924   5.051  12.334 -0.0389 -0.0571  0.6826
13070TIP3    H160701   3.917   5.073  12.241 -0.0383  1.5444  1.0465
13070TIP3    H260702   4.007   5.003  12.340 -0.7152 -1.4352 -0.3458
13071TIP3   OH260703   4.492   1.028  16.272 -0.1993  0.7484  0.4423
13071TIP3    H160704   4.490   1.113  16.229 -0.0932  0.1780 -0.7268
13071TIP3    H260705   4.536   1.044  16.356 -0.4887  1.8971  0.3829
13072TIP3   OH260706   0.309   0.780  13.464 -1.0101 -0.2098  0.7854
13072TIP3    H160707   0.382   0.841  13.460 -1.4697  0.3384  0.6726
13072TIP3    H260708   0.347   0.695  13.441 -0.5162  0.1666  0.1938
13073TIP3   OH260709   0.794   5.377   6.432 -0.2492  0.0578  0.3353
13073TIP3    H160710   0.811   5.461   6.473 -1.4066  1.1666 -1.3411
13073TIP3    H260711   0.876   5.329   6.441  0.5345  1.4696  1.0525
13074TIP3   OH260712   5.317   3.602   3.015  0.7052  0.3944 -0.0601
13074TIP3    H160713   5.321   3.507   3.020 -0.3129  0.2900 -1.0111
13074TIP3    H260714   5.298   3.630   3.105 -0.5792 -0.4057 -0.0598
13075TIP3   OH260715   0.464   5.366  13.958 -0.1074  0.2622  1.7395
13075TIP3    H160716   0.502   5.425  13.893  0.7005 -2.1418 -0.0733
13075TIP3    H260717   0.528   5.364  14.029  0.7155  0.2247  1.0155
13076TIP3   OH260718   1.095   1.315  15.608  0.4347  0.1750  0.0860
13076TIP3    H160719   1.144   1.244  15.649 -0.3343 -0.2231  0.3406
13076TIP3    H260720   1.066   1.369  15.682  0.5316  0.4414 -0.0677
13077TIP3   OH260721   6.794   5.269  13.136  0.3022  0.0432 -0.7078
13077TIP3    H160722   6.888   5.267  13.120  0.4449  1.0331 -0.0990
13077TIP3    H260723   6.784   5.231  13.223  0.1957  0.2989 -0.6047
13078TIP3   OH260724   5.919   3.899  13.898 -0.1765 -0.2150 -0.1052
13078TIP3    H160725   5.840   3.846  13.883 -0.8153  0.3114  1.2136
13078TIP3    H260726   5.894   3.960  13.967  1.0751  0.6810 -0.4123
13079TIP3   OH260727   2.279   6.019   2.841  0.3479  0.2590 -0.4843
13079TIP3    H160728   2.214   6.088   2.839 -0.1294 -0.1436  0.5168
13079TIP3    H260729   2.360   6.061   2.870  1.4573  1.4290 -4.5643
13080TIP3   OH260730   1.962   0.736   4.595 -0.0549  0.4339  0.1066
13080TIP3    H160731   1.983   0.750   4.503 -1.3209  1.2199 -0.0897
13080TIP3    H260732   2.028   0.787   4.643  0.9545 -0.4390 -0.3301
13081TIP3   OH260733   3.331   1.723  16.023  0.4173 -0.3820 -0.5055
13081TIP3    H160734   3.377   1.807  16.019  0.2355 -0.2032  0.6378
13081TIP3    H260735   3.241   1.746  16.045  0.7977 -0.9341  1.9531
13082TIP3   OH260736   0.323   2.113   3.317 -0.1012  0.5332  0.4109
13082TIP3    H160737   0.364   2.062   3.248  1.3764  0.7899  1.0481
13082TIP3    H260738   0.269   2.178   3.272 -1.0813 -0.8184 -0.4230
13083TIP3   OH260739   0.016   5.536  13.722 -0.3132  0.1339  0.1284
13083TIP3    H160740   0.109   5.534  13.743 -0.2170 -0.0076 -0.2996
13083TIP3    H260741  -0.027   5.493  13.796  0.0515 -0.7070 -0.1416
13084TIP3   OH260742   1.656   4.604  15.885 -0.2637  0.5097 -0.1916
13084TIP3    H160743   1.605   4.587  15.806 -0.3947  0.9969 -0.2180
13084TIP3    H260744   1.705   4.684  15.864 -0.6225  0.8799  0.3727
13085TIP3   OH260745   2.595   6.763   4.614  0.0245  0.3831 -0.8509
13085TIP3    H160746   2.673   6.709   4.625 -1.0420 -0.7686  1.6147
13085TIP3    H260747   2.574   6.794   4.702 -0.1624  3.8811 -1.9490
13086TIP3   OH260748   6.280   0.830  13.874 -0.1274  0.0127  0.4435
13086TIP3    H160749   6.344   0.800  13.809 -1.4810 -0.9347 -0.4949
13086TIP3    H260750   6.301   0.781  13.953  0.2734 -0.3199  0.1371
13087TIP3   OH260751   4.069   0.574  15.539  0.2878  0.5686 -0.2991
13087TIP3    H160752   3.986   0.620  15.545  0.3397  0.5647  0.5551
13087TIP3    H260753   4.062   0.503  15.602  0.6704  0.1371 -0.7377
13088TIP3   OH260754   4.510   0.810   0.662 -0.1399  0.4211  0.1368
13088TIP3    H160755   4.478   0.800   0.573  0.6994 -1.1005 -0.0259
13088TIP3    H260756   4.466   0.741   0.711 -0.0771  0.8199  0.7654
13089TIP3   OH260757   6.155   2.549   2.320  0.0790 -0.1097  0.2395
13089TIP3    H160758   6.197   2.477   2.368 -0.1352 -1.0482 -0.9231
13089TIP3    H260759   6.103   2.505   2.253 -0.8843  1.1186  0.1564
13090TIP3   OH260760   5.800   4.332   1.013  0.3155  0.1345 -0.4360
13090TIP3    H160761   5.711   4.365   1.029 -0.2988 -1.1712 -0.9988
13090TIP3    H260762   5.796   4.298   0.924  1.5878  0.6477 -0.7089
13091TIP3   OH260763   5.677   5.530   2.784  0.1249  0.1236  0.0048
13091TIP3    H160764   5.588   5.497   2.777 -0.0887  0.8054 -0.6634
13091TIP3    H260765   5.689   5.549   2.877 -0.8729  1.2126 -0.0700
13092TIP3   OH260766   0.862   4.749   5.882  0.6880 -0.1253  0.1546
13092TIP3    H160767   0.942   4.734   5.933  1.3880  0.9946 -0.5718
13092TIP3    H260768   0.807   4.802   5.939  0.5736 -0.6552  0.5458
13093TIP3   OH260769   4.540   1.752   2.016 -0.5403  0.1754 -0.0470
13093TIP3    H160770   4.574   1.669   1.982  2.5246 -0.1829  3.2248
13093TIP3    H260771   4.448   1.735   2.032 -0.1732 -2.3670 -0.2048
13094TIP3   OH260772   4.155   2.201   4.404  0.4362 -0.6603 -0.3549
13094TIP3    H160773   4.211   2.195   4.327  0.1603  0.6839 -0.6849
13094TIP3    H260774   4.213   2.182   4.478  1.4231  0.9258 -0.6649
13095TIP3   OH260775   0.529   6.200   0.605  0.7293  0.0731 -0.0507
13095TIP3    H160776   0.572   6.131   0.654  1.8951 -0.5497 -1.8610
13095TIP3    H260777   0.507   6.266   0.671  1.2332 -1.1950  1.4404
13096TIP3   OH260778   3.208   2.516  13.568  0.4339 -0.2220 -0.2037
13096TIP3    H160779   3.227   2.602  13.530 -1.1515  0.8566  1.3073
13096TIP3    H260780   3.277   2.459  13.533  2.9211  2.1259  0.5540
13097TIP3   OH260781   4.911   2.453  12.802 -0.0582 -0.3890  0.1666
13097TIP3    H160782   4.862   2.532  12.776  1.5013  1.0346  1.3846
13097TIP3    H260783   4.902   2.395  12.727 -0.2036  1.4487 -1.3305
13098TIP3   OH260784   5.207   1.752   6.453 -0.1922 -0.2662  0.4645
13098TIP3    H160785   5.125   1.751   6.403 -0.8093 -2.8677  1.3449
13098TIP3    H260786   5.209   1.837   6.495 -1.8009  0.3330 -0.5918
13099TIP3   OH260787   2.366   2.370  16.103 -0.2885 -0.3440 -0.2371
13099TIP3    H160788   2.328   2.327  16.179 -1.3825 -0.2248 -0.6944
13099TIP3    H260789   2.418   2.442  16.139 -0.4331 -0.5589  0.4145
13100TIP3   OH260790   3.795   6.460  14.221 -0.1600  0.4606  0.6815
13100TIP3    H160791   3.806   6.442  14.127 -1.7697 -3.3161  1.0459
13100TIP3    H260792   3.724   6.523  14.225  1.5336  2.6174 -0.6061
13101TIP3   OH260793   5.172   1.110   2.148 -0.5348  0.1933 -0.6143
13101TIP3    H160794   5.239   1.113   2.080 -0.6471  0.2646 -0.7228
13101TIP3    H260795   5.197   1.179   2.209  0.6056 -1.0719  0.4011
13102TIP3   OH260796   1.332   3.254  11.445  0.2694  0.8937  0.2896
13102TIP3    H160797   1.282   3.205  11.510  1.0131 -1.9224 -1.1021
13102TIP3    H260798   1.419   3.217  11.449  0.4092  0.8386 -2.0772
13103TIP3   OH260799   6.743   1.810   0.818 -0.2441 -0.2804 -0.0304
13103TIP3    H160800   6.763   1.770   0.903  0.1376  0.1964  0.1150
13103TIP3    H260801   6.796   1.761   0.755 -0.1267 -0.2999  0.0824
13104TIP3   OH260802   1.835   3.971   2.333 -0.2360  0.3208  0.4877
13104TIP3    H160803   1.754   3.921   2.321 -0.9288  1.3029  0.8631
13104TIP3    H260804   1.849   4.014   2.248 -0.8824  1.2141  0.8101
13105TIP3   OH260805   6.501   1.025  11.742  0.2299  0.1464 -0.2430
13105TIP3    H160806   6.563   0.979  11.799 -0.6411 -0.4947  0.2024
13105TIP3    H260807   6.420   0.975  11.748  0.2458 -0.2481 -2.4797
13106TIP3   OH260808   1.467   3.005  13.295 -0.4589  0.2201  0.0746
13106TIP3    H160809   1.556   3.014  13.260 -0.9269  0.4671 -1.0869
13106TIP3    H260810   1.413   2.987  13.218 -1.7242  2.0095  0.4910
13107TIP3   OH260811   3.720   0.527  11.785 -0.5097  0.1404  0.7190
13107TIP3    H160812   3.628   0.543  11.767 -1.0140  0.2503  3.0212
13107TIP3    H260813   3.765   0.605  11.752 -1.0666 -0.3518 -1.3190
13108TIP3   OH260814   3.618   2.337  15.641  0.1831 -0.2998  0.5024
13108TIP3    H160815   3.593   2.317  15.731 -1.0392 -1.7222 -0.1121
13108TIP3    H260816   3.595   2.429  15.629  3.7844  1.1167  2.7123
13109TIP3   OH260817   0.031   0.209  15.071 -0.5380  0.1248  0.3562
13109TIP3    H160818  -0.049   0.235  15.026 -0.6192  0.0659  0.4665
13109TIP3    H260819   0.088   0.286  15.064 -0.3122 -0.0988 -0.3950
13110TIP3   OH260820   0.773   2.698   2.991 -0.0413 -0.3307 -0.0046
13110TIP3    H160821   0.855   2.737   3.022 -0.2543  0.2597 -0.1744
13110TIP3    H260822   0.741   2.647   3.066  0.2426 -0.1847  0.2190
13111TIP3   OH260823   5.988   6.641   0.195 -0.4076  0.1766 -0.0777
13111TIP3    H160824   6.016   6.678   0.278 -0.8431  0.0952  0.1066
13111TIP3    H260825   5.931   6.568   0.219  0.6522 -0.8095 -0.4192
13112TIP3   OH260826   5.291   3.447   4.990 -0.3745 -0.6957 -0.4196
13112TIP3    H160827   5.210   3.469   5.036 -0.2109 -2.1877  0.6705
13112TIP3    H260828   5.360   3.493   5.038 -0.5215  0.2079 -1.0677
13113TIP3   OH260829   3.548   0.748  13.044 -0.1379 -0.1040  0.0851
13113TIP3    H160830   3.520   0.681  12.982  0.7836 -1.4112  1.0109
13113TIP3    H260831   3.643   0.753  13.034 -0.2966  2.1334 -0.9543
13114TIP3   OH260832   1.407   0.057   0.208  0.0940  0.0364 -0.2621
13114TIP3    H160833   1.410   0.089   0.118  0.9380 -1.6394 -0.8597
13114TIP3    H260834   1.369  -0.031   0.201  1.6717 -0.7657  0.8016
13115TIP3   OH260835   6.746   0.152   4.423 -0.1378  0.4150  0.2904
13115TIP3    H160836   6.689   0.191   4.489 -1.2869  0.2517 -0.5745
13115TIP3    H260837   6.769   0.066   4.460  1.7233  1.4876  1.8176
13116TIP3   OH260838   5.874   4.424   6.001 -0.3750 -0.1697 -0.1354
13116TIP3    H160839   5.906   4.481   6.070  0.6600  0.8670 -1.4159
13116TIP3    H260840   5.861   4.481   5.926 -0.2184 -1.4490 -1.1837
13117TIP3   OH260841   5.397   6.102  13.392  0.2016  0.3982 -0.0190
13117TIP3    H160842   5.332   6.064  13.333  0.3091  1.5426 -0.9086
13117TIP3    H260843   5.480   6.062  13.365 -0.0310 -0.6474  0.7555
13118TIP3   OH260844   1.961   1.738  13.573  0.1585  0.2585 -0.1392
13118TIP3    H160845   2.039   1.691  13.547 -0.8135 -0.6930 -1.4732
13118TIP3    H260846   1.929   1.779  13.492  1.2071  3.7241  1.0044
13119TIP3   OH260847   0.381   5.699   4.101 -0.9291  0.6491 -0.2066
13119TIP3    H160848   0.466   5.701   4.145 -0.6381 -1.6458 -0.5393
13119TIP3    H260849   0.391   5.758   4.027 -0.5696  2.5117  1.2459
13120TIP3   OH260850   4.947   3.592  14.010 -0.0973 -0.1052  0.1081
13120TIP3    H160851   4.862   3.636  14.002  0.8527  1.4937 -2.0106
13120TIP3    H260852   4.928   3.500  13.990 -1.3647  0.1700 -0.0221
13121TIP3   OH260853   4.841   1.507  12.615  0.1166 -0.2844  0.3141
13121TIP3    H160854   4.770   1.451  12.584  0.8334  0.0686 -2.2244
13121TIP3    H260855   4.917   1.448  12.618 -0.1455 -0.5661  2.6061
13122TIP3   OH260856   5.709   3.653   3.392  0.1747  0.0002 -0.1482
13122TIP3    H160857   5.702   3.595   3.316  1.5864  0.8044 -0.9382
13122TIP3    H260858   5.771   3.609   3.450 -0.6505 -0.4528  0.4078
13123TIP3   OH260859   5.747   3.058   0.696  0.2117 -0.0186 -0.0153
13123TIP3    H160860   5.833   3.020   0.678 -0.1301 -1.1398  0.6027
13123TIP3    H260861   5.752   3.146   0.660  1.0219 -0.6593 -1.5650
13124TIP3   OH260862   5.417   0.385   3.559  0.3952  0.1210  0.3224
13124TIP3    H160863   5.330   0.391   3.597  0.7775  0.7426  1.1323
13124TIP3    H260864   5.444   0.476   3.546  1.3646 -0.0168  1.1631
13125TIP3   OH260865   2.869   1.756   1.835  0.3467 -1.1773  0.4892
13125TIP3    H160866   2.792   1.728   1.785  0.7175 -2.5794  0.6595
13125TIP3    H260867   2.911   1.674   1.862  1.5425 -0.4333  0.9542
13126TIP3   OH260868   4.772   2.975   2.291 -0.1159 -0.4803 -0.3064
13126TIP3    H160869   4.772   2.964   2.386  2.4233  0.0342 -0.1960
13126TIP3    H260870   4.862   2.997   2.268 -1.0105  1.1816 -2.6495
13127TIP3   OH260871   2.851   5.334  12.646 -0.0698 -0.4836  0.9427
13127TIP3    H160872   2.920   5.332  12.712  0.9897 -0.7093 -0.1342
13127TIP3    H260873   2.863   5.418  12.601 -0.7020 -0.3841  0.9480
13128TIP3   OH260874   4.374   2.489   2.427 -0.4398  0.1244 -0.2581
13128TIP3    H160875   4.466   2.479   2.402 -0.5183 -0.0455 -0.4800
13128TIP3    H260876   4.331   2.522   2.348 -0.5043  0.5424 -0.0511
13129TIP3   OH260877   6.841   6.356  12.066  0.3628  0.4066 -0.0240
13129TIP3    H160878   6.787   6.334  11.990  0.8207  0.5644 -0.3991
13129TIP3    H260879   6.900   6.280  12.075  1.2768  1.0100 -0.7128
13130TIP3   OH260880   1.808   6.757   0.267  0.8398  0.4125  0.6369
13130TIP3    H160881   1.739   6.806   0.312 -1.6308 -1.7804 -0.4412
13130TIP3    H260882   1.849   6.821   0.209 -1.6474  1.4816 -0.1100
13131TIP3   OH260883   0.100   6.056   6.465 -0.7178  0.7155  0.0051
13131TIP3    H160884   0.075   6.127   6.524 -0.5577 -1.0459  2.3157
13131TIP3    H260885   0.025   5.997   6.465 -0.0772 -0.1127 -0.2482
13132TIP3   OH260886   1.871   2.059   3.620  0.2228 -0.0914 -0.6447
13132TIP3    H160887   1.835   2.050   3.708 -0.2274 -0.3720 -0.8508
13132TIP3    H260888   1.899   1.971   3.596  0.6985  0.0561 -0.6329
13133TIP3   OH260889   2.845   3.076   1.740 -0.6841  0.1823 -0.2588
13133TIP3    H160890   2.873   3.166   1.720 -0.1805 -0.4384 -2.6797
13133TIP3    H260891   2.927   3.031   1.761 -0.5915 -0.2707 -1.5361
13134TIP3   OH260892   5.329   4.246  15.242 -0.3667 -0.1360 -1.0130
13134TIP3    H160893   5.294   4.309  15.179 -2.5399 -0.2990 -0.0522
13134TIP3    H260894   5.323   4.291  15.327 -0.5750 -1.0897 -0.5076
13135TIP3   OH260895   3.214   3.884  11.796 -0.1038 -0.7985 -0.6469
13135TIP3    H160896   3.133   3.928  11.821  0.1381 -1.1864  0.9744
13135TIP3    H260897   3.186   3.808  11.745 -0.6269  0.1071 -1.7529
13136TIP3   OH260898   2.019   2.147   1.965 -0.5350  0.2416  0.1279
13136TIP3    H160899   2.100   2.105   1.937  0.5295  2.3011 -0.0916
13136TIP3    H260900   1.975   2.170   1.884 -1.4046 -0.9499  0.2484
13137TIP3   OH260901   6.069   0.023   3.429 -0.5379 -0.0919  0.0242
13137TIP3    H160902   6.113   0.107   3.425  0.7213 -0.7003  0.5635
13137TIP3    H260903   5.992   0.038   3.483 -1.6472  1.2486 -1.8151
13138TIP3   OH260904   5.027   1.831   3.267  0.8471  0.0035 -0.6436
13138TIP3    H160905   4.940   1.865   3.244  0.9242  1.3956  0.9185
13138TIP3    H260906   5.061   1.794   3.186 -1.1741 -0.5224 -1.3090
13139TIP3   OH260907   0.132   2.613   4.605  0.1112  0.5527 -0.0377
13139TIP3    H160908   0.215   2.656   4.622  1.1656 -0.3967 -2.3054
13139TIP3    H260909   0.122   2.617   4.509 -2.5703  0.8120  0.1620
13140TIP3   OH260910   5.825   3.328  11.210  0.0930 -0.3972 -0.3341
13140TIP3    H160911   5.775   3.410  11.209 -0.9136 -0.9713 -2.3227
13140TIP3    H260912   5.908   3.351  11.167  0.1420 -0.2460 -0.1625
13141TIP3   OH260913   6.366   5.845  14.521  0.0741 -0.2683  0.5009
13141TIP3    H160914   6.304   5.782  14.484 -2.1644  1.5559  0.8883
13141TIP3    H260915   6.452   5.807  14.504 -0.8592 -0.9900 -4.0005
13142TIP3   OH260916   0.802   5.816   1.822  0.2536  0.1308 -0.1015
13142TIP3    H160917   0.856   5.885   1.861 -0.1405 -0.0882  0.8778
13142TIP3    H260918   0.793   5.751   1.892 -1.3253  0.1983 -0.1968
13143TIP3   OH260919   3.835   5.730  15.524 -0.4295 -0.3273  0.3190
13143TIP3    H160920   3.867   5.653  15.571  0.1088 -0.9025 -0.9369
13143TIP3    H260921   3.740   5.722  15.528 -0.3838 -1.0778  0.1975
13144TIP3   OH260922   4.568   5.227  15.659 -0.2109  0.3278 -0.2393
13144TIP3    H160923   4.662   5.243  15.651 -0.0686  0.0478  0.6962
13144TIP3    H260924   4.527   5.300  15.613  0.4663  1.2956  0.6355
13145TIP3   OH260925   0.771   1.963   0.559  0.1635 -0.5319 -0.5028
13145TIP3    H160926   0.753   1.881   0.514  1.7716 -0.3349 -1.5450
13145TIP3    H260927   0.685   2.005   0.567 -0.8838 -2.7267  1.0014
13146TIP3   OH260928   4.468   2.219  14.379 -0.0536 -0.0419 -0.0585
13146TIP3    H160929   4.455   2.192  14.289  1.0575 -0.7299 -0.0325
13146TIP3    H260930   4.563   2.212  14.393 -0.1050  0.8535  0.9110
13147TIP3   OH260931   2.338   6.694   6.284 -0.4384  0.6413  0.2297
13147TIP3    H160932   2.256   6.655   6.312 -0.3169 -1.5021 -2.1322
13147TIP3    H260933   2.393   6.620   6.258  2.5361  1.9375  2.2514
13148TIP3   OH260934   0.947   6.353   4.366 -0.5039  0.1612 -0.7432
13148TIP3    H160935   0.859   6.325   4.389 -0.2512 -0.9296 -1.0647
13148TIP3    H260936   1.005   6.287   4.403  0.2907  1.5157  0.5494
13149TIP3   OH260937   0.286   4.379  14.334  0.4820  0.3288 -0.0798
13149TIP3    H160938   0.355   4.339  14.282 -0.5946 -0.2999 -1.0906
13149TIP3    H260939   0.227   4.306  14.355 -0.1378  0.9283  0.3306
13150TIP3   OH260940   3.197   4.494  12.105 -0.4391  0.0301 -0.2759
13150TIP3    H160941   3.157   4.408  12.092  0.5088 -0.1132 -2.7285
13150TIP3    H260942   3.188   4.538  12.020 -0.6363  2.2646  0.8281
13151TIP3   OH260943   2.528   5.590  14.801  0.4376 -0.6955 -0.1192
13151TIP3    H160944   2.607   5.642  14.786  1.1840 -1.5600  0.7131
13151TIP3    H260945   2.459   5.639  14.756  0.9427  1.4722  1.3050
13152TIP3   OH260946   4.447   4.086   6.729 -0.1794  0.1686 -0.2704
13152TIP3    H160947   4.515   4.153   6.732  0.6182 -0.6705  2.1352
13152TIP3    H260948   4.367   4.135   6.709  0.3699  1.8775  1.3938
13153TIP3   OH260949   1.433   4.593   4.040 -0.8416 -0.4113  0.2756
13153TIP3    H160950   1.351   4.590   4.089 -0.3449 -1.0621  1.1022
13153TIP3    H260951   1.500   4.605   4.107 -0.3411  1.3943 -0.4920
13154TIP3   OH260952   4.289   5.696  12.820  0.2078 -0.0579  0.4135
13154TIP3    H160953   4.194   5.709  12.831 -0.1180 -1.9548  0.2155
13154TIP3    H260954   4.297   5.607  12.785  2.0857 -0.0001  0.5995
13155TIP3   OH260955   6.738   3.043  13.816 -0.6756 -0.0737 -0.2432
13155TIP3    H160956   6.734   2.952  13.788 -1.3467 -0.2047  0.2699
13155TIP3    H260957   6.821   3.050  13.864 -0.4838 -0.3348 -0.5285
13156TIP3   OH260958   2.870   6.727   3.774  0.6915  0.2788 -0.1119
13156TIP3    H160959   2.883   6.638   3.808  0.6230  0.3759  0.1678
13156TIP3    H260960   2.857   6.781   3.852  0.4864  0.4938 -0.2951
13157TIP3   OH260961   6.580   2.856   4.569 -0.3535  0.1754 -0.2315
13157TIP3    H160962   6.618   2.797   4.634 -2.8815  0.0393  1.2600
13157TIP3    H260963   6.625   2.940   4.583  0.0493 -0.1976  0.7901
13158TIP3   OH260964   6.627   5.953   3.473  0.4702  0.3257  0.3676
13158TIP3    H160965   6.566   5.891   3.514 -1.1507  1.3906 -0.3214
13158TIP3    H260966   6.711   5.907   3.473 -0.5679 -1.7186  0.2328
13159TIP3   OH260967   1.216   5.360   3.401  0.3081 -0.0849  0.4085
13159TIP3    H160968   1.148   5.417   3.367 -0.7644 -0.9330  1.0559
13159TIP3    H260969   1.178   5.272   3.396  1.4027 -0.5916  0.6732
13160TIP3   OH260970   2.485   5.990  15.442  0.1677 -0.3056 -0.1052
13160TIP3    H160971   2.458   6.000  15.351  0.3874  0.0338 -0.1331
13160TIP3    H260972   2.495   6.079  15.474 -0.6411 -0.4180  0.4696
13161TIP3   OH260973   1.875   2.927   0.629 -0.2417  0.2955  0.0607
13161TIP3    H160974   1.874   2.875   0.709 -3.6134 -0.5239 -0.3539
13161TIP3    H260975   1.911   2.869   0.562 -0.3007 -0.1030  0.3742
13162TIP3   OH260976   4.165   3.335  13.261 -0.0905 -0.4192  0.8410
13162TIP3    H160977   4.229   3.400  13.230 -1.7922  0.6206 -0.7198
13162TIP3    H260978   4.141   3.366  13.348 -0.8210  1.0996  0.1557
13163TIP3   OH260979   5.400   6.123   5.574 -0.5932  0.3050 -0.0549
13163TIP3    H160980   5.346   6.159   5.644 -1.0115  0.4156 -0.4302
13163TIP3    H260981   5.460   6.063   5.618  0.6481  2.0138  0.7009
13164TIP3   OH260982   1.650   5.176  15.846 -0.5299 -0.3186 -0.2322
13164TIP3    H160983   1.621   5.131  15.767  0.5359 -1.6846  0.1011
13164TIP3    H260984   1.571   5.188  15.898 -1.2184  0.4792 -1.4306
13165TIP3   OH260985   6.719   2.992   5.251 -0.3555  0.0241 -0.1064
13165TIP3    H160986   6.644   2.933   5.242 -0.1842 -0.3099  0.5454
13165TIP3    H260987   6.768   2.983   5.170  0.6471 -2.1183  0.6689
13166TIP3   OH260988   3.577   0.820   2.171 -0.1012 -0.4237 -0.2677
13166TIP3    H160989   3.555   0.911   2.192  1.2906  0.0484 -0.7662
13166TIP3    H260990   3.525   0.769   2.233 -3.6542  0.4963 -2.2430
13167TIP3   OH260991   1.127   0.139   2.651 -0.4511 -0.9750  0.3769
13167TIP3    H160992   1.150   0.088   2.572  1.3777 -0.3494  0.4523
13167TIP3    H260993   1.038   0.112   2.671 -0.9663 -1.2044 -1.8787
13168TIP3   OH260994   5.410   2.760  16.089  0.1048  0.6606  0.7544
13168TIP3    H160995   5.366   2.695  16.144  1.0738 -1.6142 -0.9869
13168TIP3    H260996   5.347   2.782  16.021  0.8886 -1.1058 -0.6060
13169TIP3   OH260997   1.685   5.037  12.273 -0.0985  0.1042 -0.0716
13169TIP3    H160998   1.662   4.995  12.356 -0.5816  1.7898  0.6859
13169TIP3    H260999   1.601   5.045  12.227 -0.3649  1.9495  0.6450
13170TIP3   OH261000   0.693   2.979  12.338  0.5778 -0.4778 -0.1138
13170TIP3    H161001   0.628   3.012  12.277 -0.0175  1.4692  1.4503
13170TIP3    H261002   0.678   2.885  12.341 -1.3772 -0.2322 -0.6971
13171TIP3   OH261003   6.847   0.053   0.677  0.0739  0.0556 -0.2407
13171TIP3    H161004   6.918   0.049   0.741  0.1622 -0.7712 -0.3732
13171TIP3    H261005   6.775   0.097   0.723 -0.2001 -1.3884  0.7736
13172TIP3   OH261006   3.271   6.488   2.920 -0.3116 -1.2695  0.3415
13172TIP3    H161007   3.179   6.515   2.920 -0.9115 -3.1813  0.5367
13172TIP3    H261008   3.312   6.544   2.854 -2.3249 -2.4852 -2.1370
13173TIP3   OH261009   1.414   6.614  15.421 -0.1166 -0.4836 -0.0569
13173TIP3    H161010   1.339   6.656  15.378 -0.2186  0.8672  1.3652
13173TIP3    H261011   1.377   6.538  15.465 -0.2661 -1.0114 -1.0477
13174TIP3   OH261012   5.972   6.380   1.601 -0.3724 -0.2755 -0.1000
13174TIP3    H161013   5.908   6.334   1.655 -2.6472  1.6738 -0.9445
13174TIP3    H261014   6.010   6.312   1.545 -0.1432 -1.8237  1.8301
13175TIP3   OH261015   6.461   0.503  13.028  0.6009 -0.7654 -0.3119
13175TIP3    H161016   6.498   0.516  13.116 -1.4624  0.2290  0.4754
13175TIP3    H261017   6.473   0.587  12.984 -1.8978  0.1139  0.4935
13176TIP3   OH261018   3.138   4.142   0.411  0.3180  0.3025  0.0098
13176TIP3    H161019   3.210   4.195   0.376  1.4692 -1.4666 -0.4099
13176TIP3    H261020   3.176   4.055   0.423 -1.3189 -0.2702  1.3738
13177TIP3   OH261021   4.255   4.638  15.869 -0.0023 -0.2172  0.0845
13177TIP3    H161022   4.344   4.631  15.903  0.2216  1.1205 -0.1740
13177TIP3    H261023   4.259   4.594  15.784  0.0529 -1.3513  0.6452
13178TIP3   OH261024   4.793   5.102   1.530 -0.3772 -0.4708 -0.0271
13178TIP3    H161025   4.862   5.036   1.526 -0.2009 -0.2321 -1.6894
13178TIP3    H261026   4.714   5.056   1.500 -0.5603 -0.2807  0.1606
13179TIP3   OH261027   2.784   4.635   5.877 -0.5866 -0.1607  0.3305
13179TIP3    H161028   2.865   4.585   5.866 -1.1748 -0.7571 -1.9279
13179TIP3    H261029   2.714   4.570   5.868 -1.3465  0.6637  0.0848
13180TIP3   OH261030   3.304   5.765   3.519  0.1000 -0.3363  0.4264
13180TIP3    H161031   3.395   5.788   3.500  0.5689 -2.3836 -0.0238
13180TIP3    H261032   3.301   5.760   3.615 -0.2136  2.0696  0.6209
13181TIP3   OH261033   5.242   2.911   2.834 -0.2578 -0.5410  0.6469
13181TIP3    H161034   5.322   2.864   2.856  0.8688  1.5109  1.2361
13181TIP3    H261035   5.255   2.942   2.744 -0.2194  0.0657  0.8516
13182TIP3   OH261036   3.477   0.741   6.492  0.1658  0.1762 -0.2837
13182TIP3    H161037   3.567   0.775   6.493  0.2385  0.0020  1.1357
13182TIP3    H261038   3.482   0.661   6.440  0.8536  0.1374 -0.1699
13183TIP3   OH261039   3.765   1.811   5.919 -0.1122  0.6945 -0.5849
13183TIP3    H161040   3.828   1.858   5.865 -0.1751 -0.4097 -1.6711
13183TIP3    H261041   3.713   1.879   5.960  0.3346  1.5836 -1.4543
13184TIP3   OH261042   3.553   5.510   2.387 -0.4839  0.2513  0.0865
13184TIP3    H161043   3.649   5.507   2.389 -0.3715  2.0569 -0.8153
13184TIP3    H261044   3.530   5.465   2.305 -0.3619  0.5901 -0.1328
13185TIP3   OH261045   0.486   0.403  12.995 -0.2585 -0.6106  0.0090
13185TIP3    H161046   0.534   0.482  13.023  0.1367 -0.1179 -1.9229
13185TIP3    H261047   0.546   0.331  13.014  1.1220 -0.0505 -1.8914
13186TIP3   OH261048   2.417   5.427   0.542  0.4974  0.2626 -0.2972
13186TIP3    H161049   2.364   5.487   0.594  0.7532  1.8971 -1.8605
13186TIP3    H261050   2.369   5.344   0.545 -1.2539  1.2301 -0.2588
13187TIP3   OH261051   2.113   6.513   3.098  0.1630  0.0887  0.7366
13187TIP3    H161052   2.180   6.444   3.099  0.6963  0.5705 -0.0598
13187TIP3    H261053   2.101   6.536   3.190  0.1379 -0.9053  0.9927
13188TIP3   OH261054   2.828   5.321   5.195  0.3521 -0.0308  0.0048
13188TIP3    H161055   2.921   5.300   5.188  0.3400 -0.1088  0.0822
13188TIP3    H261056   2.787   5.272   5.123  0.2376 -0.7730  0.5629
13189TIP3   OH261057   0.417   1.987   1.863  0.1186 -0.1749 -0.4182
13189TIP3    H161058   0.398   2.048   1.792  1.2347  0.5993 -0.0838
13189TIP3    H261059   0.333   1.977   1.909  0.0149  1.5742 -0.1387
13190TIP3   OH261060   5.682   3.107  13.589  0.2692  0.1520 -0.2553
13190TIP3    H161061   5.601   3.156  13.572 -1.3734 -2.0354  0.7439
13190TIP3    H261062   5.673   3.027  13.538  0.9891 -0.8756  1.1482
13191TIP3   OH261063   4.079   0.647  13.997  0.4364  0.1137 -0.1512
13191TIP3    H161064   4.166   0.632  13.962  0.1512 -1.0563 -0.3894
13191TIP3    H261065   4.071   0.586  14.070 -0.5759 -0.6059 -0.8324
13192TIP3   OH261066   5.474   0.427  15.293  0.2312 -0.6298 -0.0066
13192TIP3    H161067   5.411   0.439  15.364  0.8602  0.9347  0.3172
13192TIP3    H261068   5.492   0.333  15.294 -0.2226 -0.7376  1.5302
13193TIP3   OH261069   6.795   3.904   1.603  0.1945  0.0948 -0.6556
13193TIP3    H161070   6.773   3.812   1.614  0.8167 -0.1483 -1.3591
13193TIP3    H261071   6.798   3.939   1.692  1.2442 -0.8772 -0.2920
13194TIP3   OH261072   3.434   4.484  13.332  0.3994  0.6623 -0.3971
13194TIP3    H161073   3.520   4.524  13.345 -0.9141  3.4240  0.6684
13194TIP3    H261074   3.424   4.423  13.405  0.6975  1.8018  0.6292
13195TIP3   OH261075   3.647   5.714   4.047  0.1961  0.4423  0.1253
13195TIP3    H161076   3.739   5.724   4.025 -0.2043 -0.2465 -2.0652
13195TIP3    H261077   3.632   5.779   4.116  2.6613 -0.5669  1.7464
13196TIP3   OH261078   2.038   0.681   2.752 -0.0883  0.4688 -0.4787
13196TIP3    H161079   2.098   0.606   2.745 -1.2042 -0.6617  1.3041
13196TIP3    H261080   2.082   0.741   2.813 -0.3012  0.1100  0.0320
13197TIP3   OH261081   4.858   4.209  14.640 -0.5221 -0.5925 -0.3165
13197TIP3    H161082   4.785   4.159  14.676 -2.5908  1.0890 -1.8683
13197TIP3    H261083   4.836   4.300  14.659  2.8630 -0.0764  1.9738
13198TIP3   OH261084   4.398   1.233   1.622  0.0616 -0.1665  0.2133
13198TIP3    H161085   4.313   1.194   1.599 -0.2122  0.9638 -0.8064
13198TIP3    H261086   4.463   1.179   1.577 -0.2986  0.3927 -1.0271
13199TIP3   OH261087   3.832   3.048   5.375 -0.4258  0.7395  0.7574
13199TIP3    H161088   3.914   3.077   5.415 -0.7041  0.8748  1.2379
13199TIP3    H261089   3.765   3.101   5.418 -0.7332  0.8723  0.1205
13200TIP3   OH261090   5.536   3.456  16.548 -0.3799 -0.2044 -0.4703
13200TIP3    H161091   5.471   3.391  16.572 -1.1839  0.5723 -0.4978
13200TIP3    H261092   5.491   3.514  16.487  0.5747 -0.1018 -1.1006
13201TIP3   OH261093   4.250   2.139  13.248  0.1836 -0.3096 -0.4150
13201TIP3    H161094   4.283   2.065  13.196  1.2318  0.0887 -0.3358
13201TIP3    H261095   4.209   2.098  13.324 -1.1254 -0.8905 -1.3916
13202TIP3   OH261096   5.697   6.520  15.481 -0.1819 -0.1230 -0.3326
13202TIP3    H161097   5.755   6.584  15.440 -1.4615  0.3885 -1.3972
13202TIP3    H261098   5.655   6.476  15.408 -0.3421 -1.2444  0.4143
13203TIP3   OH261099   3.789   4.838  12.200  0.1749 -0.6616 -0.2826
13203TIP3    H161100   3.879   4.822  12.228 -0.6606 -0.0704  3.1719
13203TIP3    H261101   3.756   4.905  12.260 -1.2693  2.5975 -4.2676
13204TIP3   OH261102   2.095   2.039  11.761  0.3077  0.3286  0.1228
13204TIP3    H161103   2.167   2.008  11.707  0.3419 -1.0012  0.8757
13204TIP3    H261104   2.018   2.034  11.705  0.2138 -1.7279  0.3340
13205TIP3   OH261105   6.120   0.879   1.796 -0.1297 -0.1685  0.2899
13205TIP3    H161106   6.211   0.857   1.777  0.2832  0.0878  1.8931
13205TIP3    H261107   6.101   0.952   1.737  0.6530 -0.3168 -0.1596
13206TIP3   OH261108   5.964   2.064   2.383 -0.1760 -0.0907 -0.3728
13206TIP3    H161109   5.976   1.981   2.337  1.3546 -0.3884  0.4797
13206TIP3    H261110   6.033   2.064   2.450  0.3309  2.1929 -0.8134
13207TIP3   OH261111   2.782   3.106   4.274  0.1363 -0.4958  0.1425
13207TIP3    H161112   2.749   3.022   4.306  0.4569 -0.3009  0.9943
13207TIP3    H261113   2.798   3.090   4.180 -0.8227 -1.0602  0.0594
13208TIP3   OH261114   4.723   3.077  13.446  0.3776  0.5439  0.3898
13208TIP3    H161115   4.631   3.057  13.462  0.2048  0.2130 -0.8961
13208TIP3    H261116   4.754   3.117  13.528 -1.1027  1.3611  0.5786
13209TIP3   OH261117   0.520   5.533   1.905 -0.5636 -0.1450  0.2957
13209TIP3    H161118   0.474   5.608   1.869 -1.6950 -1.5945 -1.4152
13209TIP3    H261119   0.454   5.488   1.959  0.2379  0.3131  1.7066
13210TIP3   OH261120   3.978   4.388  16.419 -0.0317 -0.1234  0.3698
13210TIP3    H161121   3.966   4.461  16.480  1.6355 -0.9527  1.7700
13210TIP3    H261122   4.022   4.426  16.343 -0.0033  0.4951  0.6928
13211TIP3   OH261123   3.170   4.704   3.636  0.6239  0.4086 -0.1480
13211TIP3    H161124   3.188   4.640   3.706  0.4013  1.9367  1.3573
13211TIP3    H261125   3.076   4.696   3.620  0.5422  0.5695  0.2470
13212TIP3   OH261126   2.624   1.452  13.767 -0.5301  0.0411 -0.7481
13212TIP3    H161127   2.533   1.480  13.756 -1.2644 -2.0296 -0.3209
13212TIP3    H261128   2.633   1.375  13.710  0.4630 -0.7644  0.4363
13213TIP3   OH261129   4.166   1.003  14.727 -0.1032  0.9171 -0.0519
13213TIP3    H161130   4.210   0.921  14.749 -1.8083 -0.4191 -1.3215
13213TIP3    H261131   4.231   1.053  14.678  0.1561 -0.8645 -1.6171
13214TIP3   OH261132   4.080   5.919   2.684  0.1188 -0.4350 -0.6176
13214TIP3    H161133   4.021   5.847   2.660 -1.2998  0.2942  0.5217
13214TIP3    H261134   4.151   5.876   2.733  0.2844 -1.2676 -1.5601
13215TIP3   OH261135   0.515   2.470   2.138  0.3088 -0.3647  0.0428
13215TIP3    H161136   0.474   2.472   2.051 -0.5965 -0.3796  0.4543
13215TIP3    H261137   0.470   2.539   2.187  1.3183  0.1367  0.2915
13216TIP3   OH261138   5.921   0.649   0.479  0.9854 -0.0324 -0.2029
13216TIP3    H161139   5.986   0.643   0.549  1.7461 -1.8845 -0.9916
13216TIP3    H261140   5.837   0.642   0.524  1.4677 -3.5235  0.5001
13217TIP3   OH261141   4.707   1.937   3.928  0.2082  0.9425 -0.4879
13217TIP3    H161142   4.707   2.021   3.975 -1.0907  0.6712  0.0375
13217TIP3    H261143   4.696   1.871   3.996 -1.3476  0.5183 -1.1102
13218TIP3   OH261144   3.002   1.675  12.978  1.1652 -0.4535 -0.2520
13218TIP3    H161145   3.044   1.654  13.061 -1.5127  0.7671  1.5656
13218TIP3    H261146   2.955   1.595  12.954 -0.2528 -0.0280  0.9328
13219TIP3   OH261147   5.730   6.631   5.397  0.4682 -0.3050  0.6681
13219TIP3    H161148   5.723   6.535   5.390 -0.4489 -0.1450 -1.1090
13219TIP3    H261149   5.661   6.664   5.340  1.8301  1.4223 -0.0617
13220TIP3   OH261150   5.823   2.533  16.699  0.0396 -0.0280  0.1507
13220TIP3    H161151   5.842   2.473  16.627 -0.3833  1.7462 -1.5250
13220TIP3    H261152   5.908   2.568  16.725  0.3946 -1.8700  1.7094
13221TIP3   OH261153   6.396   3.004  15.008 -0.3331  0.3202 -0.1805
13221TIP3    H161154   6.341   3.072  15.047  1.1487  0.8052  1.1635
13221TIP3    H261155   6.460   3.052  14.956 -1.6723 -0.2843 -2.5406
13222TIP3   OH261156   3.144   6.355  16.851 -0.0007 -0.2021 -0.2097
13222TIP3    H161157   3.194   6.307  16.916 -1.3633  0.5872  1.4899
13222TIP3    H261158   3.068   6.299  16.833 -0.9551  0.7199  0.8485
13223TIP3   OH261159   6.454   5.585  14.950 -0.4067  0.0299 -0.0754
13223TIP3    H161160   6.455   5.582  15.046  0.0558  0.9573 -0.0375
13223TIP3    H261161   6.453   5.678  14.929  0.5010 -0.1412 -0.9733
13224TIP3   OH261162   3.151   6.486  14.382 -0.4196  0.0848  0.8455
13224TIP3    H161163   3.176   6.432  14.457 -0.6984 -0.7019  0.3910
13224TIP3    H261164   3.133   6.422  14.312 -1.1902  0.7511  0.4186
13225TIP3   OH261165   2.088   1.066  13.638 -0.0791 -0.1312  0.4898
13225TIP3    H161166   2.005   1.109  13.659 -1.3186 -0.5194 -3.0394
13225TIP3    H261167   2.123   1.040  13.724 -3.3268  0.4721  2.1748
13226TIP3   OH261168   4.717   4.677   1.411 -0.2077  0.8336 -0.2591
13226TIP3    H161169   4.652   4.611   1.389  0.0350  0.7809 -0.8219
13226TIP3    H261170   4.666   4.749   1.448 -0.3791 -0.0965  1.4173
13227TIP3   OH261171   0.818   4.077  16.270 -0.1000 -0.0606 -0.0679
13227TIP3    H161172   0.837   4.131  16.193 -0.7107 -1.0767 -0.9535
13227TIP3    H261173   0.752   4.015  16.240  0.5156 -1.2449  0.9517
13228TIP3   OH261174   0.537   6.723  14.645  0.0293 -0.1503 -0.2047
13228TIP3    H161175   0.484   6.690  14.718  0.2841 -1.0532 -0.4159
13228TIP3    H261176   0.564   6.644  14.597  3.1083  0.0571  0.9469
13229TIP3   OH261177   4.678   1.301   2.595  0.5647  0.2165  0.6032
13229TIP3    H161178   4.699   1.324   2.685  1.8271  2.2238 -0.1351
13229TIP3    H261179   4.756   1.258   2.562  0.5976  0.6399  0.1122
13230TIP3   OH261180   1.652   1.056   2.010 -0.0287  0.3544  0.3638
13230TIP3    H161181   1.715   0.997   1.969 -0.1233  0.3675  0.1994
13230TIP3    H261182   1.666   1.044   2.104  0.5790  0.7355  0.3300
13231TIP3   OH261183   2.080   6.639  12.575 -0.1123 -0.5718  0.5893
13231TIP3    H161184   2.134   6.563  12.552 -1.7027 -1.4329 -0.5458
13231TIP3    H261185   2.135   6.715  12.555  0.6064 -1.4077 -0.7917
13232TIP3   OH261186   4.737   5.758  13.713 -0.3965 -0.4556 -0.4441
13232TIP3    H161187   4.653   5.804  13.713 -0.3333 -0.3396 -0.6128
13232TIP3    H261188   4.754   5.739  13.805 -0.0644  0.5090 -0.2948
13233TIP3   OH261189   2.836   5.629   1.976 -0.4214 -0.3445 -0.6916
13233TIP3    H161190   2.747   5.659   1.993 -0.3298 -0.6730  0.4223
13233TIP3    H261191   2.826   5.536   1.956 -0.4385 -0.1366 -1.7264
13234TIP3   OH261192   2.218   1.171   0.727  0.2812  0.5738 -0.4234
13234TIP3    H161193   2.160   1.103   0.762 -0.2548  1.1124 -0.2648
13234TIP3    H261194   2.287   1.122   0.683  0.6231 -0.1194  0.8145
13235TIP3   OH261195   4.935   2.611  10.697 -0.5607 -0.2583 -0.3198
13235TIP3    H161196   4.886   2.693  10.705  1.2163  0.7755  0.5546
13235TIP3    H261197   4.960   2.608  10.605 -1.4847 -0.3567 -0.5817
13236TIP3   OH261198   1.926   0.984  16.099 -0.3384  0.1921 -0.1152
13236TIP3    H161199   1.952   1.068  16.063  1.6400 -0.2595  0.1226
13236TIP3    H261200   1.938   0.993  16.193 -3.9357  0.8494  0.4186
13237TIP3   OH261201   2.825   5.089  11.546  0.6900  0.4270  0.2367
13237TIP3    H161202   2.773   5.009  11.531  0.9072  0.1849  0.7410
13237TIP3    H261203   2.902   5.059  11.594  0.0793  1.1291  1.7246
13238TIP3   OH261204   0.209   1.213   4.088 -0.0048  0.3277 -0.1051
13238TIP3    H161205   0.166   1.298   4.078 -1.9247 -0.7159 -1.3234
13238TIP3    H261206   0.240   1.191   4.001 -0.6649 -0.7513 -0.0920
13239TIP3   OH261207   1.924   3.629   6.045 -0.1985  0.3521 -0.2971
13239TIP3    H161208   1.883   3.670   5.969 -1.5333  1.8846  1.1715
13239TIP3    H261209   1.985   3.695   6.078  1.2015 -0.7268 -0.6564
13240TIP3   OH261210   6.793   3.477  15.842 -0.0578 -0.3313 -0.4509
13240TIP3    H161211   6.796   3.446  15.932  1.1943  0.7281 -0.0874
13240TIP3    H261212   6.876   3.447  15.804  0.0555  0.4210 -0.8160
13241TIP3   OH261213   0.882   3.043  15.898  0.7497 -0.1228  0.5628
13241TIP3    H161214   0.839   3.026  15.982  1.0676  0.4491  0.8502
13241TIP3    H261215   0.862   3.134  15.878 -0.5698 -0.6546 -0.7452
13242TIP3   OH261216   0.638   3.716  16.666 -0.2136  0.2737 -0.3662
13242TIP3    H161217   0.660   3.773  16.740  2.8393 -0.6085 -0.4699
13242TIP3    H261218   0.621   3.776  16.593  2.6001  1.1514 -0.3877
13243TIP3   OH261219   6.764   4.093   2.781 -0.3142 -0.9501 -0.1746
13243TIP3    H161220   6.694   4.155   2.800  2.2180  2.2063 -0.3266
13243TIP3    H261221   6.766   4.090   2.685  2.1525  2.2778 -0.4083
13244TIP3   OH261222   1.900   0.641  12.701 -0.4298 -0.5909  0.2181
13244TIP3    H161223   1.813   0.675  12.722 -0.0802 -0.4203  1.4721
13244TIP3    H261224   1.905   0.557  12.746 -0.3011 -1.0813 -0.6837
13245TIP3   OH261225   4.650   1.810  15.786  0.1607 -0.1610  0.3154
13245TIP3    H161226   4.709   1.738  15.809 -0.2347 -0.4930  0.2982
13245TIP3    H261227   4.564   1.769  15.779 -0.1349  0.3897  0.7173
13246TIP3   OH261228   5.333   4.426   3.921  0.1466 -0.7313 -0.1866
13246TIP3    H161229   5.262   4.439   3.857  0.0501  0.2821  0.1187
13246TIP3    H261230   5.360   4.514   3.945 -0.4000 -1.0604  1.8262
13247TIP3   OH261231   6.434   3.308   3.852  0.1547  0.0404  0.3252
13247TIP3    H161232   6.454   3.402   3.847  0.3777  0.0330  0.9936
13247TIP3    H261233   6.510   3.265   3.814 -0.7870  0.1782 -1.8725
13248TIP3   OH261234   3.071   2.771  16.632 -0.0120  0.7231  0.3145
13248TIP3    H161235   3.055   2.848  16.578 -1.6989  0.2153  0.0547
13248TIP3    H261236   3.157   2.739  16.602 -0.5262  0.9257 -1.5035
13249TIP3   OH261237   6.519   3.476  12.303 -0.0659  0.0848 -0.2731
13249TIP3    H161238   6.532   3.560  12.259  1.1183  0.3729  0.5968
13249TIP3    H261239   6.473   3.498  12.384 -1.3296 -0.3277 -0.8496
13250TIP3   OH261240   5.457   1.982   2.897  0.3924  0.4270  0.0952
13250TIP3    H161241   5.428   2.047   2.961  0.9187 -2.0363  3.0723
13250TIP3    H261242   5.377   1.957   2.850 -0.3610  1.0947  0.9808
13251TIP3   OH261243   6.464   4.050  13.989  0.3897 -0.3027  0.8295
13251TIP3    H161244   6.425   4.134  13.967 -2.3837 -1.1113  2.2128
13251TIP3    H261245   6.524   4.032  13.917  0.4926  2.4448  0.1093
13252TIP3   OH261246   4.266   5.753  15.537 -0.9574  0.2391  0.1720
13252TIP3    H161247   4.199   5.719  15.477 -0.3887  0.1265 -0.4046
13252TIP3    H261248   4.228   5.741  15.624 -1.6540  0.1019 -0.1415
13253TIP3   OH261249   0.687   5.290   4.800  0.4825 -0.0024  0.1255
13253TIP3    H161250   0.646   5.232   4.736  2.5968 -0.3451 -1.0061
13253TIP3    H261251   0.745   5.346   4.748  1.1336  0.7307  1.5881
13254TIP3   OH261252   3.929   4.998   0.897  0.2000 -0.0582 -0.7199
13254TIP3    H161253   3.995   4.932   0.920 -1.4105 -1.5733 -0.2408
13254TIP3    H261254   3.972   5.053   0.832  2.6330  0.2662  0.9880
13255TIP3   OH261255   0.599   5.789   0.801  0.1543  0.1888  0.0965
13255TIP3    H161256   0.586   5.782   0.895  1.6286  2.4716  0.5422
13255TIP3    H261257   0.584   5.701   0.768 -1.2520 -0.4802  2.3326
13256TIP3   OH261258   1.308   5.831   1.684  0.4634 -0.1041 -0.1028
13256TIP3    H161259   1.222   5.791   1.671 -0.4365  1.7627 -0.2571
13256TIP3    H261260   1.297   5.922   1.654  1.9920  0.6886  1.5598
13257TIP3   OH261261   0.088   2.316  14.349 -0.7668  0.0868  0.2156
13257TIP3    H161262   0.168   2.368  14.349 -0.0590 -0.9786  0.3953
13257TIP3    H261263   0.030   2.360  14.411 -0.2040  0.6817  0.3268
13258TIP3   OH261264   6.180   1.056   1.183  1.0125  0.1032 -0.3565
13258TIP3    H161265   6.194   1.005   1.103  0.5255 -0.0899 -0.3250
13258TIP3    H261266   6.142   1.138   1.153  2.5817  0.8123 -0.4817
13259TIP3   OH261267   6.443   0.533  10.702  0.0239  1.1943 -0.0252
13259TIP3    H161268   6.406   0.557  10.787  0.6232  2.3284 -0.0650
13259TIP3    H261269   6.400   0.450  10.680 -1.2170  1.6109  0.7013
13260TIP3   OH261270   4.447   6.372  10.978 -0.4241 -0.2310 -0.1184
13260TIP3    H161271   4.387   6.333  10.915 -0.2257  0.5975 -0.8384
13260TIP3    H261272   4.396   6.376  11.060 -0.9195 -0.6850 -0.4013
13261TIP3   OH261273   5.337   1.169   5.936  0.0298  0.2715  0.1567
13261TIP3    H161274   5.340   1.255   5.978  2.9665  0.5531 -0.4381
13261TIP3    H261275   5.332   1.107   6.008 -2.3722  0.8477  0.5887
13262TIP3   OH261276   1.722   5.567   5.179  0.6092  0.0191  0.2056
13262TIP3    H161277   1.687   5.563   5.090 -1.2334  0.3876  0.8786
13262TIP3    H261278   1.697   5.483   5.218  0.9466  0.0764  0.5473
13263TIP3   OH261279   2.861   5.664   1.513 -0.0289  0.8181  0.5571
13263TIP3    H161280   2.872   5.677   1.419  1.6479 -0.9035  0.4508
13263TIP3    H261281   2.782   5.713   1.535  1.1360  3.7976 -1.1642
13264TIP3   OH261282   5.528   2.487  14.759  0.5293 -0.5165 -0.2404
13264TIP3    H161283   5.533   2.485  14.855 -1.1489  1.5799 -0.0334
13264TIP3    H261284   5.477   2.410  14.736  0.8737 -1.0004  0.5575
13265TIP3   OH261285   1.728   0.271   5.669 -0.1636  0.1893  0.1332
13265TIP3    H161286   1.800   0.292   5.610 -0.7205 -1.5710 -1.2750
13265TIP3    H261287   1.653   0.255   5.611 -1.5194  1.2162  1.4995
13266TIP3   OH261288   5.688   2.884   3.441 -0.0684 -0.0163  0.0493
13266TIP3    H161289   5.660   2.876   3.532 -1.2552  1.6173 -0.1308
13266TIP3    H261290   5.616   2.848   3.390 -0.5694  1.4549 -0.3161
13267TIP3   OH261291   4.504   5.717  14.227 -0.1140 -0.3166 -0.0365
13267TIP3    H161292   4.441   5.645  14.232 -0.6871  0.1637 -0.3428
13267TIP3    H261293   4.539   5.724  14.315 -2.0454  0.8020  0.6988
13268TIP3   OH261294   2.533   1.562  12.095  0.4551  0.4958  0.6071
13268TIP3    H161295   2.620   1.602  12.091  0.4836  0.4615  0.8449
13268TIP3    H261296   2.501   1.564  12.005  0.4022  1.1693  0.6318
13269TIP3   OH261297   3.531   2.927  15.578  0.2932  0.8082 -0.0600
13269TIP3    H161298   3.541   2.961  15.489 -1.6180 -0.3720 -0.7917
13269TIP3    H261299   3.568   2.839  15.575 -1.4164  0.0439 -0.2620
13270TIP3   OH261300   3.531   4.987  11.240  0.0866 -0.3718 -0.4128
13270TIP3    H161301   3.479   5.066  11.227  1.1190  0.1548 -1.5357
13270TIP3    H261302   3.482   4.919  11.193 -0.8206 -0.4264  0.5842
13271TIP3   OH261303   3.761   1.973   2.571 -0.0924 -0.0553 -0.3510
13271TIP3    H161304   3.782   2.038   2.503 -0.6635  0.3741 -0.1265
13271TIP3    H261305   3.734   2.026   2.646 -1.4526 -0.5658 -0.4584
13272TIP3   OH261306   1.173   2.526  14.976 -0.8998  0.3682  0.7063
13272TIP3    H161307   1.098   2.566  15.019 -0.6572 -0.1683  1.6666
13272TIP3    H261308   1.245   2.588  14.990 -1.5058  1.7240 -1.7131
13273TIP3   OH261309   6.322   4.319  13.995  0.4482  0.2884  0.2908
13273TIP3    H161310   6.294   4.281  14.079 -0.6810  0.1544 -0.1238
13273TIP3    H261311   6.301   4.412  14.002  1.0711  0.4247  0.4353
13274TIP3   OH261312   1.197   0.793  13.090  0.0537  0.5691  0.1921
13274TIP3    H161313   1.290   0.797  13.110  0.5486  0.0327 -1.7657
13274TIP3    H261314   1.163   0.723  13.147  1.1255 -0.1233  0.0075
13275TIP3   OH261315   4.982   6.313  16.119 -0.4673 -0.1033  0.4847
13275TIP3    H161316   5.024   6.308  16.205  0.3970  2.0115  0.2420
13275TIP3    H261317   4.941   6.400  16.117 -0.4714 -0.1074 -1.2326
13276TIP3   OH261318   4.954   1.549   4.203  0.0021  0.2907  0.1411
13276TIP3    H161319   5.041   1.581   4.228 -0.3237  0.9493  0.4409
13276TIP3    H261320   4.929   1.604   4.129 -0.5107  0.6699  0.5881
13277TIP3   OH261321   5.974   1.887   4.932  0.5221 -0.3337 -0.3800
13277TIP3    H161322   5.963   1.912   4.841 -0.8097 -0.9119 -0.3928
13277TIP3    H261323   5.952   1.965   4.982  1.0363 -0.0839 -0.5335
13278TIP3   OH261324   3.882   1.052  13.876  0.1666 -0.3116 -0.1265
13278TIP3    H161325   3.876   0.967  13.920 -1.5627  0.4158  1.1832
13278TIP3    H261326   3.931   1.107  13.937  0.2134 -0.0489 -0.3981
13279TIP3   OH261327   6.802   5.344   3.181 -0.4613 -0.1741 -0.0321
13279TIP3    H161328   6.714   5.352   3.143 -0.2932 -0.5203 -0.5030
13279TIP3    H261329   6.836   5.263   3.144 -0.6239 -0.9799  1.5308
13280TIP3   OH261330   3.808   2.214   3.973 -0.1520 -0.4117 -0.6123
13280TIP3    H161331   3.819   2.219   4.068 -3.9443  0.4518 -0.0409
13280TIP3    H261332   3.791   2.305   3.947  0.2156 -0.7324 -2.0286
13281TIP3   OH261333   3.659   4.834   3.703  0.0848  0.2085  0.2876
13281TIP3    H161334   3.690   4.855   3.791 -0.3700 -0.3870  0.5991
13281TIP3    H261335   3.572   4.796   3.717  1.4047 -3.2368 -0.0921
13282TIP3   OH261336   6.517   1.490  12.736  0.1034  0.4527 -0.2719
13282TIP3    H161337   6.451   1.468  12.670 -1.4306  3.5017  0.0451
13282TIP3    H261338   6.568   1.560  12.695  0.9090  0.5077  0.7920
13283TIP3   OH261339   0.735   6.295  10.873 -0.2111  0.8429 -0.4156
13283TIP3    H161340   0.730   6.204  10.843 -0.4692  0.6509  0.1917
13283TIP3    H261341   0.789   6.339  10.807  0.7119  0.0362 -0.2337
13284TIP3   OH261342   5.611   5.688   2.063 -0.2042 -0.1787 -0.7881
13284TIP3    H161343   5.517   5.702   2.075  0.2008  0.7151  2.1907
13284TIP3    H261344   5.636   5.630   2.135  1.9182  1.7570  0.1788
13285TIP3   OH261345   3.329   1.708  14.994  0.1664  0.3127 -1.1434
13285TIP3    H161346   3.369   1.768  15.057  1.3526 -0.4255 -1.1623
13285TIP3    H261347   3.280   1.765  14.935  0.0955  1.1288 -0.3269
13286TIP3   OH261348   2.372   1.638   5.725  0.0414 -0.5389 -0.0420
13286TIP3    H161349   2.433   1.578   5.683 -0.2253 -1.4914  0.8687
13286TIP3    H261350   2.410   1.725   5.711  0.6416 -0.9440 -1.0529
13287TIP3   OH261351   3.562   1.554   5.671 -0.3428 -0.0990 -0.1487
13287TIP3    H161352   3.606   1.477   5.633  1.9683  0.0154  2.0460
13287TIP3    H261353   3.628   1.623   5.669 -1.5392  1.1085  0.2964
13288TIP3   OH261354   2.351   3.486  15.865  0.7502  0.0888  0.1897
13288TIP3    H161355   2.289   3.556  15.846  0.9033 -0.0423 -0.8479
13288TIP3    H261356   2.352   3.432  15.787  1.7595 -0.2294  0.3947
13289TIP3   OH261357   5.992   1.773   3.782 -0.0897  0.1671 -0.1086
13289TIP3    H161358   6.005   1.867   3.794 -2.0962  0.6744 -1.3568
13289TIP3    H261359   6.080   1.738   3.768  0.5423  2.2909 -2.2456
13290TIP3   OH261360   6.151   5.342  13.008 -0.0737  0.1856  0.0014
13290TIP3    H161361   6.095   5.266  12.994 -0.6803  0.4459  0.9322
13290TIP3    H261362   6.223   5.331  12.945  0.0362 -1.3371  0.3652
13291TIP3   OH261363   0.811   5.971   1.605 -0.6399  0.2732  0.2219
13291TIP3    H161364   0.803   5.918   1.684 -0.2847 -0.3249 -0.1387
13291TIP3    H261365   0.828   5.908   1.535 -0.4292  0.8434 -0.2495
13292TIP3   OH261366   5.251   2.242  13.228  0.0716  0.2478 -0.3887
13292TIP3    H161367   5.288   2.196  13.303 -0.1374  0.1601 -0.3384
13292TIP3    H261368   5.291   2.329  13.231 -0.6047  0.5484  0.3496
13293TIP3   OH261369   0.430   4.239  13.827 -0.2975  0.6284 -0.3487
13293TIP3    H161370   0.494   4.300  13.864 -1.3127  0.2280  2.2315
13293TIP3    H261371   0.351   4.292  13.813  0.4621  1.1358 -3.5753
13294TIP3   OH261372   2.688   0.717   0.620 -0.3264  0.0440  0.7883
13294TIP3    H161373   2.628   0.727   0.694  1.6912 -0.3312  2.5597
13294TIP3    H261374   2.724   0.805   0.607  0.5052 -0.2126  1.3203
13295TIP3   OH261375   1.177   2.474   3.336 -0.2292  0.3705 -0.5731
13295TIP3    H161376   1.263   2.491   3.374  0.6631 -1.0811 -1.8325
13295TIP3    H261377   1.195   2.422   3.258 -2.3962 -3.1404  1.0335
13296TIP3   OH261378   0.833   6.020  14.028  0.0022 -0.2955 -0.1340
13296TIP3    H161379   0.904   6.083  14.040 -0.0904 -0.1538 -0.3217
13296TIP3    H261380   0.798   6.039  13.940 -0.0386 -0.5946 -0.1833
13297TIP3   OH261381   1.791   2.181   0.576  0.0029  0.0342  1.0320
13297TIP3    H161382   1.714   2.139   0.614  0.2026 -0.8794  0.4560
13297TIP3    H261383   1.863   2.120   0.594  0.0949 -0.4799 -0.8436
13298TIP3   OH261384   3.190   6.716   3.974 -0.3674  0.2998 -0.2065
13298TIP3    H161385   3.225   6.785   4.030 -0.5304  0.3483 -0.1632
13298TIP3    H261386   3.246   6.718   3.896 -2.2700  2.6732 -1.6838
13299TIP3   OH261387   3.697   5.021   0.163 -0.2304  0.3922 -0.9043
13299TIP3    H161388   3.656   5.106   0.183 -0.8063 -0.2339  0.6927
13299TIP3    H261389   3.661   4.998   0.077 -0.4812  1.5116 -1.1199
13300TIP3   OH261390   5.680   2.216   4.841 -0.3620 -0.1642 -0.4163
13300TIP3    H161391   5.745   2.274   4.801 -2.7005  1.8239 -1.6050
13300TIP3    H261392   5.633   2.178   4.767 -2.5131  0.8601  0.3196
13301TIP3   OH261393   5.860   3.532  16.534  0.0729 -0.0570 -1.0103
13301TIP3    H161394   5.950   3.540  16.566  0.5724  0.4986 -2.4956
13301TIP3    H261395   5.836   3.441  16.554  1.9129 -1.0396 -2.9360
13302TIP3   OH261396   4.914   4.613  14.172 -0.6338  0.2137 -0.5741
13302TIP3    H161397   4.899   4.703  14.143 -0.9759  0.1114 -0.7274
13302TIP3    H261398   4.980   4.579  14.111  1.7492  1.2605  1.2530
13303TIP3   OH261399   2.972   2.355   6.459 -0.7494 -0.2279  0.4292
13303TIP3    H161400   2.932   2.433   6.419 -0.3910  0.2008  0.8847
13303TIP3    H261401   3.055   2.387   6.496 -0.5851 -0.8347  0.5973
13304TIP3   OH261402   3.797   1.355   0.020 -0.0725  0.5488 -0.4609
13304TIP3    H161403   3.860   1.313  -0.039  0.0073 -2.0312  1.2934
13304TIP3    H261404   3.726   1.384  -0.038  0.8792 -0.1302 -2.0329
13305TIP3   OH261405   6.637   5.656   5.464  0.2599 -0.2603 -0.3976
13305TIP3    H161406   6.731   5.670   5.453 -0.0189  0.4245 -2.5054
13305TIP3    H261407   6.626   5.631   5.555  2.1327  2.6662  0.7758
13306TIP3   OH261408   0.926   6.094  12.438  0.2654 -0.5341 -0.0411
13306TIP3    H161409   0.939   6.049  12.355  0.7888  0.0297 -0.2739
13306TIP3    H261410   0.980   6.047  12.500  0.8982 -0.1664 -0.3069
13307TIP3   OH261411   5.100   1.847  11.863 -0.1593  0.0637 -0.7290
13307TIP3    H161412   5.051   1.767  11.845  0.1613 -0.1323 -0.7326
13307TIP3    H261413   5.033   1.914  11.878 -0.4430 -0.4734  0.5235
13308TIP3   OH261414   4.234   1.875   0.819 -0.0962  0.0319  0.1041
13308TIP3    H161415   4.252   1.887   0.726  0.4399  1.8248  0.4158
13308TIP3    H261416   4.289   1.940   0.863 -0.0368 -1.0550  1.7107
13309TIP3   OH261417   4.307   0.997   5.236 -0.7169 -0.0724  0.4897
13309TIP3    H161418   4.337   1.042   5.315  0.0673 -1.1281  0.8168
13309TIP3    H261419   4.350   0.911   5.240 -1.9253 -0.7325 -0.2701
13310TIP3   OH261420   0.463   5.915  17.012 -0.2345 -0.4458  0.3879
13310TIP3    H161421   0.370   5.894  16.998 -0.3811 -0.2092  0.9870
13310TIP3    H261422   0.463   6.006  17.040  0.3924  0.4365 -2.2242
13311TIP3   OH261423   3.381   4.185  11.933  0.0801  0.1960  0.1904
13311TIP3    H161424   3.312   4.119  11.923 -0.0569  0.4471 -0.5984
13311TIP3    H261425   3.459   4.135  11.956 -0.1744 -0.1815  0.2461
13312TIP3   OH261426   5.713   5.912  15.520 -0.0537  0.0845  0.1288
13312TIP3    H161427   5.777   5.876  15.459 -1.0075 -1.5081  0.0146
13312TIP3    H261428   5.633   5.921  15.468 -0.5717 -0.2157  0.8605
13313TIP3   OH261429   6.811   4.455   2.839 -0.1317  0.1272 -0.1286
13313TIP3    H161430   6.718   4.434   2.832  0.2108 -1.0251 -2.0847
13313TIP3    H261431   6.813   4.550   2.853 -1.5950  0.1133  0.3867
13314TIP3   OH261432   0.500   4.374  12.302 -0.2123  0.8940 -0.5780
13314TIP3    H161433   0.543   4.368  12.387  1.2680  0.6081 -1.3224
13314TIP3    H261434   0.454   4.291  12.293  0.3355  0.5669 -0.4192
13315TIP3   OH261435   1.299   6.108   0.448  0.1487 -0.4333  0.0221
13315TIP3    H161436   1.214   6.142   0.422 -0.2304 -0.7974  0.7519
13315TIP3    H261437   1.345   6.184   0.484  0.1946 -0.2054 -0.5069
13316TIP3   OH261438   3.456   0.018   1.767  0.3496 -0.2411  0.0325
13316TIP3    H161439   3.462   0.073   1.845 -2.5806  0.8711 -0.3613
13316TIP3    H261440   3.418  -0.064   1.799  0.7436 -0.4306  0.0152
13317TIP3   OH261441   4.091   4.717  14.962 -0.2608  0.2979  0.0112
13317TIP3    H161442   4.067   4.654  14.894  0.7712  2.5143 -2.6518
13317TIP3    H261443   4.009   4.761  14.984 -0.5008  0.0569 -0.3876
13318TIP3   OH261444   2.045   6.216  14.240  0.2737  0.5199 -0.2024
13318TIP3    H161445   2.107   6.255  14.302 -1.6354  2.3886  0.6348
13318TIP3    H261446   2.091   6.218  14.156  1.8096  0.6682  0.6041
13319TIP3   OH261447   2.271   0.059   3.047 -0.2941  0.0931  0.3249
13319TIP3    H161448   2.315   0.042   2.963 -0.6356 -1.1302  0.3711
13319TIP3    H261449   2.243   0.151   3.042  3.2006  1.3242  0.7436
13320TIP3   OH261450   2.287   2.556  13.235  0.2540 -0.2952 -0.4443
13320TIP3    H161451   2.296   2.649  13.214 -0.2438 -0.1298  0.0803
13320TIP3    H261452   2.199   2.547  13.270 -0.3301 -1.2609 -2.0328
13321TIP3   OH261453   2.340   1.406   0.483 -0.0821  0.0191  0.5784
13321TIP3    H161454   2.375   1.496   0.486  0.5182 -0.1531 -0.7289
13321TIP3    H261455   2.252   1.415   0.449 -0.4069  0.1990  1.4349
13322TIP3   OH261456   1.093   1.362   0.280  0.1949  0.6488 -0.5077
13322TIP3    H161457   1.078   1.278   0.238  2.0678  0.2743 -0.5324
13322TIP3    H261458   1.180   1.388   0.250 -0.4572  2.7430 -0.7207
13323TIP3   OH261459   4.159   5.522   5.716 -0.2092  0.2551 -0.1485
13323TIP3    H161460   4.173   5.430   5.691 -0.0192  0.5267 -1.0870
13323TIP3    H261461   4.077   5.521   5.764 -1.3165 -0.1301 -1.9319
13324TIP3   OH261462   4.701   1.783  11.497  0.2762 -0.2124 -0.7145
13324TIP3    H161463   4.779   1.836  11.512  2.0440 -1.9851 -2.8200
13324TIP3    H261464   4.692   1.780  11.402 -0.2087 -2.8786 -0.6777
13325TIP3   OH261465   6.361   0.302   0.454 -0.0201 -0.5318  0.2018
13325TIP3    H161466   6.434   0.343   0.499  0.3826 -0.6545 -0.3262
13325TIP3    H261467   6.305   0.268   0.523  0.8007 -1.0956  0.5974
13326TIP3   OH261468   4.592   6.773  14.629 -0.2546 -0.1985  0.5418
13326TIP3    H161469   4.596   6.686  14.590  1.9479  0.3670 -0.6914
13326TIP3    H261470   4.569   6.758  14.720 -3.3326 -1.7581 -0.3588
13327TIP3   OH261471   2.907   4.580   4.186 -0.2709 -0.2847 -0.4651
13327TIP3    H161472   2.956   4.615   4.111  1.2026 -1.0117  0.1071
13327TIP3    H261473   2.975   4.553   4.248 -1.3843 -1.7292  0.1974
13328TIP3   OH261474   6.090   5.706   0.240  0.4691  0.1175 -0.2191
13328TIP3    H161475   6.168   5.670   0.199 -0.0390 -0.4187 -0.7324
13328TIP3    H261476   6.123   5.773   0.301  1.3249 -0.1986 -0.3283
13329TIP3   OH261477   0.810   2.802   2.512 -0.0705  0.5705 -0.1268
13329TIP3    H161478   0.767   2.818   2.596 -0.4832 -0.4057 -0.1374
13329TIP3    H261479   0.878   2.737   2.532  0.4305  1.0010 -0.3909
13330TIP3   OH261480   2.611   2.549  11.859  0.1363 -0.2236  0.1589
13330TIP3    H161481   2.521   2.548  11.892  0.0444  0.1987 -0.0704
13330TIP3    H261482   2.640   2.639  11.870  1.2485 -0.7718  2.1327
13331TIP3   OH261483   0.860   4.381  13.085 -0.1669 -0.2179 -0.1539
13331TIP3    H161484   0.857   4.477  13.084 -1.8123 -0.2373 -1.2419
13331TIP3    H261485   0.773   4.355  13.116 -0.1080 -1.3528 -0.8857
13332TIP3   OH261486   5.434   5.329  12.949  0.6298  0.0574 -0.1433
13332TIP3    H161487   5.523   5.350  12.977  0.4456  0.6935 -0.0104
13332TIP3    H261488   5.413   5.396  12.884 -1.2269  2.5732  2.7220
13333TIP3   OH261489   0.413   0.457   2.259 -0.1143  0.2263  0.3798
13333TIP3    H161490   0.386   0.485   2.171 -0.6090  0.3787  0.5780
13333TIP3    H261491   0.337   0.474   2.314  0.2321  0.2311  0.8611
13334TIP3   OH261492   4.298   1.391  12.260 -0.1489 -0.7227 -0.1964
13334TIP3    H161493   4.261   1.381  12.349 -1.5314 -0.0491 -0.6607
13334TIP3    H261494   4.317   1.301  12.232 -0.1919 -0.9845  0.5863
13335TIP3   OH261495   2.932   4.698  12.208 -0.1840 -0.2321  0.4298
13335TIP3    H161496   3.004   4.647  12.172  0.2306 -0.1960  1.1698
13335TIP3    H261497   2.894   4.743  12.133 -0.5524 -1.6003 -0.2463
13336TIP3   OH261498   6.797   4.010  15.719  1.1215 -0.8281 -0.7434
13336TIP3    H161499   6.794   3.932  15.776  0.4852 -1.0357 -1.0491
13336TIP3    H261500   6.798   4.084  15.780  1.9831 -1.0770 -0.4463
13337TIP3   OH261501   6.427   6.442  13.051  0.3128 -0.8713  0.3861
13337TIP3    H161502   6.349   6.466  13.002  0.9281  1.3760  0.3813
13337TIP3    H261503   6.499   6.485  13.004  1.6401 -3.1089  0.2072
13338TIP3   OH261504   0.639   2.602   5.477 -0.4165 -0.1698 -0.3325
13338TIP3    H161505   0.723   2.572   5.511 -0.8468 -0.5864  0.3926
13338TIP3    H261506   0.650   2.602   5.382 -0.1808 -1.9963 -0.3409
13339TIP3   OH261507   1.617   1.781  13.908 -0.0677  0.0668 -0.3137
13339TIP3    H161508   1.628   1.738  13.993  1.9163 -0.1005 -0.6070
13339TIP3    H261509   1.613   1.875  13.930 -0.7221 -0.0386  0.0417
13340TIP3   OH261510   0.538   0.421  15.379  0.0827  0.6755 -0.4938
13340TIP3    H161511   0.623   0.459  15.360  0.3518 -0.5414 -1.8770
13340TIP3    H261512   0.485   0.496  15.409  1.8304  1.3014  1.2568
13341TIP3   OH261513   0.916   1.739  16.819 -0.0290  0.3476 -0.0153
13341TIP3    H161514   0.928   1.679  16.893 -0.5157  0.0231 -0.1925
13341TIP3    H261515   0.963   1.818  16.845  1.4625 -0.4395 -0.1896
13342TIP3   OH261516   5.353   5.615  14.335  0.2666 -1.0182 -0.2096
13342TIP3    H161517   5.418   5.652  14.394 -0.0556 -1.2605  0.3072
13342TIP3    H261518   5.310   5.547  14.386 -0.4260 -0.8304 -0.5218
13343TIP3   OH261519   1.274   2.712  10.862 -0.4162  0.0734 -0.2868
13343TIP3    H161520   1.342   2.764  10.905 -1.8187  1.5919  0.1929
13343TIP3    H261521   1.308   2.622  10.865  0.9553  0.5768  1.1445
13344TIP3   OH261522   2.385   2.289  15.174  0.2171  0.1388 -0.2245
13344TIP3    H161523   2.371   2.224  15.242 -0.6842  1.1517  0.6003
13344TIP3    H261524   2.355   2.246  15.093  0.5224 -0.7832  0.1461
13345TIP3   OH261525   2.465   5.200  16.593  0.1686 -0.0835  0.4370
13345TIP3    H161526   2.549   5.209  16.546 -0.3544  0.2159 -0.4655
13345TIP3    H261527   2.425   5.287  16.587  0.5251  0.2610  2.3385
13346TIP3   OH261528   2.337   3.394   2.237 -0.2615 -0.1018  0.5389
13346TIP3    H161529   2.279   3.459   2.278 -2.3798 -0.8764 -1.0729
13346TIP3    H261530   2.423   3.437   2.236 -1.0362  1.6354  1.8057
13347TIP3   OH261531   1.744   2.518  12.597  0.3573  0.0974 -0.2027
13347TIP3    H161532   1.733   2.432  12.637 -0.4856  0.7493  1.0348
13347TIP3    H261533   1.688   2.576  12.649  0.8076  1.3733 -1.0896
13348TIP3   OH261534   2.092   5.849  16.353 -0.3483 -0.1150  0.1416
13348TIP3    H161535   2.070   5.760  16.325 -0.3277  0.2479 -1.0913
13348TIP3    H261536   2.186   5.858  16.334 -0.3675  0.1974  0.1903
13349TIP3   OH261537   3.818   3.377  12.867  0.4643  0.3478 -1.0221
13349TIP3    H161538   3.792   3.290  12.835 -1.3307 -0.0411  1.1890
13349TIP3    H261539   3.887   3.359  12.931  0.8993  0.6682 -1.3990
13350TIP3   OH261540   6.213   5.948  15.350 -0.3982 -0.3061  0.2814
13350TIP3    H161541   6.241   6.009  15.281 -1.4719  0.2379  0.3081
13350TIP3    H261542   6.287   5.945  15.410  0.5216 -0.7078 -0.8271
13351TIP3   OH261543   4.269   0.578   1.138 -0.3007  0.5277 -0.1090
13351TIP3    H161544   4.364   0.575   1.145 -0.3606 -1.9346  0.5831
13351TIP3    H261545   4.241   0.626   1.215  0.3259 -1.2492  1.3058
13352TIP3   OH261546   0.438   4.510  16.154  0.1036 -0.6087  0.0456
13352TIP3    H161547   0.463   4.472  16.069 -0.7586  1.7296 -1.3696
13352TIP3    H261548   0.463   4.602  16.147 -0.7462 -0.1801  2.0399
13353TIP3   OH261549   5.043   1.362  12.364  1.0645 -0.0358  0.7254
13353TIP3    H161550   5.049   1.423  12.290 -0.8632 -0.2164  0.3488
13353TIP3    H261551   5.068   1.413  12.440  0.1445  1.0646  0.3192
13354TIP3   OH261552   6.552   4.770   2.192  0.5862 -0.4471 -0.7731
13354TIP3    H161553   6.509   4.812   2.267 -0.8262 -0.7789 -1.3565
13354TIP3    H261554   6.625   4.828   2.170 -1.9653  2.4820 -2.3124
13355TIP3   OH261555   5.383   5.178  13.778 -0.1673  0.2611 -0.0506
13355TIP3    H161556   5.358   5.253  13.832  1.2530  0.8377 -0.1385
13355TIP3    H261557   5.445   5.214  13.715  0.5497 -0.9831 -0.0835
13356TIP3   OH261558   6.099   1.225   0.060 -0.0440  0.5281 -0.2713
13356TIP3    H161559   6.024   1.166   0.064 -0.8090  1.3612 -1.6747
13356TIP3    H261560   6.070   1.305   0.104  0.8819  0.0279  1.3440
13357TIP3   OH261561   1.189   4.050   2.243  0.0937 -0.2817 -0.2185
13357TIP3    H161562   1.241   4.098   2.307 -0.2512 -0.0940 -0.0740
13357TIP3    H261563   1.171   4.114   2.174  0.4219 -0.4692 -0.4809
13358TIP3   OH261564   0.901   4.899  16.203  0.2031 -0.2358 -0.2823
13358TIP3    H161565   0.959   4.923  16.275 -0.5745  1.0783 -0.0562
13358TIP3    H261566   0.910   4.804  16.195  1.6420 -0.1784  0.3625
13359TIP3   OH261567   0.037   5.092  15.204  0.0960  0.4245  0.5522
13359TIP3    H161568   0.099   5.096  15.277  1.3180 -0.0668 -0.4202
13359TIP3    H261569   0.001   5.004  15.208  0.9591  0.0370 -0.0574
13360TIP3   OH261570   0.220   5.806  14.712  0.7085 -0.2886 -0.0912
13360TIP3    H161571   0.183   5.894  14.712  0.1667 -0.5075 -1.0429
13360TIP3    H261572   0.257   5.796  14.800  1.3450  1.1171 -0.1775
13361TIP3   OH261573   3.539   5.061   0.699  0.0881 -0.0747 -0.4198
13361TIP3    H161574   3.548   5.049   0.794  0.5203 -0.4651 -0.5065
13361TIP3    H261575   3.613   5.013   0.662 -0.1722 -0.0593 -0.9636
13362TIP3   OH261576   2.133   0.602  16.179 -0.1167 -0.0389 -0.0724
13362TIP3    H161577   2.171   0.667  16.121 -0.7679 -0.1034 -0.5928
13362TIP3    H261578   2.091   0.539  16.120 -2.5302  0.9449  0.4465
13363TIP3   OH261579   4.909   3.132  15.464  0.4977 -0.4042  0.2184
13363TIP3    H161580   4.895   3.198  15.531 -0.6274 -0.4307  0.0433
13363TIP3    H261581   5.004   3.126  15.454  0.6332  0.5427  0.8592
13364TIP3   OH261582   2.607   5.863   2.924 -0.2671 -0.0310  0.3035
13364TIP3    H161583   2.536   5.823   2.874  1.7044 -0.9159 -1.9874
13364TIP3    H261584   2.651   5.789   2.966 -0.3176  0.4504  1.2402
13365TIP3   OH261585   1.638   4.337   0.972 -0.1352  0.7527 -0.2702
13365TIP3    H161586   1.544   4.345   0.956  0.1055  0.5847 -1.9737
13365TIP3    H261587   1.646   4.261   1.029 -0.9326 -0.5483 -1.8026
13366TIP3   OH261588   6.325   0.678  16.423  0.0675  0.4936 -0.1319
13366TIP3    H161589   6.288   0.591  16.440 -0.5243  0.6752 -0.4627
13366TIP3    H261590   6.306   0.694  16.330  0.5503  0.8039 -0.1833
13367TIP3   OH261591   4.072   1.694   2.532  0.4121 -0.7401 -0.0235
13367TIP3    H161592   4.133   1.734   2.593  0.8942 -0.0259 -0.9413
13367TIP3    H261593   3.993   1.679   2.584  0.9228 -0.4879  0.8556
13368TIP3   OH261594   5.575   0.271   2.184  0.1292  0.6320  0.6132
13368TIP3    H161595   5.538   0.308   2.264  0.8632  1.0013  0.7879
13368TIP3    H261596   5.662   0.311   2.176  0.6692 -0.5208  0.4401
13369TIP3   OH261597   4.467   3.933  16.358  0.0830  0.0586  0.0840
13369TIP3    H161598   4.464   3.958  16.266  1.0819 -0.8978 -0.2390
13369TIP3    H261599   4.381   3.894  16.375  0.6121 -1.7772 -1.0893
13370TIP3   OH261600   4.561   4.462  15.741 -0.5484  0.2207 -0.1002
13370TIP3    H161601   4.648   4.502  15.738  0.2641 -1.4690 -0.2045
13370TIP3    H261602   4.524   4.493  15.823 -0.2615  1.7240 -0.4962
13371TIP3   OH261603   0.136   3.255   0.167 -0.3424 -0.5706  0.5817
13371TIP3    H161604   0.169   3.341   0.191 -1.1755 -0.4484  1.3636
13371TIP3    H261605   0.180   3.195   0.227 -0.8650 -0.5095  1.0330
13372TIP3   OH261606   5.237   3.032   4.610 -0.3253  0.2184 -0.1201
13372TIP3    H161607   5.235   2.936   4.610 -2.2097  0.2238  0.3199
13372TIP3    H261608   5.285   3.055   4.531  0.5029 -1.0748 -0.0236
13373TIP3   OH261609   4.476   6.039   2.713  1.0897 -0.0162 -0.3548
13373TIP3    H161610   4.441   6.006   2.630 -1.5749  1.3204  0.1355
13373TIP3    H261611   4.545   6.100   2.687  0.6174  0.0315 -1.5850
13374TIP3   OH261612   5.041   5.209  12.671 -0.4176  0.0903 -0.3753
13374TIP3    H161613   5.097   5.174  12.601 -0.3263 -0.9338  0.1987
13374TIP3    H261614   4.977   5.263  12.624 -0.1432 -0.2948 -1.2251
13375TIP3   OH261615   0.294   6.371  15.969 -0.0089  0.3926  0.4510
13375TIP3    H161616   0.234   6.373  16.044 -0.6100  0.6033 -0.0306
13375TIP3    H261617   0.284   6.457  15.929  0.8744  0.5531  0.5639
13376TIP3   OH261618   3.274   5.423  14.799  0.1562 -0.2917 -0.3327
13376TIP3    H161619   3.293   5.394  14.889  1.5201 -0.4149 -0.6432
13376TIP3    H261620   3.238   5.511  14.810 -0.1763 -0.5058  0.3622
13377TIP3   OH261621   6.626   0.989  14.226  0.3013  0.4111 -0.6063
13377TIP3    H161622   6.587   1.050  14.164 -0.4604  1.4532  0.8379
13377TIP3    H261623   6.591   0.903  14.201 -1.9616  1.1321 -0.1762
13378TIP3   OH261624   6.131   1.238  14.595  0.5347  0.6810  0.0998
13378TIP3    H161625   6.104   1.180  14.666 -0.8361  0.5874 -0.4667
13378TIP3    H261626   6.156   1.179  14.524  0.1161  0.7799 -0.1312
13379TIP3   OH261627   2.910   1.066   2.042 -0.2809  0.5995 -0.1465
13379TIP3    H161628   2.892   0.972   2.046 -0.3859  0.5070 -2.0227
13379TIP3    H261629   2.964   1.084   2.119  0.6217 -1.2022 -0.3258
13380TIP3   OH261630   2.779   0.634  14.307 -0.6600  0.1496 -0.3780
13380TIP3    H161631   2.689   0.665  14.298 -1.3290 -1.8063 -0.9915
13380TIP3    H261632   2.772   0.539  14.309  1.2357 -0.0573  1.5458
13381TIP3   OH261633   6.262   1.177   0.496  0.0303  0.0771 -0.5032
13381TIP3    H161634   6.174   1.164   0.459 -0.1182 -2.0746  0.4500
13381TIP3    H261635   6.306   1.093   0.484  1.9847  1.0970 -0.9221
13382TIP3   OH261636   0.366   2.838  14.537 -0.1545 -0.1322 -0.0811
13382TIP3    H161637   0.449   2.795  14.514  0.0232 -1.4059  2.5443
13382TIP3    H261638   0.379   2.930  14.514  0.8825 -0.8046 -2.3812
13383TIP3   OH261639   0.371   2.746   4.446  0.3355 -0.1679 -0.0173
13383TIP3    H161640   0.462   2.720   4.431  0.4804  0.3539 -0.0831
13383TIP3    H261641   0.367   2.836   4.413 -0.3753 -0.4110 -0.6170
13384TIP3   OH261642   2.357   6.261  10.417 -0.0653 -0.0079  0.2305
13384TIP3    H161643   2.427   6.326  10.423 -0.6592  0.6891 -0.2770
13384TIP3    H261644   2.277   6.313  10.416 -0.6300 -0.8093  1.2952
13385TIP3   OH261645   5.891   4.704  15.709 -0.3533 -0.8001  0.5256
13385TIP3    H161646   5.946   4.681  15.783 -1.3197 -1.0367  1.1806
13385TIP3    H261647   5.806   4.725  15.747 -0.8589 -0.8967 -0.5114
13386TIP3   OH261648   0.014   1.666   5.411  0.1081 -0.6931  0.7739
13386TIP3    H161649   0.040   1.665   5.503  3.2232  1.0460  0.0596
13386TIP3    H261650  -0.082   1.666   5.413  0.0757 -0.8743  3.9743
13387TIP3   OH261651   3.472   4.255   1.225  0.7445 -0.0038  0.3534
13387TIP3    H161652   3.386   4.296   1.232  1.0021  0.5056  0.5828
13387TIP3    H261653   3.496   4.234   1.315  0.2849 -1.3727  0.1782
13388TIP3   OH261654   4.066   0.145  11.323  0.1611 -0.4525  0.2975
13388TIP3    H161655   4.047   0.057  11.289 -2.7416  0.0703  0.3072
13388TIP3    H261656   4.150   0.167  11.284  0.5656 -2.8755 -0.4126
13389TIP3   OH261657   6.744   2.922  14.121 -0.3519 -0.2610 -0.3562
13389TIP3    H161658   6.701   2.843  14.089  2.3153 -2.4519  1.0371
13389TIP3    H261659   6.818   2.936  14.062  0.4278 -0.1084  0.6192
13390TIP3   OH261660   3.512   5.198   5.289  0.4866 -0.3392 -0.0785
13390TIP3    H161661   3.559   5.125   5.330 -0.0221 -0.7897 -0.2941
13390TIP3    H261662   3.440   5.216   5.349  0.9345  0.3631  0.2597
13391TIP3   OH261663   2.611   5.264   2.382 -0.0402  0.2845 -0.3960
13391TIP3    H161664   2.694   5.217   2.378 -0.6103 -0.9232  1.0196
13391TIP3    H261665   2.550   5.202   2.421 -0.6283  2.4112  2.4148
13392TIP3   OH261666   6.795   3.865  13.378 -0.5135 -0.5022 -0.0868
13392TIP3    H161667   6.812   3.804  13.450  1.5485 -0.9786 -0.8972
13392TIP3    H261668   6.701   3.860  13.364 -1.1856  0.4003  3.2224
13393TIP3   OH261669   6.641   4.305  16.362  0.2996  0.2536 -0.4682
13393TIP3    H161670   6.570   4.303  16.298  0.5529  0.5700 -0.7643
13393TIP3    H261671   6.604   4.351  16.437 -0.0224 -0.1849 -0.3540
13394TIP3   OH261672   4.898   2.002  13.446  0.7284  0.1539 -0.3907
13394TIP3    H161673   4.880   2.012  13.539  0.2782  0.2267 -0.4872
13394TIP3    H261674   4.916   1.908  13.435  3.2088  0.4911  0.1968
13395TIP3   OH261675   6.350   0.174  12.486  0.1314 -0.0546  0.2581
13395TIP3    H161676   6.411   0.167  12.412 -1.2778 -0.9154 -0.8829
13395TIP3    H261677   6.364   0.095  12.537  0.0579 -0.1918  0.0664
13396TIP3   OH261678   3.001   5.549  16.343  0.3957 -0.9423 -0.2499
13396TIP3    H161679   3.081   5.499  16.360  1.0867  0.1847 -0.0899
13396TIP3    H261680   3.002   5.619  16.407 -0.6798 -0.8422 -0.3175
13397TIP3   OH261681   1.593   5.971  11.643 -0.2604 -0.2039  0.7277
13397TIP3    H161682   1.609   5.923  11.724  0.0590 -1.2021  0.0916
13397TIP3    H261683   1.563   5.905  11.581  0.6534  0.3264 -0.3114
13398TIP3   OH261684   3.600   4.470   2.963 -0.0275 -0.4467 -0.3275
13398TIP3    H161685   3.569   4.554   2.929  4.0731  1.0272 -0.8779
13398TIP3    H261686   3.589   4.410   2.890  0.6429  0.6163 -1.3388
13399TIP3   OH261687   3.989   4.562  14.422  0.1924  0.2691 -0.0209
13399TIP3    H161688   3.912   4.506  14.421  0.5511 -0.2483  0.6177
13399TIP3    H261689   4.026   4.554  14.334  1.1670 -1.8410  0.5179
13400TIP3   OH261690   1.227   3.437  16.389 -0.0409 -0.1128  0.3174
13400TIP3    H161691   1.162   3.498  16.425  1.2231  1.3236  0.2762
13400TIP3    H261692   1.271   3.402  16.466  1.7802  1.9679  0.3108
13401TIP3   OH261693   2.344   2.426   0.542 -0.2785  0.1952  0.1805
13401TIP3    H161694   2.346   2.500   0.602  1.0185  0.0985  0.2926
13401TIP3    H261695   2.350   2.349   0.599 -3.0855 -0.1132  0.1761
13402TIP3   OH261696   1.300   4.534   1.474 -0.1823  0.4602 -0.7441
13402TIP3    H161697   1.223   4.555   1.421  0.3012 -1.8513 -2.5174
13402TIP3    H261698   1.355   4.481   1.416  1.8654  0.4240  1.1027
13403TIP3   OH261699   5.230   1.556   0.008  0.1365  0.2137 -0.4261
13403TIP3    H161700   5.246   1.525   0.097  0.1732 -0.1289 -0.5527
13403TIP3    H261701   5.182   1.638   0.019  0.0067  0.0925 -0.0944
13404TIP3   OH261702   0.848   4.013   3.643 -0.0163 -0.1059  0.0215
13404TIP3    H161703   0.791   4.050   3.711 -0.5500 -1.1031  0.1350
13404TIP3    H261704   0.787   3.973   3.581  0.5629 -1.5992  0.3843
13405TIP3   OH261705   6.793   4.055  17.084  0.1795 -0.9369 -0.7883
13405TIP3    H161706   6.857   4.049  17.155  0.7847 -1.2275 -1.3622
13405TIP3    H261707   6.777   3.965  17.058 -0.5079 -0.8732 -0.6218
13406TIP3   OH261708   3.239   5.800   0.010 -0.2356 -0.3295  0.1862
13406TIP3    H161709   3.187   5.872  -0.026  0.0973 -0.1760  0.0098
13406TIP3    H261710   3.247   5.738  -0.062 -1.4564 -1.0646  0.6615
13407TIP3   OH261711   5.668   3.314  14.964 -0.7851 -0.0577  0.1416
13407TIP3    H161712   5.641   3.231  14.923 -1.5946  0.0508  0.4317
13407TIP3    H261713   5.749   3.293  15.010 -0.9838 -0.6857  0.2123
13408TIP3   OH261714   4.998   1.371  15.853 -0.1171  0.0709 -0.1935
13408TIP3    H161715   4.933   1.440  15.841 -1.1210 -0.8170 -0.0057
13408TIP3    H261716   5.066   1.391  15.789 -0.5239  1.0794 -0.3285
13409TIP3   OH261717   2.672   3.049  12.497  0.6516  0.0108 -0.2971
13409TIP3    H161718   2.670   2.954  12.485 -1.2164  0.0142 -0.3722
13409TIP3    H261719   2.724   3.063  12.576  0.0797 -1.1702  0.3192
13410TIP3   OH261720   1.878   0.362  16.314 -0.0342  0.3906  0.0591
13410TIP3    H161721   1.890   0.425  16.386  1.5855 -0.1706  0.3330
13410TIP3    H261722   1.927   0.399  16.241 -0.6163  0.3343 -0.3677
13411TIP3   OH261723   5.422   0.584  12.481 -0.3714  0.4326 -0.3990
13411TIP3    H161724   5.414   0.503  12.532 -0.2289  2.3624  2.9900
13411TIP3    H261725   5.484   0.563  12.412 -1.2700 -2.6485 -0.4150
13412TIP3   OH261726   5.021   2.487  12.001 -0.2930  0.7558 -0.4360
13412TIP3    H161727   5.049   2.543  12.074 -0.9192 -0.9214  1.1919
13412TIP3    H261728   5.102   2.447  11.969 -0.1041  0.7571  0.0215
13413TIP3   OH261729   6.229   2.596  12.208  0.6265 -0.9762  0.4590
13413TIP3    H161730   6.274   2.537  12.147 -1.2254 -1.6927 -0.2909
13413TIP3    H261731   6.293   2.665  12.227  1.2846 -0.7083 -2.3314
13414TIP3   OH261732   2.176   2.223   0.662  0.0793  0.0365 -0.2584
13414TIP3    H161733   2.084   2.207   0.683 -0.2831  1.5462 -0.5497
13414TIP3    H261734   2.175   2.257   0.572  0.6790  1.8917  0.3737
13415TIP3   OH261735   3.111   5.032   5.379  0.1068 -0.1681  0.8057
13415TIP3    H161736   3.169   5.108   5.374 -0.5343  0.2527 -2.7281
13415TIP3    H261737   3.150   4.976   5.446  2.6610  1.6218  0.9453
13416TIP3   OH261738   3.016   3.757  12.206 -0.5968 -1.1650  0.0075
13416TIP3    H161739   2.991   3.793  12.121  0.4266  0.8705  0.4814
13416TIP3    H261740   2.970   3.812  12.269  0.5026 -1.0886  0.7795
13417TIP3   OH261741   3.258   6.333   3.770  0.3397  0.1843  0.4246
13417TIP3    H161742   3.202   6.400   3.810  1.5284  1.2774  0.3038
13417TIP3    H261743   3.343   6.345   3.812  1.0667 -0.0030 -0.9607
13418TIP3   OH261744   6.755   3.781  14.375  0.0916 -0.1119  0.3446
13418TIP3    H161745   6.699   3.743  14.443 -1.8994  0.5605 -0.8322
13418TIP3    H261746   6.769   3.710  14.312  1.3981 -0.5465  1.0810
13419TIP3   OH261747   3.549   2.405   3.300  0.1368 -0.0721  0.2496
13419TIP3    H161748   3.461   2.407   3.337  0.8878  1.5456  2.1288
13419TIP3    H261749   3.565   2.312   3.281 -1.8583 -0.4186  0.0974
13420TIP3   OH261750   4.719   5.699   4.293 -0.3814  0.0770 -0.3941
13420TIP3    H161751   4.634   5.659   4.314 -0.3065  0.4483  0.7059
13420TIP3    H261752   4.706   5.792   4.307  0.7380 -0.0361  1.8790
13421TIP3   OH261753   6.497   4.639  13.759  0.0404 -0.0790  0.3802
13421TIP3    H161754   6.530   4.556  13.724 -1.7019 -1.9099  2.6860
13421TIP3    H261755   6.568   4.672  13.814  0.1932 -0.9251  0.7108
13422TIP3   OH261756   4.542   4.386  13.428 -0.4042  0.4422 -0.1812
13422TIP3    H161757   4.509   4.337  13.353  1.1612 -1.1742  0.1177
13422TIP3    H261758   4.470   4.444  13.452 -1.3053  0.3256 -2.3090
13423TIP3   OH261759   0.829   6.488   1.993 -0.3805 -0.4295 -1.0522
13423TIP3    H161760   0.893   6.542   2.039 -2.2902  0.1331  1.1625
13423TIP3    H261761   0.808   6.537   1.914 -0.3080  0.9004 -0.2737
13424TIP3   OH261762   4.749   0.574   5.128 -0.3934 -0.5051  0.1394
13424TIP3    H161763   4.795   0.628   5.192 -1.6208  0.7238  0.0372
13424TIP3    H261764   4.709   0.504   5.179 -1.6149  0.6416  0.7779
13425TIP3   OH261765   5.135   2.089  15.214 -0.3293  0.3621 -0.2204
13425TIP3    H161766   5.118   2.023  15.147 -1.6946  1.4293 -0.9775
13425TIP3    H261767   5.052   2.095  15.262  0.0985  0.8206  0.4707
13426TIP3   OH261768   2.681   3.163  14.243 -0.1208  0.1044  0.1152
13426TIP3    H161769   2.733   3.226  14.195  0.8645  0.3779  1.4812
13426TIP3    H261770   2.596   3.206  14.256  0.1367  0.6516 -0.0132
13427TIP3   OH261771   2.573   1.310   0.578  0.3100  0.3508  0.1326
13427TIP3    H161772   2.604   1.284   0.491  1.8489  1.4427  0.3256
13427TIP3    H261773   2.479   1.320   0.567  0.6441  2.0321 -1.8472
13428TIP3   OH261774   4.583   1.663   3.107 -0.0831 -0.6102 -0.7234
13428TIP3    H161775   4.596   1.671   3.012  1.6287  0.6479 -0.4324
13428TIP3    H261776   4.531   1.739   3.131  1.1481  0.1783 -0.4259
13429TIP3   OH261777   4.996   5.810  14.456 -0.6709  0.2046 -0.1501
13429TIP3    H161778   4.929   5.820  14.524 -1.2544  0.0344 -0.6918
13429TIP3    H261779   5.072   5.774  14.502 -1.1421 -0.1460  0.3663
13430TIP3   OH261780   1.843   4.364  12.554  0.2289  0.5424 -0.0476
13430TIP3    H161781   1.818   4.372  12.462  0.6427  0.4823 -0.1675
13430TIP3    H261782   1.913   4.427  12.566  3.0277 -2.1388 -0.8320
13431TIP3   OH261783   0.288   5.645   1.150  0.2684  0.2265  0.4533
13431TIP3    H161784   0.283   5.566   1.095 -0.1244  0.8794 -0.4809
13431TIP3    H261785   0.372   5.638   1.194  0.8672 -0.0392 -0.6844
13432TIP3   OH261786   0.626   1.496   2.957 -0.1560 -0.6577 -0.2608
13432TIP3    H161787   0.677   1.532   3.030  0.6889 -1.9804 -0.1652
13432TIP3    H261788   0.535   1.515   2.979  0.2074  0.7497  0.1320
13433TIP3   OH261789   3.517   6.124  12.028  0.2001 -0.3921 -0.5909
13433TIP3    H161790   3.520   6.079  12.113  2.0285 -0.5107 -0.6929
13433TIP3    H261791   3.523   6.217  12.050  2.0178 -0.4805 -0.6267
13434TIP3   OH261792   6.251   3.299  13.129  0.1360 -0.3976 -0.1001
13434TIP3    H161793   6.302   3.372  13.094  0.9659 -1.2893 -0.8417
13434TIP3    H261794   6.317   3.233  13.152 -0.6017 -1.0063  0.3357
13435TIP3   OH261795   2.545   6.290  13.202  0.2197  0.3578  0.2721
13435TIP3    H161796   2.591   6.207  13.191 -2.6900 -1.6612  1.9313
13435TIP3    H261797   2.541   6.303  13.297  0.4981  2.3540  0.0487
13436TIP3   OH261798   4.832   5.443  16.516 -0.0019  0.1023 -0.3057
13436TIP3    H161799   4.757   5.503  16.517  0.3738  0.5830  0.7565
13436TIP3    H261800   4.844   5.421  16.424 -0.3464  1.4081 -0.6762
13437TIP3   OH261801   6.286   2.161  11.517 -0.8610  0.7461 -0.0799
13437TIP3    H161802   6.315   2.245  11.479 -0.4173  1.2398  1.3053
13437TIP3    H261803   6.239   2.185  11.596 -2.1953 -0.2554 -0.5256
13438TIP3   OH261804   0.841   6.354   0.180 -0.0041  0.0157  0.2076
13438TIP3    H161805   0.798   6.403   0.250 -0.8678 -0.4837  0.0377
13438TIP3    H261806   0.838   6.263   0.208  3.0773  0.1396  1.3060
13439TIP3   OH261807   6.179   3.559   5.129  0.3333 -0.1713 -0.0736
13439TIP3    H161808   6.122   3.595   5.060  0.6273 -1.2638 -0.9140
13439TIP3    H261809   6.176   3.465   5.115  1.0231 -0.3552  0.9425
13440TIP3   OH261810   0.725   0.038  15.000 -0.1156  0.7137 -0.0997
13440TIP3    H161811   0.679   0.068  14.921 -0.1920 -1.0246 -0.7708
13440TIP3    H261812   0.665   0.060  15.071  0.7383  3.9698 -0.2289
13441TIP3   OH261813   6.430   3.433  16.217 -0.0176 -0.6325  0.1673
13441TIP3    H161814   6.405   3.398  16.303 -1.9279 -0.5229 -0.2891
13441TIP3    H261815   6.493   3.371  16.182  1.9662  0.0948  2.2501
13442TIP3   OH261816   0.700   6.031  10.780  0.3906 -0.0879  0.1759
13442TIP3    H161817   0.663   6.070  10.701  0.9170 -0.3504 -0.2122
13442TIP3    H261818   0.669   5.941  10.779  0.3369 -0.0702  0.3037
13443TIP3   OH261819   3.955   4.535  15.675 -0.1001  0.2383 -0.2878
13443TIP3    H161820   3.985   4.621  15.647  1.3132 -0.3774 -0.7721
13443TIP3    H261821   3.889   4.553  15.743 -0.2554  1.6858 -0.7928
13444TIP3   OH261822   3.440   4.697   1.161  0.1981  0.1896 -0.4037
13444TIP3    H161823   3.359   4.707   1.211 -1.3585  2.5033 -3.0838
13444TIP3    H261824   3.435   4.609   1.124 -0.6778 -0.0014  0.1404
13445TIP3   OH261825   2.047   3.356  16.601 -0.1782  0.3385 -0.1439
13445TIP3    H161826   2.114   3.407  16.648  1.0659 -0.1530 -1.3165
13445TIP3    H261827   1.985   3.329  16.669  1.0432  0.4592  1.0564
13446TIP3   OH261828   6.806   5.129   4.235 -0.2702  0.1888  0.4151
13446TIP3    H161829   6.792   5.156   4.326  0.4817  0.6431  0.4001
13446TIP3    H261830   6.848   5.043   4.242 -0.8619 -0.1013  0.4817
13447TIP3   OH261831   3.556   0.160  13.572  0.1292 -0.2177 -0.7626
13447TIP3    H161832   3.598   0.223  13.630  1.4196 -1.4784 -0.2718
13447TIP3    H261833   3.484   0.208  13.532  1.8313  1.9655 -1.4092
13448TIP3   OH261834   2.130   5.204  10.554 -0.6459 -0.1543  0.1288
13448TIP3    H161835   2.108   5.124  10.507 -0.7603 -0.6334  0.9866
13448TIP3    H261836   2.046   5.248  10.568 -0.7754 -0.6589  1.0245
13449TIP3   OH261837   0.269   5.516   2.025 -0.1614 -0.3560 -0.9969
13449TIP3    H161838   0.288   5.517   2.118  3.2618  0.5176 -1.5542
13449TIP3    H261839   0.201   5.582   2.014 -1.3191 -1.1467  0.9319
13450TIP3   OH261840   2.297   3.886  17.088  0.2593  0.4341 -0.2819
13450TIP3    H161841   2.346   3.825  17.032 -1.3964 -0.0552 -1.2966
13450TIP3    H261842   2.338   3.878  17.174  0.1181 -2.1755 -0.3642
13451TIP3   OH261843   4.122   0.187   3.006 -0.0842  0.2023 -0.4630
13451TIP3    H161844   4.146   0.280   3.000 -1.1492  0.4711 -0.8159
13451TIP3    H261845   4.038   0.181   2.961  0.0917 -0.9922 -0.6608
13452TIP3   OH261846   3.861   1.994  13.193 -0.2480  0.5297  0.3276
13452TIP3    H161847   3.936   1.993  13.134  1.5465  2.3770  2.3568
13452TIP3    H261848   3.900   1.985  13.280 -2.2520  2.4837  1.5258
13453TIP3   OH261849   4.273   0.405   5.518 -0.2432 -0.6303 -0.0382
13453TIP3    H161850   4.185   0.408   5.555  0.1732 -3.0922  1.4240
13453TIP3    H261851   4.331   0.429   5.591  0.3898 -1.8995 -0.0773
13454TIP3   OH261852   5.123   6.245  14.379  0.0728  0.0416  0.0210
13454TIP3    H161853   5.042   6.292  14.361  0.5206  0.9506  0.3269
13454TIP3    H261854   5.114   6.163  14.331 -0.2714  0.8869 -1.4281
13455TIP3   OH261855   1.536   4.953  14.637  0.4397  0.3409  0.0725
13455TIP3    H161856   1.556   4.932  14.728 -1.9417 -0.9874  0.3649
13455TIP3    H261857   1.617   4.936  14.590  1.4711  0.2340  1.8085
13456TIP3   OH261858   4.098   4.751  15.561 -0.2230  0.0394 -0.4368
13456TIP3    H161859   4.113   4.747  15.466  0.0536  0.0749 -0.3958
13456TIP3    H261860   4.157   4.685  15.597  0.2108  0.5230 -0.2314
13457TIP3   OH261861   1.397   1.518   2.044  0.3217  0.2355 -0.0791
13457TIP3    H161862   1.305   1.517   2.068 -0.0869 -0.4152 -1.5670
13457TIP3    H261863   1.398   1.497   1.951  1.9687  0.3234 -0.1118
13458TIP3   OH261864   2.499   2.770  11.992  0.4122  0.0281  0.4164
13458TIP3    H161865   2.452   2.692  11.959  0.3479  1.2601 -2.8177
13458TIP3    H261866   2.433   2.839  11.991  1.1346  0.7236  0.5797
13459TIP3   OH261867   1.897   5.850   5.160  0.1301  0.4213 -0.6112
13459TIP3    H161868   1.927   5.925   5.209  2.7859 -2.1367  2.0645
13459TIP3    H261869   1.831   5.809   5.216 -1.6160  0.8777 -2.2263
13460TIP3   OH261870   6.190   4.727   2.349 -0.4859  0.0846  0.0801
13460TIP3    H161871   6.111   4.740   2.296 -0.2455 -1.2032 -0.6276
13460TIP3    H261872   6.210   4.634   2.341  2.0933  0.6588 -1.1419
13461TIP3   OH261873   1.639   0.749   2.210 -0.1961 -0.2567  0.2348
13461TIP3    H161874   1.729   0.734   2.237 -0.1885 -1.6068 -0.4339
13461TIP3    H261875   1.637   0.721   2.118 -0.7336  2.0470 -0.5230
13462TIP3   OH261876   4.960   4.821   2.544  0.3398  0.2296 -0.3700
13462TIP3    H161877   4.959   4.908   2.505 -0.5395  0.2227 -0.3949
13462TIP3    H261878   4.976   4.762   2.470 -0.1062  0.3015 -0.5281
13463TIP3   OH261879   4.960   0.382  11.582 -0.1468 -0.1408 -0.1787
13463TIP3    H161880   4.882   0.343  11.623  0.1533 -0.4819  0.0706
13463TIP3    H261881   5.020   0.308  11.570  0.0781  0.0965 -0.5083
13464TIP3   OH261882   5.434   5.793   0.215  0.4382 -0.4481 -0.0673
13464TIP3    H161883   5.487   5.781   0.136 -0.1178 -1.3027 -0.3190
13464TIP3    H261884   5.498   5.794   0.286  0.8261 -1.2359 -0.3888
13465TIP3   OH261885   1.735   6.025   5.401  0.1243 -0.2247  0.2461
13465TIP3    H161886   1.757   5.944   5.446 -1.1492 -0.6832  0.0838
13465TIP3    H261887   1.650   6.008   5.361  0.8176  0.4568 -1.6308
13466TIP3   OH261888   5.849   6.801  14.433  0.3852 -0.1521  0.0539
13466TIP3    H161889   5.882   6.712  14.423 -1.1429 -0.6284 -1.0809
13466TIP3    H261890   5.756   6.796  14.408 -0.2012  1.4078  1.6435
13467TIP3   OH261891   0.567   5.286   3.651  0.5504 -0.4154 -0.3979
13467TIP3    H161892   0.471   5.291   3.643  0.5576  1.7801  0.1103
13467TIP3    H261893   0.598   5.276   3.561 -0.1321 -0.2281 -0.6620
13468TIP3   OH261894   0.625   2.803  10.355 -0.6083  0.1141 -0.4474
13468TIP3    H161895   0.688   2.792  10.427 -1.9001 -1.8510  0.4981
13468TIP3    H261896   0.661   2.873  10.301  3.0321 -1.6680 -0.6438
13469TIP3   OH261897   5.290   0.193  12.633  0.4499  0.0205  0.5410
13469TIP3    H161898   5.364   0.228  12.682 -0.4760  2.2266  0.4830
13469TIP3    H261899   5.298   0.232  12.546  0.1395 -1.0620  0.0110
13470TIP3   OH261900   6.785   2.265  11.508  0.6655  0.0228 -0.6268
13470TIP3    H161901   6.817   2.264  11.598 -0.9249  0.9217 -0.0191
13470TIP3    H261902   6.776   2.172  11.485 -3.9168 -0.5238  2.0743
13471TIP3   OH261903   5.046   4.093   0.008  0.1415  0.0619  0.2349
13471TIP3    H161904   5.017   4.157   0.073  0.6309 -1.8828  2.5050
13471TIP3    H261905   5.008   4.011   0.037  1.0816 -1.0394 -1.4891
13472TIP3   OH261906   6.017   1.335   0.674  0.5448  0.8056  0.3480
13472TIP3    H161907   5.947   1.326   0.740  2.0238  0.5013  1.9551
13472TIP3    H261908   6.071   1.406   0.707  2.3619 -0.5802  0.4836
13473TIP3   OH261909   2.680   4.194   1.927 -0.4407  0.8693 -0.0653
13473TIP3    H161910   2.629   4.265   1.966 -2.2106  0.0992 -0.9028
13473TIP3    H261911   2.728   4.236   1.855 -2.1241  1.0920 -1.0947
13474TIP3   OH261912   2.680   0.741  10.658  0.2476 -0.1817 -0.0268
13474TIP3    H161913   2.752   0.695  10.702 -0.6929 -0.8609  0.8339
13474TIP3    H261914   2.604   0.685  10.671 -0.2034 -0.0776 -1.9896
13475TIP3   OH261915   4.961   2.392   4.193 -0.2099 -0.5120 -0.0434
13475TIP3    H161916   5.034   2.453   4.208 -0.9222 -0.1496  2.3185
13475TIP3    H261917   4.997   2.306   4.213 -0.2912 -0.3882  0.6480
13476TIP3   OH261918   4.879   6.792   2.320  0.4163  0.2252  0.0884
13476TIP3    H161919   4.949   6.831   2.372  0.3146  0.0589  0.3544
13476TIP3    H261920   4.903   6.811   2.229  1.3907 -0.7900  0.1107
13477TIP3   OH261921   3.739   3.806  12.894 -0.3873 -0.1436  0.0352
13477TIP3    H161922   3.708   3.721  12.927 -0.2458 -0.0216  0.4933
13477TIP3    H261923   3.786   3.844  12.968  3.5660 -1.6125 -1.4363
13478TIP3   OH261924   0.819   3.842  12.408  0.3683 -0.0696 -0.1785
13478TIP3    H161925   0.790   3.932  12.423 -0.6608 -0.7443  2.3134
13478TIP3    H261926   0.738   3.792  12.401  0.9312 -1.0218 -0.0536
13479TIP3   OH261927   3.003   6.404   4.660  0.1130  0.0769  0.2379
13479TIP3    H161928   2.951   6.324   4.649  0.1290  0.1376 -0.3414
13479TIP3    H261929   2.939   6.471   4.684  0.3073 -0.4348  2.4008
13480TIP3   OH261930   1.689   2.854  14.923 -0.1989  0.1048  0.2972
13480TIP3    H161931   1.766   2.798  14.937 -0.6124 -0.3937  0.5987
13480TIP3    H261932   1.722   2.943  14.933 -0.1257 -0.1449  2.8743
13481TIP3   OH261933   4.692   5.426   3.745 -0.8033  0.1615 -0.0685
13481TIP3    H161934   4.637   5.441   3.668 -0.5736  0.1527 -0.2344
13481TIP3    H261935   4.776   5.464   3.722 -0.7116  0.0942  0.1518
13482TIP3   OH261936   1.772   2.298  12.132  0.3304  0.1993  0.2028
13482TIP3    H161937   1.814   2.345  12.205  1.5991  1.9287 -1.5393
13482TIP3    H261938   1.837   2.300  12.062 -1.4370  0.0342 -1.5109
13483TIP3   OH261939   5.960   2.068   3.910 -0.2324 -0.5286 -0.8931
13483TIP3    H161940   5.952   2.138   3.846  1.2620 -0.0706 -0.6313
13483TIP3    H261941   5.875   2.024   3.909 -1.4006  1.5936 -0.7045
13484TIP3   OH261942   6.362   1.604  14.241 -0.1341 -0.4120  0.2730
13484TIP3    H161943   6.268   1.598  14.261 -0.1571 -2.4906 -0.2059
13484TIP3    H261944   6.386   1.693  14.266 -2.0892 -0.0371  1.0260
13485TIP3   OH261945   4.195   6.115  15.989  0.0098  0.1967  0.6648
13485TIP3    H161946   4.204   6.194  15.936 -0.0449 -0.3779 -0.2264
13485TIP3    H261947   4.101   6.109  16.007 -0.3295 -0.8296 -1.1618
13486TIP3   OH261948   3.864   2.894  12.671 -0.7956 -0.3932 -0.4783
13486TIP3    H161949   3.912   2.874  12.751 -0.8924 -0.4422 -0.4328
13486TIP3    H261950   3.931   2.892  12.602 -0.3204  1.5369 -0.1521
13487TIP3   OH261951   1.838   2.003  13.404  0.0633 -0.1057 -0.3057
13487TIP3    H161952   1.878   2.058  13.337 -1.1251 -0.7846 -1.6285
13487TIP3    H261953   1.834   1.916  13.365  0.8892 -0.9328  1.3240
13488TIP3   OH261954   4.049   4.196   1.964  0.1049 -0.5539 -0.1740
13488TIP3    H161955   4.139   4.200   1.931  0.6658  0.9331  1.3941
13488TIP3    H261956   4.017   4.286   1.956 -1.6554 -1.2632 -1.6973
13489TIP3   OH261957   2.555   4.392   4.623 -0.5975 -0.0906  0.6749
13489TIP3    H161958   2.568   4.305   4.661  0.8340  0.1172  0.7061
13489TIP3    H261959   2.640   4.416   4.586 -1.1561  1.0022  0.0279
13490TIP3   OH261960   5.452   2.580   2.394  0.4863  0.0083 -0.1060
13490TIP3    H161961   5.511   2.651   2.418  2.1057 -1.3704  0.2376
13490TIP3    H261962   5.380   2.585   2.457  0.9377  0.9052  0.3527
13491TIP3   OH261963   6.092   6.676  12.807 -0.1714 -0.7004 -0.4668
13491TIP3    H161964   6.064   6.691  12.898 -1.1995  1.6942 -1.0838
13491TIP3    H261965   6.033   6.732  12.755 -0.7012 -3.2302 -2.7923
13492TIP3   OH261966   1.839   2.803  14.004 -0.2143 -0.1098  0.2622
13492TIP3    H161967   1.866   2.739  14.071  1.8473 -1.1579 -1.4337
13492TIP3    H261968   1.897   2.785  13.930 -0.1258  3.2298 -0.6170
13493TIP3   OH261969   3.101   1.729   2.804 -0.2798 -0.2001 -0.3712
13493TIP3    H161970   3.108   1.794   2.735  2.4605  0.8148  0.6944
13493TIP3    H261971   3.023   1.754   2.854  0.4129  2.0131 -0.2968
13494TIP3   OH261972   4.575   1.787   1.404 -0.5796 -0.2268 -0.2303
13494TIP3    H161973   4.611   1.791   1.493  0.1073 -0.4387 -0.4909
13494TIP3    H261974   4.502   1.727   1.411  0.3483 -1.3795 -0.0811
13495TIP3   OH261975   1.970   6.304  16.190  0.2473  0.2939 -0.3902
13495TIP3    H161976   1.879   6.318  16.215 -0.4037  0.1409 -2.4924
13495TIP3    H261977   2.020   6.358  16.251 -1.3885  2.0320 -0.4987
13496TIP3   OH261978   3.808   5.043  16.258 -0.6434 -0.9259 -0.6501
13496TIP3    H161979   3.787   4.964  16.209 -0.9752 -1.8369  0.8827
13496TIP3    H261980   3.903   5.039  16.272 -1.0091 -2.7548  2.0643
13497TIP3   OH261981   4.249   4.791   2.905  0.1616 -0.3227 -0.3132
13497TIP3    H161982   4.159   4.809   2.932 -0.1687 -0.6855 -1.1506
13497TIP3    H261983   4.298   4.787   2.987 -1.0450 -2.6591  0.3752
13498TIP3   OH261984   0.241   5.028   2.704  0.0259 -0.2523 -0.3125
13498TIP3    H161985   0.318   5.000   2.654  0.8665 -1.9812  1.8058
13498TIP3    H261986   0.166   4.995   2.654  0.6755  0.4739 -1.8153
13499TIP3   OH261987   6.387   6.134  11.469  0.4797 -0.0534 -0.0281
13499TIP3    H161988   6.448   6.064  11.446 -1.4007 -2.1540  1.0795
13499TIP3    H261989   6.343   6.156  11.386  1.5578  0.3646 -0.5144
13500TIP3   OH261990   0.578   3.108  14.925  0.4762 -0.7261  0.0652
13500TIP3    H161991   0.547   3.019  14.941 -2.8027  0.2365 -0.3472
13500TIP3    H261992   0.534   3.161  14.991 -0.3971  1.0287 -1.8460
13501TIP3   OH261993   4.307   6.027  15.541  0.0707 -0.9266  0.0733
13501TIP3    H161994   4.213   6.047  15.546  0.1391 -0.0014 -1.5926
13501TIP3    H261995   4.310   5.932  15.527 -0.7753 -0.7056 -2.1306
13502TIP3   OH261996   6.672   2.259  10.587  0.0084  0.1228  0.2872
13502TIP3    H161997   6.582   2.288  10.572 -0.1994 -0.8385 -0.4077
13502TIP3    H261998   6.703   2.230  10.501  0.5391 -0.7622  0.7582
13503TIP3   OH261999   0.953   0.667  15.118 -0.1579 -0.0513  0.4102
13503TIP3    H162000   0.982   0.676  15.209 -1.3683  0.8991  0.7225
13503TIP3    H262001   0.984   0.747  15.075  0.7564 -0.6781 -0.1346
13504TIP3   OH262002   6.137   1.776  15.523  0.0614  0.6541 -0.2133
13504TIP3    H162003   6.230   1.783  15.499 -0.0760  3.5111 -0.2662
13504TIP3    H262004   6.126   1.840  15.593 -2.2302  1.7900 -1.5005
13505TIP3   OH262005   1.585   1.336  10.773  0.0356 -0.4607  0.2746
13505TIP3    H162006   1.619   1.415  10.815 -0.3901 -0.4605  0.6259
13505TIP3    H262007   1.545   1.286  10.844 -0.2512 -0.6974 -0.0488
13506TIP3   OH262008   2.790   6.114   5.666  0.2215  0.2834 -0.1793
13506TIP3    H162009   2.751   6.030   5.690 -0.9787  0.8347 -0.1197
13506TIP3    H262010   2.843   6.139   5.741  0.5171 -0.3764 -0.1649
13507TIP3   OH262011   6.731   1.112  12.504 -0.3168  0.1516 -0.1865
13507TIP3    H162012   6.679   1.161  12.569 -1.7615 -0.0211 -1.1540
13507TIP3    H262013   6.774   1.044  12.555  0.1383  1.1871  0.8809
13508TIP3   OH262014   4.895   3.270   4.236  0.6178 -0.1734 -0.1932
13508TIP3    H162015   4.896   3.217   4.316 -0.4457 -0.6771 -0.4993
13508TIP3    H262016   4.980   3.254   4.196 -0.0453 -2.5328 -0.8200
13509TIP3   OH262017   1.358   4.358   0.939 -0.3527  0.0625 -0.4810
13509TIP3    H162018   1.316   4.397   0.863 -0.3485 -0.2325 -0.6337
13509TIP3    H262019   1.338   4.265   0.934  2.0220 -0.4715 -1.7029
13510TIP3   OH262020   5.221   3.952   2.069 -0.1416  0.1725 -0.4518
13510TIP3    H162021   5.316   3.957   2.064  0.1307 -1.9610  1.3072
13510TIP3    H262022   5.196   3.899   1.993  0.1091  0.3993 -0.6931
13511TIP3   OH262023   2.168   2.825   0.375 -0.0454 -0.1080  0.1127
13511TIP3    H162024   2.231   2.757   0.348  1.3857  0.9837  0.5809
13511TIP3    H262025   2.160   2.882   0.299  0.3457  0.3438  0.4090
13512TIP3   OH262026   6.346   4.181   4.358 -0.5315 -0.2649 -0.1185
13512TIP3    H162027   6.381   4.266   4.385 -2.7582  0.5643  0.3355
13512TIP3    H262028   6.384   4.167   4.271  0.1667  1.0129 -0.0528
13513TIP3   OH262029   5.198   6.270   2.789 -0.1206 -0.5660  0.2221
13513TIP3    H162030   5.246   6.213   2.849  1.5281  1.5369  1.0441
13513TIP3    H262031   5.260   6.340   2.768 -2.5326  1.9142  0.7317
13514TIP3   OH262032   1.207   1.853   1.542 -0.1330 -0.4393 -0.0470
13514TIP3    H162033   1.205   1.899   1.626 -1.0958 -3.2502  1.6215
13514TIP3    H262034   1.212   1.923   1.476 -0.1605  1.9219  2.2784
13515TIP3   OH262035   3.229   0.544  10.558  0.0995 -0.4562  0.5320
13515TIP3    H162036   3.284   0.484  10.609  1.0276 -0.0178  0.0688
13515TIP3    H262037   3.227   0.624  10.609 -0.1329 -0.4772  0.5572
13516TIP3   OH262038   6.449   4.812   5.911 -0.7410  1.1730 -0.4671
13516TIP3    H162039   6.418   4.861   5.988  0.3476 -0.6366  1.2386
13516TIP3    H262040   6.529   4.857   5.886 -0.0534  0.6799  0.7281
13517TIP3   OH262041   0.613   0.051  11.408  0.4826 -0.1761  0.3106
13517TIP3    H162042   0.577   0.036  11.321  2.4602  0.2117 -0.6323
13517TIP3    H262043   0.708   0.054  11.394  0.8036  0.5810  2.3726
13518TIP3   OH262044   5.762   1.542  11.528  0.6118 -0.4336  0.2225
13518TIP3    H162045   5.738   1.633  11.545  0.7881 -0.1154 -1.1577
13518TIP3    H262046   5.705   1.491  11.586  0.0728  0.5215  0.5497
13519TIP3   OH262047   0.119   0.186   3.774 -0.7266 -0.4132  0.3725
13519TIP3    H162048   0.121   0.190   3.678  1.4432  0.6146  0.4151
13519TIP3    H262049   0.066   0.261   3.800 -0.0420  0.2213 -0.0108
13520TIP3   OH262050   1.646   0.075   0.369  0.5582 -0.2410 -0.4054
13520TIP3    H162051   1.562   0.088   0.325  1.3235  1.3683 -1.4752
13520TIP3    H262052   1.635   0.118   0.454 -0.2280 -1.5598  0.2131
13521TIP3   OH262053   0.095   5.460  12.248  0.2819  0.1450 -0.1011
13521TIP3    H162054   0.185   5.489  12.263  0.3106  0.2127 -0.3932
13521TIP3    H262055   0.041   5.525  12.292  0.3790  0.0152  0.2143
13522TIP3   OH262056   0.733   1.712  13.202  0.0547  0.4045  0.3497
13522TIP3    H162057   0.806   1.734  13.261 -1.5899 -1.9040  3.5302
13522TIP3    H262058   0.743   1.618  13.186 -1.6488  0.2463  0.0531
13523TIP3   OH262059   6.083   5.437  14.023 -0.1071  0.2733 -0.0045
13523TIP3    H162060   6.083   5.532  14.032  1.2420  0.2691  0.2741
13523TIP3    H262061   6.061   5.405  14.111 -0.7013  0.3232 -0.1321
13524TIP3   OH262062   1.952   5.791   4.401  0.8997 -0.3005 -0.1331
13524TIP3    H162063   1.943   5.819   4.492  0.3315 -0.1055 -0.2454
13524TIP3    H262064   1.878   5.731   4.387  1.7552 -1.3994 -0.0730
13525TIP3   OH262065   1.262   4.080   0.927  0.2053  0.3096 -0.3217
13525TIP3    H162066   1.194   4.030   0.882  0.0390  0.6399 -0.4411
13525TIP3    H262067   1.344   4.040   0.897  0.0638 -0.2894  0.0616
13526TIP3   OH262068   0.677   4.813   0.865 -0.3892  0.2653 -0.4739
13526TIP3    H162069   0.628   4.788   0.943  0.8840  0.4018  0.3955
13526TIP3    H262070   0.670   4.908   0.861  0.7891  0.4024  0.3476
13527TIP3   OH262071   5.504   1.261   5.714 -0.0600  0.4015 -0.0199
13527TIP3    H162072   5.487   1.340   5.661 -0.0609  1.0786  0.9573
13527TIP3    H262073   5.446   1.271   5.790  0.9757  0.1848  0.8254
13528TIP3   OH262074   5.148   0.488   0.168 -0.7530  0.1031  0.8440
13528TIP3    H162075   5.067   0.540   0.165  0.1917  1.5844 -0.8750
13528TIP3    H262076   5.149   0.441   0.085  0.5696  0.8144  0.4347
13529TIP3   OH262077   1.233   3.337   5.441  0.9159  0.2879  0.0198
13529TIP3    H162078   1.163   3.399   5.464 -0.1921 -1.1891  0.8370
13529TIP3    H262079   1.227   3.269   5.508  1.0042 -1.5487 -1.7416
13530TIP3   OH262080   3.561   4.528   3.798  0.0462  0.0938 -0.1177
13530TIP3    H162081   3.515   4.534   3.715 -0.4705  0.2249  0.1737
13530TIP3    H262082   3.578   4.434   3.809 -1.2910 -0.1178  0.3687
13531TIP3   OH262083   2.636   0.894   3.961  0.1942  0.0051 -0.2903
13531TIP3    H162084   2.674   0.944   3.889  1.2090  0.0412  0.2616
13531TIP3    H262085   2.575   0.954   4.003 -0.4027 -0.0132 -1.0941
13532TIP3   OH262086   0.845   4.233   5.251 -0.1211  0.6765  0.7178
13532TIP3    H162087   0.814   4.309   5.201 -2.5146 -1.0625 -0.6301
13532TIP3    H262088   0.834   4.259   5.342 -1.8205  1.6464  0.2857
13533TIP3   OH262089   2.705   1.873  14.957  0.2492 -0.0723 -0.1104
13533TIP3    H162090   2.647   1.947  14.972 -1.5484 -1.8103  2.2379
13533TIP3    H262091   2.698   1.855  14.864 -1.6290  0.8688 -0.1963
13534TIP3   OH262092   2.112   3.728  16.919  0.0406 -0.3296  0.3603
13534TIP3    H162093   2.137   3.820  16.908 -1.3215  0.0444  0.1000
13534TIP3    H262094   2.039   3.717  16.858  0.1415 -1.5714  0.4515
13535TIP3   OH262095   5.802   5.200  17.013 -0.1335 -0.7039 -0.2835
13535TIP3    H162096   5.716   5.237  17.028  0.8097  0.7743  1.8730
13535TIP3    H262097   5.815   5.137  17.083  0.0564 -1.8943 -1.3493
13536TIP3   OH262098   5.733   5.734   6.265  0.5472 -0.2453 -0.2170
13536TIP3    H162099   5.688   5.804   6.313  1.4552  0.9683 -1.0573
13536TIP3    H262100   5.789   5.692   6.331  1.3233  1.0010 -0.0409
13537TIP3   OH262101   0.239   2.947  15.709  0.0740  0.3122  0.2393
13537TIP3    H162102   0.270   2.964  15.798 -0.4127  1.6853  0.1718
13537TIP3    H262103   0.157   2.900  15.721 -1.1349  2.4166  0.6197
13538TIP3   OH262104   5.986   5.642   5.144  0.0423  0.0023 -0.4194
13538TIP3    H162105   6.040   5.614   5.218  0.3597 -0.2025 -0.7248
13538TIP3    H262106   5.952   5.561   5.107 -1.0994  0.1728  0.2309
13539TIP3   OH262107   2.628   5.471  10.535 -0.0716 -0.4143  0.3397
13539TIP3    H162108   2.703   5.531  10.536  0.0864 -0.6087  0.1112
13539TIP3    H262109   2.633   5.429  10.450 -1.2487  0.5900 -0.2558
13540TIP3   OH262110   5.994   2.168  15.990 -0.1273  0.7098 -0.5666
13540TIP3    H162111   5.971   2.258  16.012 -0.2924  1.2059 -2.5665
13540TIP3    H262112   5.961   2.116  16.063 -1.6469  2.0843 -0.2196
13541TIP3   OH262113   6.059   3.870  12.564  0.3323  0.2406  0.2583
13541TIP3    H162114   5.980   3.822  12.539  0.7451 -1.1051  1.4484
13541TIP3    H262115   6.091   3.825  12.642  2.5484  0.4492 -0.4645
13542TIP3   OH262116   6.206   6.357  11.265 -0.1434  0.1668 -0.9071
13542TIP3    H162117   6.301   6.360  11.261 -0.1935  1.4576 -3.6069
13542TIP3    H262118   6.183   6.269  11.235  0.1655 -0.3132  0.2156
13543TIP3   OH262119   4.756   1.067  16.510 -0.1855  0.2573  0.4094
13543TIP3    H162120   4.700   1.140  16.538 -0.8452 -0.2403  0.4199
13543TIP3    H262121   4.695   0.995  16.495  0.3518 -0.0150 -0.5476
13544TIP3   OH262122   5.759   0.833   0.329  0.2012  0.2070 -0.9509
13544TIP3    H162123   5.771   0.910   0.385 -0.2889  0.1371 -0.7447
13544TIP3    H262124   5.790   0.760   0.382  0.1735  0.1976 -0.9479
13545TIP3   OH262125   1.078   3.730   4.393  0.3895 -0.1763  0.2074
13545TIP3    H162126   1.075   3.656   4.454 -0.3781  1.0397  1.7378
13545TIP3    H262127   1.170   3.755   4.391  0.3414  0.2151  1.5023
13546TIP3   OH262128   5.247   2.039   4.636  0.7953 -0.6912 -0.3477
13546TIP3    H162129   5.216   1.950   4.622 -1.0929  0.0473 -1.2838
13546TIP3    H262130   5.177   2.094   4.601  0.7643  1.2105  2.3951
13547TIP3   OH262131   2.872   1.439   0.545  0.0916  0.4997 -0.1823
13547TIP3    H162132   2.959   1.407   0.568 -0.2631 -0.8896 -0.6656
13547TIP3    H262133   2.839   1.375   0.482 -0.6408  1.8964 -1.2648
13548TIP3   OH262134   1.850   5.963   6.365 -0.4065  0.1451 -0.6415
13548TIP3    H162135   1.889   5.911   6.295 -0.5568  0.7563 -1.1935
13548TIP3    H262136   1.798   6.029   6.319 -1.7161 -0.3633  0.0749
13549TIP3   OH262137   0.050   2.271  12.676  0.3761  0.2755 -0.4805
13549TIP3    H162138   0.110   2.271  12.751 -2.9542 -0.3884  2.4849
13549TIP3    H262139   0.032   2.364  12.660 -0.3130  0.4245  0.9391
13550TIP3   OH262140   0.287   4.939   1.669 -0.0602 -0.1751  0.1683
13550TIP3    H162141   0.242   4.949   1.585 -0.0341 -0.7009  0.0849
13550TIP3    H262142   0.341   5.017   1.678 -1.8047  1.0390  0.7801
13551TIP3   OH262143   1.548   3.269   1.866  0.0501 -0.5893 -0.0567
13551TIP3    H162144   1.635   3.299   1.892 -0.3199 -1.4270  2.4184
13551TIP3    H262145   1.557   3.174   1.855 -0.4837 -0.6528 -0.0084
13552TIP3   OH262146   6.593   3.459  10.776  0.3510 -0.3446 -0.6137
13552TIP3    H162147   6.607   3.371  10.811  0.0747 -0.6259 -1.1902
13552TIP3    H262148   6.518   3.493  10.825 -0.5427 -1.0413 -1.4608
13553TIP3   OH262149   2.726   4.721   2.648  0.0519  0.6784  0.6610
13553TIP3    H162150   2.815   4.696   2.623  0.1466  2.4656 -0.9896
13553TIP3    H262151   2.720   4.814   2.628 -3.0030  0.1163 -1.9755
13554TIP3   OH262152   0.820   0.469   1.667 -0.3485  0.4835  0.2449
13554TIP3    H162153   0.754   0.521   1.621 -0.7393 -1.2538 -1.2906
13554TIP3    H262154   0.894   0.529   1.680 -1.4796  1.9205  0.2609
13555TIP3   OH262155   5.379   2.340  16.578 -0.2517  0.5429  0.0050
13555TIP3    H162156   5.296   2.342  16.625  0.0854 -0.1232  0.6505
13555TIP3    H262157   5.444   2.316  16.644  0.7821  2.9023 -0.0648
13556TIP3   OH262158   0.656   3.852   5.262 -0.0289 -0.5078  0.3908
13556TIP3    H162159   0.670   3.893   5.177 -0.0345 -0.4241  0.4291
13556TIP3    H262160   0.587   3.906   5.303  0.5775 -0.0207  0.7962
13557TIP3   OH262161   2.982   4.495  15.400 -0.0893  0.1408 -0.2122
13557TIP3    H162162   3.040   4.520  15.328  0.8218  1.8603  1.0481
13557TIP3    H262163   3.026   4.528  15.478 -1.3566 -1.1190  1.0907
13558TIP3   OH262164   3.006   4.869  16.352  0.7444  0.0989 -0.4816
13558TIP3    H162165   2.949   4.876  16.276 -1.3997 -1.0588  0.9333
13558TIP3    H262166   3.011   4.958  16.387  1.7091  0.6349 -1.8599
13559TIP3   OH262167   6.735   2.812  11.572  0.7447 -0.9370  0.1038
13559TIP3    H162168   6.820   2.853  11.551 -0.0278  0.1794 -0.9894
13559TIP3    H262169   6.685   2.882  11.613 -0.4395 -0.8969 -1.3468
13560TIP3   OH262170   6.338   2.281  11.161  0.3716 -0.6507  0.3051
13560TIP3    H162171   6.307   2.352  11.216  2.1799  0.4669 -0.0334
13560TIP3    H262172   6.432   2.295  11.155  0.5043 -1.9543 -1.3594
13561TIP3   OH262173   3.064   2.424  15.822 -0.1397  0.4688  0.4057
13561TIP3    H162174   2.971   2.446  15.816  0.0187  1.2000  0.5937
13561TIP3    H262175   3.094   2.468  15.902  0.3573  0.1957  0.3714
13562TIP3   OH262176   4.721   4.422  12.714  1.0110 -0.0344 -0.6724
13562TIP3    H162177   4.808   4.401  12.749  1.0450 -1.3523 -1.4844
13562TIP3    H262178   4.737   4.496  12.655  1.1582  1.3485  1.0099
13563TIP3   OH262179   5.209   3.708  13.079 -0.6586  0.2145  0.5167
13563TIP3    H162180   5.238   3.680  13.166 -0.8558  0.7334  0.7552
13563TIP3    H262181   5.289   3.740  13.036 -0.9333  2.3830  1.4563
13564TIP3   OH262182   6.276   2.665  12.992  0.0970 -0.1267 -0.5773
13564TIP3    H162183   6.354   2.718  13.005  0.7546 -0.6937 -1.9411
13564TIP3    H262184   6.309   2.579  12.966 -0.9439 -1.1501  1.2405
13565TIP3   OH262185   5.671   3.751  16.533 -0.2544 -0.4055  0.2340
13565TIP3    H162186   5.754   3.703  16.545 -1.0542 -2.1687 -0.7682
13565TIP3    H262187   5.613   3.686  16.493 -1.5896  1.3053 -0.7119
13566TIP3   OH262188   1.041   6.356  14.539 -0.2817 -0.3369 -0.0396
13566TIP3    H162189   1.119   6.405  14.514 -0.5286  0.0927  0.0314
13566TIP3    H262190   1.067   6.264  14.532 -0.1681 -0.2246 -1.3069
13567TIP3   OH262191   3.375   1.404   4.388 -0.5533 -0.4269 -0.3102
13567TIP3    H162192   3.402   1.337   4.325 -1.1783 -1.3385  0.3507
13567TIP3    H262193   3.364   1.483   4.337  1.6942 -0.4235 -0.8766
13568TIP3   OH262194   6.094   1.243  12.587  0.7870 -0.4908 -0.4258
13568TIP3    H162195   6.090   1.156  12.625  2.0726 -0.4596 -0.1727
13568TIP3    H262196   6.104   1.302  12.662  1.7008 -0.2956 -0.6796
13569TIP3   OH262197   4.674   1.887  14.296  0.6019  0.7975 -0.2502
13569TIP3    H162198   4.662   1.921  14.384 -1.5746  1.8443 -0.8715
13569TIP3    H262199   4.764   1.908  14.274  1.0469  0.9361  1.5309
13570TIP3   OH262200   3.650   5.714  11.408 -0.0995 -0.2309 -0.1200
13570TIP3    H162201   3.586   5.672  11.465  0.5232  0.5972  1.2310
13570TIP3    H262202   3.615   5.801  11.391 -0.4385 -0.5817 -1.3006
13571TIP3   OH262203   5.862   2.751  11.125  0.0636  0.0915 -0.0370
13571TIP3    H162204   5.894   2.799  11.049  0.4430  2.1554  1.3578
13571TIP3    H262205   5.931   2.763  11.191 -0.9897 -0.2604  1.1640
13572TIP3   OH262206   0.541   2.961  15.784 -0.3348 -0.2794  0.4120
13572TIP3    H162207   0.470   2.903  15.812 -0.7641 -0.4227 -0.9012
13572TIP3    H262208   0.603   2.960  15.857 -1.3694 -0.6636  1.3182
13573TIP3   OH262209   4.514   2.483  13.927 -0.4977  0.0466 -0.2604
13573TIP3    H162210   4.470   2.455  13.847 -0.3014  0.9434 -0.6928
13573TIP3    H262211   4.529   2.402  13.976  2.6779 -1.1245 -2.7672
13574TIP3   OH262212   1.258   5.084  16.623  0.4105 -0.1290 -0.3426
13574TIP3    H162213   1.309   5.046  16.551  0.4438 -0.5841 -0.0820
13574TIP3    H262214   1.219   5.008  16.666 -0.8099  0.2264 -0.7781
13575TIP3   OH262215   3.762   4.718  15.164 -0.8251  0.5570  0.0968
13575TIP3    H162216   3.822   4.706  15.237  0.0782 -0.7446 -0.8279
13575TIP3    H262217   3.802   4.786  15.111  0.8424 -1.5051 -1.4466
13576TIP3   OH262218   3.286   2.933  11.705  0.2657 -0.3845 -0.4814
13576TIP3    H162219   3.368   2.958  11.663  0.4049 -0.4471 -0.2505
13576TIP3    H262220   3.248   2.868  11.646  0.9706 -1.2511 -0.0016
13577TIP3   OH262221   6.131   2.357  15.092 -0.1577 -0.1406  0.1509
13577TIP3    H162222   6.102   2.329  15.005  0.9627  0.7502 -0.5392
13577TIP3    H262223   6.224   2.375  15.081 -0.0004 -0.0158  1.5526
13578TIP3   OH262224   0.116   2.351   4.691  0.4378  0.3025 -0.0349
13578TIP3    H162225   0.021   2.342   4.695  0.4978 -0.6422 -0.3591
13578TIP3    H262226   0.131   2.441   4.661 -0.3803  0.1083 -1.0781
13579TIP3   OH262227   0.791   3.139  16.129 -0.5886  0.3702 -0.3597
13579TIP3    H162228   0.811   3.229  16.103  1.6175  0.6159  1.8462
13579TIP3    H262229   0.733   3.149  16.205 -1.8099 -0.1757 -1.1792
13580TIP3   OH262230   4.424   6.517  14.625  0.3303  0.1289  0.3946
13580TIP3    H162231   4.367   6.593  14.638  0.7429  0.6126 -0.5504
13580TIP3    H262232   4.368   6.453  14.582  0.0871  0.0415  0.8369
13581TIP3   OH262233   4.519   3.714  11.845  0.0139  0.0231  0.2833
13581TIP3    H162234   4.447   3.681  11.791 -1.1975 -0.2096  1.9381
13581TIP3    H262235   4.556   3.786  11.794 -0.7542 -0.4877 -1.0513
13582TIP3   OH262236   6.691   2.892   2.130 -0.3370 -0.1415 -0.4661
13582TIP3    H162237   6.695   2.903   2.225 -1.4041 -0.1645 -0.4116
13582TIP3    H262238   6.685   2.981   2.095  0.7984 -0.0853 -0.5731
13583TIP3   OH262239   6.001   5.787   4.423 -0.3518  0.0789  0.1202
13583TIP3    H162240   5.961   5.759   4.505 -0.0044 -0.2015  0.1963
13583TIP3    H262241   6.091   5.753   4.427 -0.6629 -0.9013 -0.8649
13584TIP3   OH262242   2.180   3.548   2.380 -0.2886 -0.6177  0.4542
13584TIP3    H162243   2.209   3.526   2.469 -3.4410 -2.5883  1.1438
13584TIP3    H262244   2.130   3.628   2.391 -1.5905 -1.4385  0.7151
13585TIP3   OH262245   3.790   3.784  12.591 -0.1346 -0.0399  0.5801
13585TIP3    H162246   3.713   3.817  12.544  0.7602 -0.6580 -1.4245
13585TIP3    H262247   3.767   3.793  12.683 -1.8656  1.5137  0.0608
13586TIP3   OH262248   3.854   3.753   6.290 -0.1020  0.2680  0.3175
13586TIP3    H162249   3.929   3.810   6.309  0.3863 -0.6932  1.3775
13586TIP3    H262250   3.890   3.665   6.291 -1.1239 -0.1678  0.1505
13587TIP3   OH262251   4.791   1.512   3.505 -0.3709 -0.3772  0.0696
13587TIP3    H162252   4.703   1.477   3.492 -0.7791  0.4609  0.4537
13587TIP3    H262253   4.841   1.438   3.540 -0.7824 -1.0007 -0.6221
13588TIP3   OH262254   2.738   2.165  15.036 -0.0167 -0.9979  0.2516
13588TIP3    H162255   2.656   2.180  14.990 -0.8756  0.5652  2.1364
13588TIP3    H262256   2.795   2.123  14.972 -1.5507 -0.1103 -1.7852
13589TIP3   OH262257   2.830   3.879  14.558  0.0748  0.0501 -0.4690
13589TIP3    H162258   2.757   3.827  14.525 -1.6204  1.6369  0.5881
13589TIP3    H262259   2.889   3.814  14.597 -1.1540 -1.2315 -0.6355
13590TIP3   OH262260   4.783   5.796  11.643 -0.0020 -0.0006 -0.6260
13590TIP3    H162261   4.715   5.738  11.678  1.2862 -2.0124 -1.2631
13590TIP3    H262262   4.814   5.846  11.719  0.5046 -1.9220  0.4978
13591TIP3   OH262263   1.745   1.688   1.074 -0.3825 -0.8340 -0.2487
13591TIP3    H162264   1.718   1.619   1.134  0.5695 -0.5268  0.5452
13591TIP3    H262265   1.736   1.648   0.987  0.5601 -2.1283  0.2085
13592TIP3   OH262266   3.940   6.145  12.782  0.1406 -0.1136 -0.2790
13592TIP3    H162267   4.024   6.119  12.819 -0.2294 -1.7754 -0.5264
13592TIP3    H262268   3.922   6.230  12.822  1.9951  0.3687 -0.3498
13593TIP3   OH262269   6.018   0.150   2.736 -0.2137  0.8182 -0.2019
13593TIP3    H162270   5.989   0.102   2.658  0.3018  1.3703 -0.7415
13593TIP3    H262271   5.945   0.210   2.755 -0.5311  0.3671  0.0123
13594TIP3   OH262272   5.746   6.148   2.578 -0.4989  0.3481  0.0826
13594TIP3    H162273   5.663   6.100   2.576  0.3711 -1.2925  1.2858
13594TIP3    H262274   5.734   6.215   2.645 -0.4226 -0.7991  1.2852
13595TIP3   OH262275   4.634   5.836   2.387  0.2970 -0.8025  0.1370
13595TIP3    H162276   4.595   5.772   2.447 -0.5243 -0.0907  0.3818
13595TIP3    H262277   4.577   5.913   2.393  0.8682 -0.2950 -0.6805
13596TIP3   OH262278   1.401   5.864   0.449 -1.2010 -0.1236  0.1157
13596TIP3    H162279   1.443   5.880   0.534 -2.2023 -1.0060  0.7978
13596TIP3    H262280   1.357   5.947   0.429  2.0867  1.4247 -1.4124
13597TIP3   OH262281   6.648   5.034   5.400 -0.2832 -0.1217  0.6917
13597TIP3    H162282   6.624   5.112   5.451 -1.3848 -0.1757  0.2766
13597TIP3    H262283   6.739   5.016   5.426 -0.4933  0.4270  1.8949
13598TIP3   OH262284   6.582   5.897   1.202 -0.1379 -0.5017 -0.2039
13598TIP3    H162285   6.539   5.920   1.285 -0.2861 -1.1671 -0.0853
13598TIP3    H262286   6.511   5.892   1.139  0.2648  2.9206 -1.1045
13599TIP3   OH262287   2.919   6.153   2.461 -0.2484  0.2257 -0.9057
13599TIP3    H162288   2.826   6.141   2.441  0.0752 -0.4082 -2.1197
13599TIP3    H262289   2.955   6.198   2.384  0.2683  1.3982 -0.0172
13600TIP3   OH262290   1.612   5.537  15.159 -0.4906 -0.1554 -0.2427
13600TIP3    H162291   1.615   5.632  15.147 -0.9903 -0.2251 -1.0074
13600TIP3    H262292   1.701   5.513  15.184  0.1188  0.2808 -1.8931
13601TIP3   OH262293   0.623   0.714  10.031  0.7626 -0.8299  0.2898
13601TIP3    H162294   0.615   0.803  10.066  1.2335 -0.9232  0.6504
13601TIP3    H262295   0.557   0.709   9.961  0.1964 -0.4532  0.7840
13602TIP3   OH262296   5.765   4.772   3.202  0.3575 -0.3952 -0.3758
13602TIP3    H162297   5.738   4.851   3.156  0.0470 -0.0067  0.4468
13602TIP3    H262298   5.829   4.803   3.267 -0.4748 -0.6521  0.6028
13603TIP3   OH262299   3.122   2.036  11.379  0.0729  0.1449  0.2585
13603TIP3    H162300   3.055   2.032  11.310 -0.0379 -0.6845  0.4137
13603TIP3    H262301   3.077   2.009  11.459 -0.0505  2.0402  0.8750
13604TIP3   OH262302   0.568   0.959   5.241 -0.0114  0.4081 -0.2674
13604TIP3    H162303   0.504   1.003   5.185 -0.6689  0.1440  0.2630
13604TIP3    H262304   0.645   0.948   5.185  0.3484  2.5952 -0.2784
13605TIP3   OH262305   1.435   0.799   5.896 -0.4388  0.2392 -0.4447
13605TIP3    H162306   1.387   0.846   5.828  0.0693 -0.4356 -1.2916
13605TIP3    H262307   1.367   0.772   5.959 -1.0360  0.1168 -1.1279
13606TIP3   OH262308   3.157   2.826   4.743 -0.0264  0.1450 -0.3546
13606TIP3    H162309   3.201   2.898   4.788 -1.4837  1.4289 -0.8686
13606TIP3    H262310   3.112   2.778   4.813  3.1083 -2.0154  0.3702
13607TIP3   OH262311   3.350   1.158   4.231  0.2905 -0.4066 -0.0452
13607TIP3    H162312   3.344   1.099   4.306  1.5360  0.1497  0.5264
13607TIP3    H262313   3.259   1.179   4.210 -0.1521 -1.9062  0.2100
13608TIP3   OH262314   6.350   5.486   6.190 -0.3045 -0.2874  0.3760
13608TIP3    H162315   6.394   5.423   6.248  1.0314  0.0914 -0.1861
13608TIP3    H262316   6.277   5.436   6.153  0.6213 -1.4834  0.0728
13609TIP3   OH262317   2.919   1.320  16.395  0.1383  0.4551 -0.2210
13609TIP3    H162318   2.901   1.257  16.325 -1.1585  1.5330 -0.8881
13609TIP3    H262319   2.885   1.277  16.474 -1.2125  0.5025 -0.7484
13610TIP3   OH262320   5.294   2.881  16.452 -0.0421  0.4509  0.2917
13610TIP3    H162321   5.253   2.804  16.412 -1.4164  0.3900  1.7315
13610TIP3    H262322   5.330   2.929  16.377 -0.7577 -0.6575 -0.8209
13611TIP3   OH262323   1.696   4.610  16.317 -0.0680 -0.0947  0.2218
13611TIP3    H162324   1.746   4.671  16.263  2.1396 -2.1253 -0.1874
13611TIP3    H262325   1.605   4.637  16.305  0.4903  0.7824 -2.9626
13612TIP3   OH262326   4.321   2.612   1.818  0.4996 -0.2253  0.0117
13612TIP3    H162327   4.311   2.687   1.877  0.7221 -0.6421  0.5885
13612TIP3    H262328   4.233   2.594   1.787  0.3836  0.0196  0.1964
13613TIP3   OH262329   6.647   0.471   0.131 -0.2319  0.3559 -0.1743
13613TIP3    H162330   6.738   0.460   0.103 -0.6577 -0.6077 -1.2445
13613TIP3    H262331   6.611   0.383   0.132 -1.6223  0.8676 -1.4123
13614TIP3   OH262332   6.056   6.571  14.838 -0.1813  0.0852 -0.0608
13614TIP3    H162333   6.062   6.537  14.749  0.3070 -0.2400  0.0933
13614TIP3    H262334   5.966   6.552  14.864  0.1783 -1.4574  0.1545
13615TIP3   OH262335   0.783   6.559  16.230  0.0739  0.0387  0.6923
13615TIP3    H162336   0.733   6.633  16.195  1.4455  1.1618  0.9739
13615TIP3    H262337   0.719   6.490  16.243 -0.8527  0.2885 -2.0156
13616TIP3   OH262338   1.514   4.139   0.729 -0.2098 -0.3560 -0.3557
13616TIP3    H162339   1.526   4.234   0.723  0.7074 -0.3805  0.7075
13616TIP3    H262340   1.539   4.106   0.643  1.4231  0.2052 -0.1327
13617TIP3   OH262341   5.090   1.888   3.621 -0.4603  0.6429 -0.0254
13617TIP3    H162342   5.000   1.917   3.611 -0.9303 -1.0878 -1.1476
13617TIP3    H262343   5.092   1.846   3.707 -0.4169  1.6680  0.4873
13618TIP3   OH262344   3.862   4.984   2.002 -0.1947 -0.6150  0.7867
13618TIP3    H162345   3.890   5.058   1.949  1.2309 -0.8779  1.1310
13618TIP3    H262346   3.768   4.997   2.014  0.5251  3.2131  3.9847
13619TIP3   OH262347   0.896   1.706   2.263  0.7607  0.0624  0.2974
13619TIP3    H162348   0.823   1.753   2.303  1.2042  0.1932  0.9639
13619TIP3    H262349   0.920   1.759   2.187  1.8454  1.4610  1.5410
13620TIP3   OH262350   6.489   2.910  11.936 -0.1238 -0.3385 -0.0720
13620TIP3    H162351   6.548   2.839  11.911 -1.1870 -1.9451  1.6603
13620TIP3    H262352   6.545   2.987  11.944  1.5924 -1.5772  0.5788
13621TIP3   OH262353   0.038   5.901  13.888  0.4603 -0.4505 -0.3870
13621TIP3    H162354   0.011   5.988  13.918 -0.3983 -0.2548 -1.6235
13621TIP3    H262355   0.117   5.881  13.938  0.4480  0.8780  0.1959
13622TIP3   OH262356   5.773   3.114  11.377 -0.4527 -0.2467  0.1795
13622TIP3    H162357   5.815   3.180  11.323 -0.3842 -0.8309 -0.4851
13622TIP3    H262358   5.738   3.163  11.452 -0.3111  0.5226 -0.2508
13623TIP3   OH262359   5.134   5.468   1.820  0.1320 -0.1831  0.2694
13623TIP3    H162360   5.218   5.462   1.774 -0.7045  0.9955 -1.5403
13623TIP3    H262361   5.132   5.390   1.875  2.7433  0.1706  1.0090
13624TIP3   OH262362   2.377   3.421  13.822 -0.9360  0.1212 -0.4052
13624TIP3    H162363   2.469   3.409  13.849 -0.3063  0.8130 -2.1405
13624TIP3    H262364   2.342   3.332  13.818 -0.5382 -0.1140  0.8524
13625TIP3   OH262365   5.523   4.708  11.214 -0.2007 -0.1960  0.0197
13625TIP3    H162366   5.480   4.676  11.134 -0.8866 -0.0748  0.3326
13625TIP3    H262367   5.451   4.726  11.274  0.1658  1.5979 -0.0140
13626TIP3   OH262368   1.520   2.607   0.260  0.2145 -0.2580 -0.1077
13626TIP3    H162369   1.554   2.645   0.341  1.3890 -1.2337 -0.1149
13626TIP3    H262370   1.598   2.585   0.209 -0.4990  1.3131 -2.0041
13627TIP3   OH262371   3.119   5.713  11.576 -0.0131  0.2952 -0.1644
13627TIP3    H162372   3.203   5.667  11.574 -0.2123 -0.1063  0.3109
13627TIP3    H262373   3.141   5.804  11.592  0.3998  0.4031 -1.2752
13628TIP3   OH262374   1.038   3.043   2.672 -0.1132  0.1741  0.0114
13628TIP3    H162375   0.972   3.080   2.730 -1.5977 -1.2006 -0.7223
13628TIP3    H262376   1.029   2.949   2.683  0.6083 -0.0740 -1.3201
13629TIP3   OH262377   2.105   6.014  12.621  0.0863  0.1801 -0.6931
13629TIP3    H162378   2.099   6.084  12.556  0.7142 -0.2962 -1.2765
13629TIP3    H262379   2.014   5.988  12.637 -0.2498  1.8054  0.3076
13630TIP3   OH262380   5.665   4.537   4.978  0.2447 -0.5097  0.2071
13630TIP3    H162381   5.593   4.592   4.949 -1.1084 -1.8837  0.8146
13630TIP3    H262382   5.691   4.574   5.062  1.0924  0.7038 -0.5515
13631TIP3   OH262383   5.410   1.581  14.494  0.1077 -0.2710  0.0618
13631TIP3    H162384   5.486   1.524  14.504  0.1470 -0.5259 -1.4044
13631TIP3    H262385   5.335   1.521  14.492  0.1479 -0.3240 -1.4635
13632TIP3   OH262386   2.849   2.985  15.468 -0.8933 -0.0357 -0.1969
13632TIP3    H162387   2.828   2.891  15.462  1.6586 -0.7537  0.6649
13632TIP3    H262388   2.780   3.028  15.418 -2.3868 -2.3304 -0.2897
13633TIP3   OH262389   2.403   4.131   2.537 -0.4214  0.3464  0.2621
13633TIP3    H162390   2.479   4.188   2.550  0.8783 -1.3082  0.1186
13633TIP3    H262391   2.406   4.069   2.609 -0.2502 -1.2012 -1.0177
13634TIP3   OH262392   4.413   1.703  12.550 -0.1546  0.0713  0.2074
13634TIP3    H162393   4.410   1.764  12.476 -0.3659  0.3376  0.4341
13634TIP3    H262394   4.436   1.757  12.625  0.9571 -0.3499  0.1828
13635TIP3   OH262395   5.117   0.071  12.807 -0.3503 -0.1999 -0.4837
13635TIP3    H162396   5.163   0.096  12.888  1.1319 -2.3967 -0.5588
13635TIP3    H262397   5.170   0.108  12.737  0.4059 -1.2840 -0.5141
13636TIP3   OH262398   1.988   3.571   2.164 -0.0051  0.0870 -0.0469
13636TIP3    H162399   1.935   3.592   2.241 -1.1993  1.8384 -1.2854
13636TIP3    H262400   2.077   3.592   2.189 -0.1751 -0.6878  1.2961
13637TIP3   OH262401   6.480   4.943  14.313  0.1094 -0.0519  0.5106
13637TIP3    H162402   6.563   4.926  14.270 -0.4871 -2.5337  0.2197
13637TIP3    H262403   6.502   4.951  14.406  0.7772  0.2892  0.3284
13638TIP3   OH262404   1.668   4.120   6.173  0.5237 -0.6970 -0.0003
13638TIP3    H162405   1.658   4.180   6.247  0.9119 -1.4582  0.6942
13638TIP3    H262406   1.760   4.129   6.146  1.0451 -2.1132  1.1562
13639TIP3   OH262407   2.071   2.717   4.596 -0.3111 -0.1699  0.4453
13639TIP3    H162408   2.071   2.649   4.664 -0.3511 -0.8290 -0.1945
13639TIP3    H262409   1.979   2.738   4.583 -0.3980 -0.8839 -0.2010
13640TIP3   OH262410   6.229   1.976   2.547 -0.1192  0.7360 -0.0835
13640TIP3    H162411   6.169   1.905   2.571 -2.4247  1.9326 -1.8184
13640TIP3    H262412   6.232   2.032   2.624 -2.3045  1.2668 -0.3120
13641TIP3   OH262413   3.030   0.638  15.337  0.1472  0.0639  0.4828
13641TIP3    H162414   3.060   0.638  15.247  1.0245  0.0019  0.7711
13641TIP3    H262415   2.945   0.682  15.334 -0.0021 -0.2763 -0.4213
13642TIP3   OH262416   3.896   1.485  11.980 -0.0549 -0.0150 -0.1829
13642TIP3    H162417   3.930   1.453  12.063  0.7617 -0.0226 -0.5116
13642TIP3    H262418   3.811   1.442  11.971 -0.1343 -0.0441  0.6210
13643TIP3   OH262419   2.169   1.448  15.593 -0.0049  0.3808  0.4203
13643TIP3    H162420   2.119   1.416  15.668 -0.9743  0.4778 -0.1637
13643TIP3    H262421   2.218   1.523  15.626  0.7861 -0.4890  1.3236
13644TIP3   OH262422   6.041   2.328   5.336  0.0151  0.1706 -0.1057
13644TIP3    H162423   6.032   2.233   5.331 -0.5799  0.2324 -0.3300
13644TIP3    H262424   5.970   2.356   5.394 -0.3558  0.5540 -0.7223
13645TIP3   OH262425   3.738   6.132  14.363 -0.5518 -0.0321  0.3630
13645TIP3    H162426   3.758   6.199  14.298  0.6890 -0.9418 -0.2218
13645TIP3    H262427   3.666   6.082  14.324 -0.4843  0.0482  0.1318
13646TIP3   OH262428   5.624   1.046  13.532 -0.1887 -0.0066 -0.6098
13646TIP3    H162429   5.709   1.090  13.532 -0.0103 -0.2701  1.4256
13646TIP3    H262430   5.643   0.957  13.502  0.1128  0.1490 -0.8826
13647TIP3   OH262431   0.679   2.697   3.701  0.2031 -0.4001  1.0044
13647TIP3    H162432   0.771   2.698   3.674 -0.2910  0.0171 -0.8515
13647TIP3    H262433   0.673   2.765   3.767  0.9610  0.6273  0.0580
13648TIP3   OH262434   3.965   3.679  15.737  0.6190 -0.8727  1.0689
13648TIP3    H162435   3.893   3.685  15.799 -0.4376 -0.5380 -0.1494
13648TIP3    H262436   3.959   3.590  15.702  0.9667 -0.9298  1.1474
13649TIP3   OH262437   5.062   6.613   4.189  0.6888 -1.1435 -0.2351
13649TIP3    H162438   5.094   6.571   4.269  0.6795 -1.5616 -0.4478
13649TIP3    H262439   5.140   6.653   4.151  1.2835 -3.3539 -1.4858
13650TIP3   OH262440   3.298   0.708   1.543 -0.0208 -0.6263 -0.3522
13650TIP3    H162441   3.264   0.639   1.600 -1.4185 -1.3476 -1.9893
13650TIP3    H262442   3.375   0.669   1.502  0.9207 -0.1452  0.8849
13651TIP3   OH262443   3.120   5.282  16.649  0.0793 -0.0904  0.0288
13651TIP3    H162444   3.212   5.293  16.672  0.5255 -0.5550 -1.4611
13651TIP3    H262445   3.078   5.363  16.678  1.1156  0.5058 -0.1113
13652TIP3   OH262446   6.213   0.436   0.276  0.5286  0.4219 -0.0561
13652TIP3    H162447   6.262   0.396   0.348 -2.4942 -1.3025  1.2289
13652TIP3    H262448   6.209   0.367   0.209  0.5043  0.8295 -0.4771
13653TIP3   OH262449   5.182   1.193   1.257  0.5678  0.6906 -0.3539
13653TIP3    H162450   5.160   1.156   1.172 -0.6635 -0.5129  0.4590
13653TIP3    H262451   5.190   1.118   1.316 -3.8234  1.5486  1.7741
13654TIP3   OH262452   4.227   4.807   5.793 -0.0090  0.3944  0.3071
13654TIP3    H162453   4.259   4.829   5.706  0.7966 -1.3292  0.1280
13654TIP3    H262454   4.300   4.762   5.835 -1.5099 -1.9147  0.5898
13655TIP3   OH262455   5.365   1.524  11.246  0.2332 -0.3788  0.0753
13655TIP3    H162456   5.456   1.548  11.230  0.0112  0.0695 -0.5291
13655TIP3    H262457   5.325   1.518  11.160 -0.3799 -0.3020  0.3453
13656TIP3   OH262458   2.271   2.101   1.926 -0.3947  0.2151 -0.1092
13656TIP3    H162459   2.313   2.164   1.984 -0.0577 -0.4442  0.3742
13656TIP3    H262460   2.281   2.139   1.838  2.1357 -0.3776 -0.1489
13657TIP3   OH262461   0.687   2.543  11.353 -0.0854 -0.4875 -0.0323
13657TIP3    H162462   0.643   2.467  11.313  0.1659  0.3230 -1.9964
13657TIP3    H262463   0.713   2.597  11.278  1.0563  0.8223  1.2482
13658TIP3   OH262464   3.976   6.526   1.097 -0.4587  0.0575  0.2079
13658TIP3    H162465   3.882   6.536   1.087 -0.7477  0.2779  2.7329
13658TIP3    H262466   4.004   6.605   1.144  0.8803 -0.3588  0.1702
13659TIP3   OH262467   3.160   4.166  16.999 -0.3558  0.5365  0.6642
13659TIP3    H162468   3.168   4.097  17.065  1.0211 -0.9753 -0.9814
13659TIP3    H262469   3.125   4.122  16.922 -0.8236  2.0093 -0.0082
13660TIP3   OH262470   3.220   1.113  14.218 -0.1896  0.3764  0.1713
13660TIP3    H162471   3.140   1.105  14.271  0.4268  2.2263  1.4858
13660TIP3    H262472   3.240   1.206  14.219  0.5439  0.3179 -2.4054
13661TIP3   OH262473   1.522   5.716  12.087 -0.2411 -0.6212 -0.6535
13661TIP3    H162474   1.440   5.765  12.081 -0.2525 -0.3910  0.8258
13661TIP3    H262475   1.588   5.783  12.103 -0.2159 -1.0161  1.1192
13662TIP3   OH262476   2.678   5.622  11.536  0.2822 -0.2809  0.2224
13662TIP3    H162477   2.707   5.693  11.594 -0.1326 -1.7811  2.4133
13662TIP3    H262478   2.757   5.570  11.520  0.3712  0.0664 -0.4917
13663TIP3   OH262479   0.669   3.419   5.489 -0.3701  0.1401 -0.4560
13663TIP3    H162480   0.620   3.464   5.557  1.1436 -0.5598  1.1825
13663TIP3    H262481   0.644   3.462   5.407 -3.2493  0.1402  0.3450
13664TIP3   OH262482   3.792   1.650   0.909  0.0715 -0.3041 -0.1980
13664TIP3    H162483   3.870   1.696   0.939 -0.2901 -1.3593  2.7002
13664TIP3    H262484   3.825   1.568   0.873  0.3591 -0.8608  1.2540
13665TIP3   OH262485   1.130   6.687  13.035 -0.2916  0.0199  0.1562
13665TIP3    H162486   1.057   6.748  13.024  0.5715  0.8089 -1.3829
13665TIP3    H262487   1.189   6.706  12.962  1.0204 -1.2297  0.8501
13666TIP3   OH262488   1.101   2.825  16.113  0.4670  0.2748 -0.3838
13666TIP3    H162489   1.110   2.748  16.169 -0.8899 -0.5527 -1.2494
13666TIP3    H262490   1.031   2.876  16.153  1.4227  1.1404  0.2381
13667TIP3   OH262491   4.623   3.889  11.679 -0.5132  0.2792  0.0060
13667TIP3    H162492   4.584   3.958  11.625  0.0864  0.7464  0.1678
13667TIP3    H262493   4.696   3.856  11.627 -0.0447  0.6068  0.4419
13668TIP3   OH262494   5.803   1.721  16.712  0.4422 -0.1286  0.7047
13668TIP3    H162495   5.827   1.656  16.647 -0.2420  0.7171 -0.4288
13668TIP3    H262496   5.874   1.719  16.776  1.5754 -0.3676 -0.5263
13669TIP3   OH262497   3.143   3.406  16.648  0.3453 -0.1679  0.0670
13669TIP3    H162498   3.196   3.335  16.684  2.5445  0.6991 -1.2650
13669TIP3    H262499   3.095   3.441  16.723  1.1922 -1.3915  1.2241
13670TIP3   OH262500   4.180   1.285   2.392  0.0041 -0.2767 -0.1819
13670TIP3    H162501   4.227   1.259   2.471  0.5228 -0.1560 -0.4440
13670TIP3    H262502   4.168   1.204   2.342  0.4077 -0.2293 -0.3607
13671TIP3   OH262503   1.383   3.102  15.841  0.0518  0.6889 -0.1176
13671TIP3    H162504   1.387   3.113  15.746 -0.2209 -0.7728 -0.3248
13671TIP3    H262505   1.296   3.066  15.857  1.2617 -2.3348  0.2744
13672TIP3   OH262506   3.623   1.842  13.275 -0.4132  0.3026 -0.1060
13672TIP3    H162507   3.645   1.834  13.368 -0.4492  0.7096 -0.0592
13672TIP3    H262508   3.685   1.906  13.241 -0.0903 -0.1943 -0.4742
13673TIP3   OH262509   4.882   2.418   5.236  0.0824  0.2313  0.0236
13673TIP3    H162510   4.788   2.412   5.254  0.0077 -1.1608 -0.6935
13673TIP3    H262511   4.889   2.486   5.169 -0.5727 -0.5442 -0.8522
13674TIP3   OH262512   2.861   6.546  14.560 -0.0237  0.5140  0.3208
13674TIP3    H162513   2.937   6.488  14.565  0.5847  0.9931 -2.2086
13674TIP3    H262514   2.785   6.488  14.565  0.5459 -0.2230  0.4032
13675TIP3   OH262515   6.413   0.304  16.020 -0.3384 -0.6248 -0.5173
13675TIP3    H162516   6.424   0.398  16.011  4.8587 -0.8483  0.0852
13675TIP3    H262517   6.432   0.287  16.113 -2.6320 -2.2168 -0.2710
13676TIP3   OH262518   1.281   1.166  15.947  0.7183 -0.2829 -0.7426
13676TIP3    H162519   1.304   1.199  16.034  0.1493 -0.9197 -0.3441
13676TIP3    H262520   1.292   1.242  15.890 -1.3622  0.8997  0.2858
13677TIP3   OH262521   5.767   1.060  13.050 -0.2117  0.1550 -0.0784
13677TIP3    H162522   5.820   1.065  12.970 -0.0149  0.0616  0.0465
13677TIP3    H262523   5.823   1.097  13.118  0.3771 -1.5729  0.4076
13678TIP3   OH262524   4.212   1.624  15.343  0.1286  0.4173 -0.0043
13678TIP3    H162525   4.152   1.698  15.330 -1.4205 -0.5625  1.2729
13678TIP3    H262526   4.205   1.603  15.436  1.4451 -0.6103 -0.1091
13679TIP3   OH262527   1.978   6.113   4.756  0.1825 -0.1686 -0.5166
13679TIP3    H162528   1.940   6.162   4.684 -0.0158  0.6983  0.1608
13679TIP3    H262529   2.069   6.140   4.758  0.4956 -1.1098 -1.1880
13680TIP3   OH262530   2.697   4.275  15.195  0.1810 -0.1870  0.0050
13680TIP3    H162531   2.679   4.334  15.269  0.6222  0.1268 -0.1321
13680TIP3    H262532   2.714   4.334  15.121 -0.6341 -0.4937 -0.4516
13681TIP3   OH262533   5.608   3.464  15.270 -0.2822  0.4579 -0.2188
13681TIP3    H162534   5.701   3.485  15.257 -0.1633 -0.0887 -0.2778
13681TIP3    H262535   5.567   3.489  15.187  0.0003 -0.3304 -0.6106
13682TIP3   OH262536   4.906   6.635   0.691  0.1099 -0.4106 -0.2097
13682TIP3    H162537   4.971   6.598   0.631 -0.7320 -0.2908 -1.2295
13682TIP3    H262538   4.823   6.596   0.663 -0.4985  0.7209 -0.0249
13683TIP3   OH262539   3.956   1.596  11.533  0.9580  0.5678 -0.3919
13683TIP3    H162540   3.867   1.597  11.499  1.3040 -2.7815 -1.7528
13683TIP3    H262541   3.946   1.594  11.628 -0.2228  3.2154 -0.3613
13684TIP3   OH262542   1.176   6.316   1.497  0.1884  0.4480 -0.7353
13684TIP3    H162543   1.152   6.365   1.419 -0.3848  1.6970  0.2025
13684TIP3    H262544   1.263   6.349   1.520  0.3922  0.0223 -0.8764
13685TIP3   OH262545   3.893   5.878   5.305  0.3408  0.0787  0.2077
13685TIP3    H162546   3.933   5.797   5.338 -1.2404 -0.1002  1.8053
13685TIP3    H262547   3.801   5.856   5.293  0.0469  1.4169 -0.1634
13686TIP3   OH262548   5.628   4.757   0.702  0.6120 -0.3622  0.0861
13686TIP3    H162549   5.670   4.755   0.615  0.7069 -1.3170  0.1473
13686TIP3    H262550   5.677   4.693   0.754 -0.5135 -1.0406  0.3490
13687TIP3   OH262551   6.209   3.440   4.540  0.0484 -0.1627  0.1254
13687TIP3    H162552   6.255   3.449   4.457  1.7073  0.5621  1.0723
13687TIP3    H262553   6.174   3.350   4.539  2.0253 -0.9720 -0.3996
13688TIP3   OH262554   1.484   3.077   5.460  0.0654  0.4573  0.3197
13688TIP3    H162555   1.394   3.049   5.442  0.3641 -0.6097  0.4256
13688TIP3    H262556   1.530   3.064   5.378  0.3950 -0.1508  0.5941
13689TIP3   OH262557   0.295   5.813  12.220  0.5147 -0.0565 -0.2962
13689TIP3    H162558   0.245   5.893  12.236 -0.5282 -0.7475  0.0420
13689TIP3    H262559   0.250   5.772  12.146 -0.9522 -1.8703  1.4960
13690TIP3   OH262560   2.930   1.738   0.101  0.0227 -0.0763 -0.3388
13690TIP3    H162561   2.914   1.698   0.015  2.5745 -2.2854  0.0960
13690TIP3    H262562   3.015   1.780   0.092  0.9032 -1.3684  1.3745
13691TIP3   OH262563   1.135   6.054   1.652  0.0395 -0.1077  0.0701
13691TIP3    H162564   1.079   6.039   1.576  2.6832 -0.0210 -2.0429
13691TIP3    H262565   1.186   6.132   1.629 -0.0528  0.7665  2.5805
13692TIP3   OH262566   4.865   3.675   1.929 -0.2905 -0.2541  0.0317
13692TIP3    H162567   4.854   3.727   1.849  1.1832 -1.2522 -0.8817
13692TIP3    H262568   4.786   3.622   1.934 -0.7670  0.4088 -0.2975
13693TIP3   OH262569   0.312   2.562  17.078  0.0804  0.4130 -0.3490
13693TIP3    H162570   0.230   2.610  17.087 -0.4728 -0.5096 -0.3455
13693TIP3    H262571   0.298   2.480  17.127  0.8112  0.0166 -0.7783
13694TIP3   OH262572   2.178   0.558   5.218 -0.0482 -0.6112 -0.3694
13694TIP3    H162573   2.238   0.509   5.161 -0.3877 -0.5331 -0.8008
13694TIP3    H262574   2.233   0.626   5.257  0.3138 -1.0142 -0.1650
13695TIP3   OH262575   5.458   1.214  12.804 -0.4314  0.6652 -0.3769
13695TIP3    H162576   5.490   1.127  12.828 -1.6855 -0.1478 -1.4904
13695TIP3    H262577   5.515   1.275  12.851  1.0868 -0.7364 -0.3205
13696TIP3   OH262578   3.934   0.797   4.005  0.1836 -0.6445 -0.0309
13696TIP3    H162579   3.956   0.877   4.051  0.7524 -1.2488  0.7690
13696TIP3    H262580   3.922   0.824   3.914 -1.8496  0.7216  0.5766
13697TIP3   OH262581   1.027   2.747  12.003  0.1161  0.0594 -0.0930
13697TIP3    H162582   1.097   2.713  11.947  1.5067  0.8914  1.0570
13697TIP3    H262583   0.981   2.669  12.033  2.4654 -0.8346  1.5020
13698TIP3   OH262584   4.809   1.053   3.478 -0.2170  0.2416 -0.1109
13698TIP3    H162585   4.878   1.119   3.478  0.3032 -0.1712  2.7227
13698TIP3    H262586   4.728   1.103   3.486 -0.1931  0.6406 -1.8369
13699TIP3   OH262587   2.815   1.278   3.069 -0.0510 -0.2112  0.3540
13699TIP3    H162588   2.846   1.343   3.006  0.3437 -1.4174 -0.7384
13699TIP3    H262589   2.729   1.309   3.096  0.0948  0.7122 -0.2184
13700TIP3   OH262590   5.493   4.572  13.699 -0.0300  0.1368  0.2795
13700TIP3    H162591   5.529   4.647  13.652  0.7431  0.0633  0.7344
13700TIP3    H262592   5.570   4.521  13.724 -0.5734 -1.3596 -0.9135
13701TIP3   OH262593   1.750   2.545   1.468 -0.0913  0.0825 -0.1896
13701TIP3    H162594   1.691   2.610   1.507 -1.5101 -2.4091  2.2160
13701TIP3    H262595   1.823   2.540   1.530 -0.7133 -1.5437  0.4725
13702TIP3   OH262596   2.134   2.566  13.606  0.7113 -0.7911 -0.0318
13702TIP3    H162597   2.227   2.587  13.612  0.3932  0.3419  1.5507
13702TIP3    H262598   2.125   2.481  13.648  0.9845 -0.7736  0.0644
13703TIP3   OH262599   3.751   1.295  16.200 -0.0755  0.0064  0.4676
13703TIP3    H162600   3.715   1.382  16.183 -0.5269 -0.3564 -0.5168
13703TIP3    H262601   3.829   1.311  16.253 -0.5791  0.9505  0.9486
13704TIP3   OH262602   3.829   6.043  11.605  0.2502 -0.7196  0.0094
13704TIP3    H162603   3.763   5.980  11.636  0.0039 -0.4303  0.0851
13704TIP3    H262604   3.874   5.998  11.534 -0.5151 -0.6535 -0.5267
13705TIP3   OH262605   4.720   6.310  12.165 -0.0601  0.2239  0.6095
13705TIP3    H162606   4.700   6.233  12.218  0.5080 -0.1712  0.2652
13705TIP3    H262607   4.770   6.275  12.091 -2.0530  0.5292 -0.9644
13706TIP3   OH262608   3.147   5.928  14.411  0.9419 -0.3147  0.1306
13706TIP3    H162609   3.106   6.010  14.384 -0.1088 -0.7405  0.3779
13706TIP3    H262610   3.224   5.920  14.355  0.2423  0.1033 -0.9185
13707TIP3   OH262611   1.358   1.863   2.038 -0.0294  0.4691  0.1230
13707TIP3    H162612   1.437   1.848   2.090 -0.2219  0.8959  0.5489
13707TIP3    H262613   1.351   1.958   2.033  0.2096  0.4406 -1.0402
13708TIP3   OH262614   3.124   1.150   1.570  0.0962 -0.4184  0.1047
13708TIP3    H162615   3.113   1.063   1.530 -1.3718 -1.0443  1.6999
13708TIP3    H262616   3.144   1.131   1.662  2.6638  0.9638 -0.0729
13709TIP3   OH262617   0.178   2.212   1.096  0.5658 -0.2977 -0.5746
13709TIP3    H162618   0.135   2.150   1.038  1.0135  0.0783 -1.3175
13709TIP3    H262619   0.243   2.256   1.041  0.1907  0.8949 -0.1027
13710TIP3   OH262620   3.249   3.819   5.053 -0.0480  0.3033 -0.1872
13710TIP3    H162621   3.194   3.747   5.021  0.8582 -0.6556  0.3191
13710TIP3    H262622   3.333   3.806   5.009  0.4562  0.4142  0.7170
13711TIP3   OH262623   2.575   6.076   0.201  0.8032  0.1028 -0.3280
13711TIP3    H162624   2.496   6.099   0.250  0.1924  0.2104 -1.3422
13711TIP3    H262625   2.647   6.105   0.257  0.1077  2.3776 -0.5200
13712TIP3   OH262626   0.872   2.758   6.053  0.5047 -0.6553  0.1616
13712TIP3    H162627   0.907   2.669   6.053  1.8786 -0.1546  1.4887
13712TIP3    H262628   0.945   2.812   6.024 -0.1981  0.1042 -0.2451
13713TIP3   OH262629   2.711   3.575  11.533 -0.0662 -0.2405 -0.1547
13713TIP3    H162630   2.755   3.491  11.528  0.8479  0.1851  0.4904
13713TIP3    H262631   2.618   3.554  11.526  0.1509 -1.2957 -0.0066
13714TIP3   OH262632   0.374   3.612  16.703 -0.3393 -0.5662 -0.3019
13714TIP3    H162633   0.375   3.688  16.761 -0.0341 -0.9898  0.2542
13714TIP3    H262634   0.465   3.599  16.678 -0.3239 -1.0434 -0.0061
13715TIP3   OH262635   3.586   2.251   3.548  0.2454 -0.3371  0.6991
13715TIP3    H162636   3.555   2.295   3.627  1.6565 -0.7255  1.5095
13715TIP3    H262637   3.657   2.307   3.515 -0.0376 -0.4047 -0.0540
13716TIP3   OH262638   2.635   0.079  13.955 -0.2682  0.3208 -0.2187
13716TIP3    H162639   2.668   0.003  14.003 -0.1597  1.2194  1.1663
13716TIP3    H262640   2.580   0.042  13.886 -0.0090 -1.0193  0.2724
13717TIP3   OH262641   5.105   0.245   4.567  0.5252 -0.2637  0.1630
13717TIP3    H162642   5.157   0.210   4.494  1.4101 -1.1573  1.1848
13717TIP3    H262643   5.152   0.217   4.645 -0.3915  0.7038  1.0889
13718TIP3   OH262644   4.921   2.945   6.105 -0.3029 -0.2286  0.0472
13718TIP3    H162645   4.945   2.852   6.103  0.8460  0.0090  1.4161
13718TIP3    H262646   4.984   2.985   6.165 -1.2246  1.3198  0.0318
13719TIP3   OH262647   6.689   1.874  15.238  0.4758  0.0648 -0.0720
13719TIP3    H162648   6.701   1.855  15.331  1.9244  0.7064 -0.1064
13719TIP3    H262649   6.646   1.796  15.203  1.9390 -1.1326  0.7033
13720TIP3   OH262650   0.528   0.676  13.068 -0.6445  0.1884  0.3409
13720TIP3    H162651   0.475   0.741  13.114 -0.1571  1.0105 -0.2162
13720TIP3    H262652   0.606   0.724  13.040 -1.2087 -0.0619 -1.9128
13721TIP3   OH262653   2.451   4.374  15.466 -0.1223  0.2804 -0.0126
13721TIP3    H162654   2.546   4.387  15.466 -0.0795  0.1343  1.1507
13721TIP3    H262655   2.428   4.365  15.559 -1.3634  0.9584 -0.2251
13722TIP3   OH262656   1.726   5.443  11.299 -0.4085 -0.2383 -0.0761
13722TIP3    H162657   1.798   5.496  11.266 -0.2047 -0.7208 -0.4134
13722TIP3    H262658   1.762   5.395  11.374  0.3745 -2.3725 -1.7194
13723TIP3   OH262659   5.787   1.733  12.963 -0.0247  0.5229 -0.2614
13723TIP3    H162660   5.762   1.674  13.034 -0.8775  1.2013  0.0222
13723TIP3    H262661   5.712   1.792  12.954 -0.1234  0.1943 -1.9972
13724TIP3   OH262662   6.660   6.675  11.558 -0.3597 -0.1637  0.2473
13724TIP3    H162663   6.628   6.700  11.471 -0.0172  0.7900  0.3737
13724TIP3    H262664   6.749   6.712  11.561 -1.0059  1.4115  1.6445
13725TIP3   OH262665   5.247   5.669   3.762 -1.0327  0.3694  0.9641
13725TIP3    H162666   5.320   5.716   3.802  0.0013  0.2716 -0.7424
13725TIP3    H262667   5.169   5.703   3.807 -0.4152  4.2109 -0.5614
13726TIP3   OH262668   1.688   1.732  13.636  0.0512  0.4775  0.1049
13726TIP3    H162669   1.654   1.750  13.724 -1.3264 -0.7954 -0.1234
13726TIP3    H262670   1.772   1.776  13.634  1.5592 -1.8124  3.1569
13727TIP3   OH262671   1.624   6.444   5.120  0.1959  0.2114 -0.7407
13727TIP3    H162672   1.616   6.487   5.205  0.0667 -0.2747 -0.4990
13727TIP3    H262673   1.682   6.369   5.137 -0.2633 -0.1977 -0.9541
13728TIP3   OH262674   6.778   3.334  10.999  0.0416  0.3822 -0.2902
13728TIP3    H162675   6.725   3.264  10.960 -0.4267  1.2063 -1.1680
13728TIP3    H262676   6.834   3.364  10.928 -0.6798  1.7718 -0.2905
13729TIP3   OH262677   6.176   4.312  12.660 -0.3737 -0.3813 -0.0033
13729TIP3    H162678   6.230   4.313  12.739 -1.4000 -0.8911  0.7246
13729TIP3    H262679   6.172   4.404  12.633  0.9865 -0.3603 -0.1715
13730TIP3   OH262680   3.416   2.182  15.831  0.0637 -0.0895  0.0347
13730TIP3    H162681   3.398   2.270  15.798 -0.1441  0.3322  1.2233
13730TIP3    H262682   3.379   2.181  15.919  0.6200 -1.1653  0.2766
13731TIP3   OH262683   4.561   1.016  13.895  0.0127 -0.0529  0.8374
13731TIP3    H162684   4.614   1.095  13.899  1.0104 -0.5700 -0.9901
13731TIP3    H262685   4.568   0.977  13.983  0.0755  1.4858  1.5377
13732TIP3   OH262686   2.088   2.236   4.871  0.0728  0.1554 -0.6042
13732TIP3    H162687   2.112   2.144   4.884 -0.0862  0.3370  1.3235
13732TIP3    H262688   1.993   2.237   4.873  0.0723  0.4982  0.9506
13733TIP3   OH262689   1.758   1.763   4.283 -0.0869  0.0576  0.5110
13733TIP3    H162690   1.815   1.815   4.228  0.2783 -0.3819  0.4712
13733TIP3    H262691   1.670   1.779   4.249  0.3381 -2.7412 -2.4115
13734TIP3   OH262692   6.495   6.703  14.159  0.0307  0.0853 -0.5472
13734TIP3    H162693   6.547   6.782  14.173 -0.2145  0.2460 -0.5299
13734TIP3    H262694   6.544   6.634  14.204 -0.0227  0.3278 -0.1113
13735TIP3   OH262695   2.908   4.182  15.448 -0.0316 -0.3620  0.9577
13735TIP3    H162696   2.915   4.277  15.447  0.6110 -0.4088  0.4855
13735TIP3    H262697   2.982   4.153  15.501  1.1219 -0.6951 -0.8004
13736TIP3   OH262698   4.782   6.593  15.354  0.0609  0.0158 -0.3125
13736TIP3    H162699   4.734   6.510  15.354  0.3546 -0.1593 -0.7750
13736TIP3    H262700   4.729   6.652  15.408 -1.0265  0.0266 -1.3635
13737TIP3   OH262701   5.040   4.787   4.710 -0.0067  0.7347 -0.0808
13737TIP3    H162702   4.995   4.871   4.722  1.6675  1.5374  1.0190
13737TIP3    H262703   4.989   4.725   4.760 -0.2778  1.4775  0.5814
13738TIP3   OH262704   6.073   5.722   2.932  0.0545  0.4037  0.2430
13738TIP3    H162705   6.060   5.718   2.837 -1.1855  0.2264  0.4122
13738TIP3    H262706   6.032   5.804   2.958  2.1321  1.4727  0.3940
13739TIP3   OH262707   2.624   0.235   0.218 -0.2939 -0.3056 -0.5964
13739TIP3    H162708   2.642   0.325   0.191 -2.8744  0.0616 -1.4607
13739TIP3    H262709   2.598   0.242   0.310  0.0801 -0.2698 -0.4916
13740TIP3   OH262710   1.861   5.059   2.708 -0.1476  0.3842  0.1076
13740TIP3    H162711   1.935   5.061   2.648  0.3898 -0.3822  0.7205
13740TIP3    H262712   1.872   4.978   2.758 -0.1990  1.3077  1.6953
13741TIP3   OH262713   5.334   0.684  14.982  0.6896  0.2405 -0.5296
13741TIP3    H162714   5.370   0.623  15.046  0.7033  0.6977 -0.0932
13741TIP3    H262715   5.411   0.722  14.940  0.6733 -0.4511 -1.1996
13742TIP3   OH262716   3.714   4.751  14.715  0.5069 -0.1195  0.1242
13742TIP3    H162717   3.736   4.843  14.703 -0.3348 -0.1571 -2.1801
13742TIP3    H262718   3.624   4.743  14.681  0.4776 -1.7486  0.4784
13743TIP3   OH262719   1.131   5.055   1.872  0.5982  0.2731  0.3053
13743TIP3    H162720   1.157   4.969   1.837  1.4061  0.5422  0.2202
13743TIP3    H262721   1.126   5.041   1.967  2.7549  0.6038  0.5160
13744TIP3   OH262722   6.076   0.816   3.545 -0.2512  0.3489  0.4014
13744TIP3    H162723   6.150   0.819   3.606 -2.7246  1.7371  3.6002
13744TIP3    H262724   6.004   0.781   3.597 -2.3337  0.7714 -2.0448
13745TIP3   OH262725   2.820   6.510  15.376 -0.4148  0.2016 -0.0379
13745TIP3    H162726   2.793   6.591  15.419 -0.0993 -0.2713  1.0809
13745TIP3    H262727   2.805   6.442  15.441  0.8992 -0.4146 -0.3353
13746TIP3   OH262728   0.801   5.438  12.368 -0.1904  0.2918 -0.0044
13746TIP3    H162729   0.726   5.479  12.326 -1.2342 -0.4470  1.0731
13746TIP3    H262730   0.788   5.455  12.461 -0.3818 -1.9705  0.4353
13747TIP3   OH262731   5.328   3.233  14.319 -0.1759 -0.4686  0.2110
13747TIP3    H162732   5.273   3.305  14.350  0.2599 -0.5899  1.3025
13747TIP3    H262733   5.390   3.218  14.390  1.4875 -0.1180 -1.0866
13748TIP3   OH262734   4.112   3.813  10.919  0.2325  0.1475  0.2884
13748TIP3    H162735   4.141   3.730  10.881 -2.8093 -0.7388 -0.4028
13748TIP3    H262736   4.082   3.864  10.843 -0.2663  0.8703  0.9580
13749TIP3   OH262737   4.141   4.552   1.149 -0.2077 -0.4329  0.1470
13749TIP3    H162738   4.132   4.642   1.181  0.8456 -0.3076  0.1234
13749TIP3    H262739   4.056   4.531   1.111 -0.8964  0.0753  1.3588
13750TIP3   OH262740   1.003   4.726   4.815 -0.1472  0.4025  0.2312
13750TIP3    H162741   1.071   4.724   4.748  0.5671 -0.0226  0.9451
13750TIP3    H262742   0.978   4.818   4.822 -0.2303  0.4507 -0.6024
13751TIP3   OH262743   1.492   0.747   5.579 -0.0897 -0.2164 -0.2115
13751TIP3    H162744   1.495   0.713   5.489 -2.3463  0.3627 -0.5656
13751TIP3    H262745   1.456   0.674   5.630 -1.7244  0.4154 -0.3792
13752TIP3   OH262746   4.832   2.993  13.207 -0.5523  0.2477 -0.1332
13752TIP3    H162747   4.748   2.950  13.192 -1.0373  0.8284  0.8587
13752TIP3    H262748   4.828   3.025  13.297  1.5057 -1.4536  0.6481
13753TIP3   OH262749   1.432   3.385   1.181  0.3034  0.1787 -0.2923
13753TIP3    H162750   1.502   3.319   1.173 -0.5479 -1.0329  1.5752
13753TIP3    H262751   1.476   3.461   1.218  0.5799 -0.7585  1.3911
13754TIP3   OH262752   0.807   0.862   3.636  0.7436 -0.2274  0.5359
13754TIP3    H162753   0.855   0.835   3.558 -0.0879 -0.5619  0.1235
13754TIP3    H262754   0.865   0.924   3.680  1.0174  0.3680 -0.6204
13755TIP3   OH262755   1.104   5.546  14.155  0.2213  0.4185  0.8081
13755TIP3    H162756   1.040   5.483  14.191 -0.7347  0.3733 -0.8750
13755TIP3    H262757   1.050   5.614  14.114  1.2647  1.0998  0.5361
13756TIP3   OH262758   3.910   2.261   2.667  0.1748  0.0877 -0.3233
13756TIP3    H162759   3.817   2.235   2.670  0.2891 -0.5003 -1.2464
13756TIP3    H262760   3.918   2.328   2.734 -1.2138  1.0799 -1.0931
13757TIP3   OH262761   3.882   1.104  17.007 -0.4687  0.0255 -0.5252
13757TIP3    H162762   3.830   1.040  16.958 -0.6181 -0.6405  0.4742
13757TIP3    H262763   3.954   1.053  17.045 -0.3106  0.5417 -0.1180
13758TIP3   OH262764   3.605   3.576  12.010 -0.5306 -0.3711 -0.3231
13758TIP3    H162765   3.561   3.493  11.993  0.4115 -1.1650  0.8873
13758TIP3    H262766   3.553   3.615  12.081 -0.5641 -0.2691 -0.4049
13759TIP3   OH262767   6.257   6.110   2.926  0.1977 -0.3316  0.6728
13759TIP3    H162768   6.331   6.129   2.868  1.3902 -1.5099  1.7431
13759TIP3    H262769   6.223   6.196   2.951  0.3098  0.2097 -0.9176
13760TIP3   OH262770   6.199   5.824   2.393  0.3441  0.2313 -0.6527
13760TIP3    H162771   6.186   5.870   2.310 -1.2179  1.2421  0.0935
13760TIP3    H262772   6.231   5.892   2.453 -1.2493  0.2388  0.2642
13761TIP3   OH262773   1.984   5.146  10.275 -0.4233  0.3200 -0.3445
13761TIP3    H162774   1.977   5.240  10.288 -1.6177  0.4686 -1.7576
13761TIP3    H262775   1.897   5.112  10.293  0.0239 -0.5452  0.2645
13762TIP3   OH262776   3.590   6.086  12.963  0.6772 -0.1806  0.0244
13762TIP3    H162777   3.662   6.117  13.018  0.7526 -0.0409 -0.1522
13762TIP3    H262778   3.546   6.165  12.933 -0.5762 -0.2834  1.4684
13763TIP3   OH262779   4.947   3.857   4.573  0.3521 -0.3744 -0.1141
13763TIP3    H162780   4.977   3.926   4.514 -1.0537  2.1429  1.8910
13763TIP3    H262781   4.866   3.825   4.534 -0.9379  1.7516  0.6225
13764TIP3   OH262782   6.548   3.753  12.224 -0.1919  0.4913  0.1369
13764TIP3    H162783   6.538   3.832  12.277 -0.4774 -0.9833  2.4026
13764TIP3    H262784   6.641   3.731  12.233  0.5767  2.0319 -2.8212
13765TIP3   OH262785   0.067   1.672  14.822 -0.5291  0.7012  0.1105
13765TIP3    H162786   0.140   1.674  14.884 -1.7813  0.9007  1.6576
13765TIP3    H262787   0.070   1.757  14.779 -0.3117  1.0150  0.7320
13766TIP3   OH262788   3.751   4.578   0.168  0.3613  0.1941  0.1144
13766TIP3    H162789   3.665   4.576   0.211  0.1563  1.3784 -0.1882
13766TIP3    H262790   3.732   4.557   0.077  0.5067 -0.3391  0.2084
13767TIP3   OH262791   6.208   2.271  12.615  0.2654  0.3494 -0.7308
13767TIP3    H162792   6.117   2.300  12.604  0.3972  1.1258  0.0335
13767TIP3    H262793   6.201   2.188  12.662 -0.0458  1.6479  1.7431
13768TIP3   OH262794   3.313   3.965   5.897 -0.2432  0.1445 -0.0462
13768TIP3    H162795   3.348   4.053   5.909  5.1983 -1.2503 -2.6209
13768TIP3    H262796   3.377   3.908   5.939 -2.8416 -2.7684  0.3170
13769TIP3   OH262797   5.469   1.090  11.790  0.1000  0.0135 -0.7432
13769TIP3    H162798   5.420   1.049  11.718 -1.7937  0.3931  0.2508
13769TIP3    H262799   5.473   1.022  11.857 -0.4748  0.5056 -0.2072
13770TIP3   OH262800   1.379   4.513   1.176  0.0438  0.3068  0.0753
13770TIP3    H162801   1.297   4.561   1.189 -0.9661 -1.5176  0.7440
13770TIP3    H262802   1.371   4.474   1.089  0.6053  0.8187 -0.2186
13771TIP3   OH262803   2.911   1.162   2.677  0.2729  0.6673 -0.0392
13771TIP3    H162804   2.904   1.248   2.720  3.1885  0.5202  0.9156
13771TIP3    H262805   2.901   1.182   2.584 -0.8313  1.7715  0.2816
13772TIP3   OH262806   4.930   5.958  15.982  0.6797 -0.1128 -0.5488
13772TIP3    H162807   4.953   5.962  16.075  0.5927 -0.5454 -0.5076
13772TIP3    H262808   5.014   5.946  15.937  0.5180 -2.5298 -0.3437
13773TIP3   OH262809   0.572   5.336   6.284  0.0320  0.2204  0.3675
13773TIP3    H162810   0.508   5.297   6.343  0.9013  0.3021  1.4070
13773TIP3    H262811   0.651   5.344   6.337  0.1690  2.5056 -0.0786
13774TIP3   OH262812   5.990   2.338  12.829 -0.0344 -0.1824  0.1305
13774TIP3    H162813   5.905   2.294  12.824  0.6150 -1.3384 -1.8436
13774TIP3    H262814   6.053   2.267  12.844  0.7801  0.3586 -0.6002
13775TIP3   OH262815   0.879   5.686   2.045  0.2297 -0.1663  0.1155
13775TIP3    H162816   0.813   5.726   2.101 -0.6191 -1.3639  0.0130
13775TIP3    H262817   0.949   5.659   2.106  0.0514 -0.0156  0.3877
13776TIP3   OH262818   0.860   3.780  11.134 -0.1174  0.7413  0.0178
13776TIP3    H162819   0.878   3.714  11.200 -2.0995  1.4753  1.3655
13776TIP3    H262820   0.856   3.732  11.052 -1.1204 -0.7494  0.9090
13777TIP3   OH262821   5.036   2.639  15.913  0.2948 -0.1846 -0.9455
13777TIP3    H162822   5.091   2.563  15.894  0.3083 -0.3149 -0.3772
13777TIP3    H262823   4.962   2.603  15.962  0.3019  0.1745 -0.6734
13778TIP3   OH262824   3.154   3.412   2.768 -1.1553  0.3014  0.1201
13778TIP3    H162825   3.221   3.440   2.705  0.7087 -0.2991  1.7011
13778TIP3    H262826   3.109   3.340   2.724  0.1578 -0.1657 -0.5459
13779TIP3   OH262827   0.757   3.310   3.979 -0.1725  0.1201 -0.3970
13779TIP3    H162828   0.764   3.240   4.044 -0.7045  0.5992  0.1846
13779TIP3    H262829   0.843   3.313   3.937  0.1353 -0.2776  0.2023
13780TIP3   OH262830   0.620   1.079  14.415  0.8002  0.0420 -0.3362
13780TIP3    H162831   0.612   1.166  14.453  2.3984 -0.0033  0.2038
13780TIP3    H262832   0.676   1.031  14.477  0.1788 -1.2807 -0.7595
13781TIP3   OH262833   5.879   4.784   3.685  0.0898  0.5018  0.5324
13781TIP3    H162834   5.852   4.831   3.765 -1.8449  1.1508 -0.4439
13781TIP3    H262835   5.865   4.692   3.706  0.5940  0.5879  1.2917
13782TIP3   OH262836   5.959   3.791  11.365  0.4677  0.1155  0.2343
13782TIP3    H162837   5.936   3.725  11.431  1.3573 -0.5664 -0.1069
13782TIP3    H262838   6.046   3.820  11.390  1.2689 -0.9162 -1.1833
13783TIP3   OH262839   3.264   4.888  16.680 -0.1783 -0.2421 -0.0711
13783TIP3    H162840   3.295   4.802  16.707  0.6279 -0.6991 -2.2354
13783TIP3    H262841   3.169   4.882  16.684 -0.1279 -0.2892  2.4010
13784TIP3   OH262842   4.601   3.308  14.062  0.4890  0.0795 -0.2366
13784TIP3    H162843   4.589   3.260  14.144  1.3928 -1.5694 -1.0069
13784TIP3    H262844   4.561   3.393  14.077  1.0979  0.0074  2.0831
13785TIP3   OH262845   5.662   0.325  16.194 -0.2355 -0.8194 -0.1465
13785TIP3    H162846   5.747   0.305  16.234  0.3235 -0.1828 -0.9801
13785TIP3    H262847   5.669   0.291  16.104 -0.2359  0.7020 -0.7540
13786TIP3   OH262848   0.508   4.306   2.646 -0.1915 -0.5985  0.1723
13786TIP3    H162849   0.456   4.237   2.604  2.0566 -2.4067  0.1657
13786TIP3    H262850   0.497   4.291   2.740  0.5240 -1.1788  0.1707
13787TIP3   OH262851   1.340   2.573   2.571 -0.5141 -0.6137  0.0037
13787TIP3    H162852   1.394   2.497   2.547 -0.2346 -0.8990  1.4340
13787TIP3    H262853   1.351   2.634   2.499  1.8811 -0.5854  0.3160
13788TIP3   OH262854   1.884   1.455  15.285  0.4135  0.0792 -0.5403
13788TIP3    H162855   1.913   1.363  15.291  0.0754 -0.1502 -2.0283
13788TIP3    H262856   1.887   1.487  15.375  0.5296 -1.3986  0.0071
13789TIP3   OH262857   2.980   5.405  15.500 -0.2368  0.0744 -0.2876
13789TIP3    H162858   2.954   5.484  15.453 -0.6881 -0.6207 -1.2439
13789TIP3    H262859   3.071   5.420  15.524 -0.1016  0.6021 -1.0830
13790TIP3   OH262860   2.405   5.508  15.040 -0.0261  0.5529  0.3473
13790TIP3    H162861   2.398   5.412  15.039  0.4472  0.5161 -0.1946
13790TIP3    H262862   2.444   5.529  14.955  0.6611  1.1624  0.8061
13791TIP3   OH262863   6.394   6.778  10.613 -0.0827  0.0147  0.5672
13791TIP3    H162864   6.417   6.812  10.527  2.0816  0.2799  1.2024
13791TIP3    H262865   6.398   6.683  10.603 -0.0575  0.0418  0.3248
13792TIP3   OH262866   0.131   6.581  16.637  0.6057 -0.0288 -0.0454
13792TIP3    H162867   0.180   6.648  16.590 -0.4373  1.2703  0.6375
13792TIP3    H262868   0.151   6.500  16.591  0.3469  1.0428 -2.1752
13793TIP3   OH262869   6.366   5.908  11.171 -0.2101 -0.4612  1.3229
13793TIP3    H162870   6.424   5.964  11.119 -0.2711 -2.3254 -0.9358
13793TIP3    H262871   6.426   5.858  11.228  0.0226  0.3481  1.7996
13794TIP3   OH262872   5.677   3.570   0.972  0.3742  0.2611  0.0290
13794TIP3    H162873   5.661   3.544   0.881  0.5332 -1.0862  0.3620
13794TIP3    H262874   5.622   3.647   0.985  0.3210  0.4457 -1.1980
13795TIP3   OH262875   1.092   0.750  11.634 -0.2297  0.4308 -0.1128
13795TIP3    H162876   1.166   0.692  11.620  0.6146  1.2438  0.7999
13795TIP3    H262877   1.039   0.742  11.555  0.7299 -0.3100 -0.6941
13796TIP3   OH262878   5.690   1.878  14.981  0.7361  0.1491 -0.4311
13796TIP3    H162879   5.761   1.815  14.995  0.1602 -0.2602  0.7207
13796TIP3    H262880   5.725   1.939  14.916  1.2390 -1.4720 -1.7540
13797TIP3   OH262881   4.091   4.760  16.298 -0.4294  0.0882  0.2215
13797TIP3    H162882   4.058   4.778  16.386  0.3329 -0.0419  0.5334
13797TIP3    H262883   4.165   4.819  16.287 -1.0160  0.6885 -0.6483
13798TIP3   OH262884   5.947   3.385  15.323 -0.0210 -0.2834 -0.0600
13798TIP3    H162885   5.921   3.477  15.325  0.0826 -0.2655  0.9914
13798TIP3    H262886   5.959   3.365  15.230  1.4260  1.1762 -0.2276
13799TIP3   OH262887   2.614   4.828  12.239 -0.1902  0.2505  0.1341
13799TIP3    H162888   2.594   4.915  12.205  1.6774  0.8145  0.3915
13799TIP3    H262889   2.529   4.793  12.265 -1.2275  1.2307 -1.6889
13800TIP3   OH262890   0.179   0.314  14.454 -0.0291  0.7446  0.1227
13800TIP3    H162891   0.212   0.392  14.408  1.3277  0.4619  0.5826
13800TIP3    H262892   0.252   0.252  14.452 -1.0990 -0.5387 -0.2390
13801TIP3   OH262893   0.331   4.340   1.533 -0.0849  0.1160  0.2945
13801TIP3    H162894   0.348   4.417   1.587  0.2098  0.1821  0.1105
13801TIP3    H262895   0.410   4.286   1.542  0.0432  0.2122 -0.2128
13802TIP3   OH262896   5.938   4.094   0.493 -0.6500  0.6518 -0.3714
13802TIP3    H162897   5.862   4.038   0.481  0.6154 -1.9651  2.4593
13802TIP3    H262898   5.934   4.156   0.420 -3.2109 -1.8831 -2.6107
13803TIP3   OH262899   4.997   0.614   4.896  0.4040 -0.1694 -0.8025
13803TIP3    H162900   4.945   0.694   4.896 -1.1889 -1.1613 -0.7197
13803TIP3    H262901   5.002   0.587   4.987  0.1132 -0.6735 -0.9320
13804TIP3   OH262902   3.831   0.566  10.806  0.8280 -0.3900 -0.0678
13804TIP3    H162903   3.765   0.539  10.741 -0.7395 -0.8105  1.6133
13804TIP3    H262904   3.900   0.501  10.797  0.4293 -0.7043 -1.0145
13805TIP3   OH262905   2.238   5.929  16.757  0.7306 -0.4976 -0.3692
13805TIP3    H162906   2.195   5.989  16.696 -0.5045  0.1503  1.0865
13805TIP3    H262907   2.215   5.962  16.844  2.4418 -1.3919  0.4802
13806TIP3   OH262908   0.343   5.908   3.541  0.3935  0.3724  0.5023
13806TIP3    H162909   0.339   5.877   3.451  0.6050  1.5919  0.0624
13806TIP3    H262910   0.436   5.923   3.557  0.3165  0.5595  0.7833
13807TIP3   OH262911   0.225   2.018   2.068  0.5490 -0.2633  0.9798
13807TIP3    H162912   0.297   2.067   2.108  2.2837 -1.6412 -0.3183
13807TIP3    H262913   0.198   1.955   2.134  0.9129 -0.1091  1.2764
13808TIP3   OH262914   6.090   3.513   0.011  0.6117  0.0430  0.0118
13808TIP3    H162915   6.104   3.606   0.032  0.6488  0.0462 -0.0282
13808TIP3    H262916   6.174   3.471   0.031  0.9024  0.1776 -0.8938
13809TIP3   OH262917   1.300   3.346  13.975  0.6262  0.2008  0.9016
13809TIP3    H162918   1.338   3.278  14.032  0.7405 -0.6885 -0.2049
13809TIP3    H262919   1.355   3.344  13.897 -0.7984 -0.0761 -0.1202
13810TIP3   OH262920   3.410   5.082   4.750 -0.3773  0.8903 -0.5248
13810TIP3    H162921   3.324   5.046   4.768  0.4056 -0.8506 -0.0142
13810TIP3    H262922   3.458   5.073   4.833  0.9741 -0.3040 -1.3768
13811TIP3   OH262923   4.397   0.403  12.135 -0.3069 -0.2691 -0.2698
13811TIP3    H162924   4.364   0.385  12.223  0.4119 -2.3953 -0.3671
13811TIP3    H262925   4.342   0.349  12.077  0.7711 -0.7900 -0.8385
13812TIP3   OH262926   2.566   2.593  12.341  0.6550  0.2336  0.2506
13812TIP3    H162927   2.563   2.497  12.336  0.4646  0.2817 -0.7793
13812TIP3    H262928   2.486   2.622  12.295  0.7295  0.8826  0.5211
13813TIP3   OH262929   4.913   5.537   3.631 -0.5942 -0.0617  0.9015
13813TIP3    H162930   4.964   5.602   3.582 -1.8792  0.4530  0.2107
13813TIP3    H262931   4.978   5.474   3.661  0.8260  1.9705  2.3507
13814TIP3   OH262932   2.643   4.833  13.305 -0.3262 -0.6528 -0.2793
13814TIP3    H162933   2.551   4.820  13.329 -0.8666  1.1760 -1.1691
13814TIP3    H262934   2.640   4.898  13.234  1.6713 -0.4429 -0.2192
13815TIP3   OH262935   1.868   6.366  13.680 -0.6862  0.1930  0.1407
13815TIP3    H162936   1.938   6.331  13.624  0.5705 -0.3406  1.9732
13815TIP3    H262937   1.790   6.315  13.656 -0.5039  0.7779 -1.9122
13816TIP3   OH262938   1.680   5.030   4.993 -0.0002  0.0299  0.4130
13816TIP3    H162939   1.666   4.944   5.033 -2.7558 -0.1688 -0.7473
13816TIP3    H262940   1.743   5.014   4.923  0.0394 -0.9060  0.6519
13817TIP3   OH262941   1.186   6.852   2.389  0.1721 -0.1309 -0.4836
13817TIP3    H162942   1.209   6.832   2.298 -2.0588  0.4827 -1.2715
13817TIP3    H262943   1.113   6.793   2.408  0.0776  0.3182  0.6113
13818TIP3   OH262944   4.353   6.777  15.627 -0.1141 -0.4374  0.0477
13818TIP3    H162945   4.322   6.867  15.635  1.3387  0.1128 -0.1599
13818TIP3    H262946   4.341   6.739  15.714  2.4155  1.0664  1.1639
13819TIP3   OH262947   1.208   0.714   0.272 -0.3109  0.2975  0.2162
13819TIP3    H162948   1.114   0.730   0.268 -0.5751 -1.0771  0.3906
13819TIP3    H262949   1.216   0.629   0.313  1.0657  0.7886  1.0280
13820TIP3   OH262950   0.238   5.003  12.147  0.2704  0.3176 -0.0286
13820TIP3    H162951   0.152   5.002  12.189 -0.0416  2.7644 -0.4580
13820TIP3    H262952   0.290   5.063  12.200  1.9588 -1.5683  0.5615
13821TIP3   OH262953   3.752   3.887   2.383 -0.4044  0.0250  0.6652
13821TIP3    H162954   3.714   3.973   2.365  3.2485  1.5284 -0.7716
13821TIP3    H262955   3.799   3.865   2.303  2.0329 -1.3978  2.3760
13822TIP3   OH262956   1.980   2.771   1.194 -0.0620 -0.8053 -0.0048
13822TIP3    H162957   1.918   2.769   1.121  1.5620 -2.9179 -1.4667
13822TIP3    H262958   2.065   2.788   1.152  0.3933  3.3257  2.0460
13823TIP3   OH262959   6.191   0.986   5.431  0.1492 -0.1068 -0.1566
13823TIP3    H162960   6.233   1.071   5.441 -1.9777  0.8548  1.4386
13823TIP3    H262961   6.098   1.003   5.442 -0.3507 -2.6650  0.4470
13824TIP3   OH262962   0.761   3.331  16.653 -0.6445  0.3356  0.0958
13824TIP3    H162963   0.712   3.257  16.689  0.4120 -0.7560 -0.6220
13824TIP3    H262964   0.811   3.366  16.727 -0.0471 -0.5882  0.1351
13825TIP3   OH262965   5.025   6.733   1.436  0.4909 -0.6077  0.1214
13825TIP3    H162966   4.982   6.776   1.510  0.3507  1.8638 -1.2605
13825TIP3    H262967   5.058   6.650   1.471 -0.5530 -0.0508  2.6182
13826TIP3   OH262968   0.333   5.297  13.626 -0.1882  0.3711 -0.1256
13826TIP3    H162969   0.291   5.290  13.712 -0.2557 -1.5991 -0.2711
13826TIP3    H262970   0.297   5.224  13.576  1.9504 -0.2614 -0.8809
13827TIP3   OH262971   5.154   3.173  12.561 -0.4173  0.1504  0.1475
13827TIP3    H162972   5.167   3.224  12.481  1.2388  1.1812  1.0154
13827TIP3    H262973   5.130   3.086  12.530 -1.5666  0.9507 -1.4190
13828TIP3   OH262974   1.089   4.243  11.533  0.0081 -0.1178 -0.3137
13828TIP3    H162975   1.012   4.199  11.568 -0.7303  1.4296  0.1150
13828TIP3    H262976   1.092   4.217  11.441 -1.4101  0.2701 -0.4950
13829TIP3   OH262977   6.208   6.729  14.609 -0.0182  0.5440 -0.0732
13829TIP3    H162978   6.256   6.807  14.636  2.1260 -0.9408  0.7132
13829TIP3    H262979   6.145   6.713  14.679  0.7288  0.6217  0.6241
13830TIP3   OH262980   1.017   3.452  14.447 -0.1669  0.1412  0.4605
13830TIP3    H162981   1.053   3.386  14.506  0.4167  0.6078  0.6321
13830TIP3    H262982   1.093   3.491  14.405 -0.4749  1.0224  0.6982
13831TIP3   OH262983   0.593   4.536   2.538 -0.4993 -0.7761  0.2021
13831TIP3    H162984   0.557   4.461   2.585  0.5186 -1.4411 -0.0386
13831TIP3    H262985   0.617   4.501   2.452 -0.8650  0.0505 -0.2474
13832TIP3   OH262986   3.635   5.540  12.670 -0.5028 -0.4091  0.2181
13832TIP3    H162987   3.549   5.499  12.676 -1.3790  1.3656  0.4095
13832TIP3    H262988   3.628   5.618  12.725  0.2656  1.3482 -2.0586
13833TIP3   OH262989   3.200   0.639  15.845 -0.1893  0.0124 -0.0077
13833TIP3    H162990   3.266   0.680  15.901 -0.9941 -0.2934  1.2075
13833TIP3    H262991   3.168   0.564  15.896 -0.4886 -0.6742 -1.1592
13834TIP3   OH262992   0.789   5.408  16.448  0.2253 -0.1576 -0.8665
13834TIP3    H162993   0.772   5.473  16.517 -0.2174 -1.0649 -0.1012
13834TIP3    H262994   0.878   5.377  16.466 -0.2848 -1.1865 -0.0137
13835TIP3   OH262995   2.568   1.908   1.408 -0.4872 -0.1325 -0.0408
13835TIP3    H162996   2.532   1.995   1.388  0.8515  0.5373  0.3162
13835TIP3    H262997   2.662   1.919   1.397 -0.2600 -1.4212  0.5273
13836TIP3   OH262998   1.585   2.205   3.612  0.1185 -0.3313 -0.2252
13836TIP3    H162999   1.654   2.146   3.583  1.0304 -0.2759  1.6485
13836TIP3    H263000   1.622   2.293   3.600  0.1547 -0.2795  0.2400
13837TIP3   OH263001   4.960   5.551   4.356  0.2006  1.0789 -0.5696
13837TIP3    H163002   5.031   5.595   4.308  0.5516  2.2318  0.9190
13837TIP3    H263003   4.885   5.609   4.347  1.0219  2.8609  2.5280
13838TIP3   OH263004   4.390   2.125   4.539 -0.0365 -0.4776  0.4878
13838TIP3    H163005   4.350   2.046   4.503  1.2667 -0.3328 -1.3719
13838TIP3    H263006   4.475   2.096   4.572  0.1054 -0.0029  0.5449
13839TIP3   OH263007   1.284   0.948   3.648 -0.0799  0.0926  0.1525
13839TIP3    H163008   1.208   0.922   3.701 -2.5563  1.1570 -2.5870
13839TIP3    H263009   1.333   0.867   3.636  0.1311 -0.3452  3.2298
13840TIP3   OH263010   1.282   6.674  12.513 -1.0176 -0.3414 -0.3269
13840TIP3    H163011   1.299   6.768  12.507  0.0038 -0.4544  0.5699
13840TIP3    H263012   1.197   6.663  12.469 -0.8288  0.8862 -1.0689
13841TIP3   OH263013   0.093   5.023   6.269  0.5510 -0.1637 -0.7687
13841TIP3    H163014   0.094   5.005   6.364 -0.5581  0.3713 -0.6366
13841TIP3    H263015   0.087   5.118   6.263  2.2580 -0.0684 -1.4214
13842TIP3   OH263016   4.615   1.565  15.256 -0.3199 -0.3026 -0.4776
13842TIP3    H163017   4.672   1.490  15.241  1.1842  0.3731  1.5001
13842TIP3    H263018   4.591   1.595  15.168 -2.9710 -4.4196 -1.4398
13843TIP3   OH263019   1.485   4.008  14.407  0.4420 -0.5951  0.3245
13843TIP3    H163020   1.549   3.959  14.355  2.7634  0.9489  1.5653
13843TIP3    H263021   1.498   3.978  14.496  0.4972  0.8083  0.8168
13844TIP3   OH263022   3.042   4.204   3.617 -0.2845  0.0850  0.0701
13844TIP3    H163023   3.049   4.215   3.523  0.5918 -1.1799 -0.0357
13844TIP3    H263024   2.973   4.266   3.644 -1.7926 -0.7760 -1.6166
13845TIP3   OH263025   4.713   1.008   6.015  0.5848 -0.7360 -0.0421
13845TIP3    H163026   4.688   1.092   5.977  2.6814 -0.1861 -0.2729
13845TIP3    H263027   4.643   0.989   6.078  0.1762  1.2689  0.1736
13846TIP3   OH263028   4.334   3.683   0.536  0.0699  0.2875  0.4662
13846TIP3    H163029   4.398   3.693   0.607 -1.0958  2.1955  1.3600
13846TIP3    H263030   4.249   3.686   0.581 -0.6859  0.4815 -0.9252
13847TIP3   OH263031   4.665   1.510  14.565 -0.2722  0.7510 -0.5369
13847TIP3    H163032   4.596   1.576  14.561 -0.7583  0.3736  1.0015
13847TIP3    H263033   4.691   1.507  14.657  2.1561  1.2118 -1.1442
13848TIP3   OH263034   3.524   3.338   4.551  0.0280  0.2109  0.9693
13848TIP3    H163035   3.614   3.356   4.525 -0.0327  2.4599  2.0902
13848TIP3    H263036   3.473   3.407   4.510 -1.3630 -1.4809 -0.2980
13849TIP3   OH263037   6.119   0.083   4.519  0.2420 -0.8242  0.0308
13849TIP3    H163038   6.087  -0.007   4.515  0.0585 -0.7765  0.3536
13849TIP3    H263039   6.167   0.095   4.437  1.8535 -1.8000  0.7747
13850TIP3   OH263040   5.672   3.337  12.891 -0.5470  0.0707  0.3423
13850TIP3    H163041   5.596   3.279  12.891 -1.1421  0.7931 -1.7123
13850TIP3    H263042   5.645   3.414  12.842  1.1567  0.8642  0.5555
13851TIP3   OH263043   4.597   2.033   2.974  0.3795 -0.7771  1.0732
13851TIP3    H163044   4.583   1.959   2.914  0.1782  0.1735 -0.0903
13851TIP3    H263045   4.523   2.030   3.034  0.3746 -1.5204  1.0363
13852TIP3   OH263046   4.660   4.851  15.123 -0.2530 -0.2701  0.2121
13852TIP3    H163047   4.646   4.756  15.128 -1.0169 -0.1266  1.1214
13852TIP3    H263048   4.713   4.871  15.201  0.2240  0.0021 -0.1786
13853TIP3   OH263049   2.653   2.084  16.803  0.2275  0.4564  0.0003
13853TIP3    H163050   2.600   2.100  16.882 -0.2539 -0.5800 -0.1001
13853TIP3    H263051   2.593   2.043  16.742  0.5461  1.4447 -1.0136
13854TIP3   OH263052   6.450   0.021  12.886 -0.4662 -0.0933  0.1012
13854TIP3    H163053   6.417  -0.008  12.971 -2.3890  0.1294 -0.5344
13854TIP3    H263054   6.543  -0.002  12.888 -0.3969  0.1749  2.3641
13855TIP3   OH263055   0.595   2.912  14.398  0.1246 -0.4693 -0.0399
13855TIP3    H163056   0.640   2.945  14.320  0.3154 -2.8615 -1.0237
13855TIP3    H263057   0.584   2.989  14.453  2.4552  0.8186 -1.2167
13856TIP3   OH263058   2.066   0.431   1.751 -0.6317 -0.7373  0.1295
13856TIP3    H163059   2.069   0.506   1.811 -0.1451 -0.5796 -0.0891
13856TIP3    H263060   2.117   0.363   1.795 -2.1671 -1.4267  0.9581
13857TIP3   OH263061   2.608   1.954  13.321  0.9760  0.1589 -0.0216
13857TIP3    H163062   2.646   1.988  13.402 -0.9617  2.5482  0.0005
13857TIP3    H263063   2.515   1.976  13.327  0.9685  1.5740 -3.4056
13858TIP3   OH263064   3.977   2.431  11.920  0.0423  0.3223  0.0213
13858TIP3    H163065   4.025   2.359  11.880  1.4249  1.3538 -0.2732
13858TIP3    H263066   3.942   2.395  12.001  0.8964 -0.6215 -0.0059
13859TIP3   OH263067   3.267   4.232  12.928  0.4339  0.1828  0.0187
13859TIP3    H163068   3.194   4.170  12.933 -1.2882  2.0636 -0.5323
13859TIP3    H263069   3.247   4.297  12.996  1.6916  0.6689 -0.0598
13860TIP3   OH263070   1.858   6.008  12.334  0.5559 -0.0823  0.2208
13860TIP3    H163071   1.804   6.078  12.371  0.6270  0.4351 -0.6290
13860TIP3    H263072   1.947   6.042  12.335  0.6787 -0.4004  0.3543
13861TIP3   OH263073   0.147   5.320  10.983 -0.1766 -0.0156  0.7108
13861TIP3    H163074   0.090   5.395  11.000 -2.4456 -1.3847 -0.3306
13861TIP3    H263075   0.160   5.321  10.888  4.1706  1.9412  1.0886
13862TIP3   OH263076   0.039   5.493  13.419  0.5095  0.7269 -0.3895
13862TIP3    H163077   0.024   5.585  13.397 -1.1760  0.5842  0.0184
13862TIP3    H263078   0.048   5.492  13.514  1.4265  0.5689 -0.4718
13863TIP3   OH263079   4.735   5.322   1.995  0.2506  0.0783  0.2860
13863TIP3    H163080   4.812   5.287   1.950 -1.5185 -0.6675 -2.4482
13863TIP3    H263081   4.701   5.249   2.046  0.7546  0.0947  0.6471
13864TIP3   OH263082   0.044   3.678  12.007 -0.6433 -0.2588  0.0041
13864TIP3    H163083   0.072   3.590  11.980 -0.0635 -0.1062  0.0877
13864TIP3    H263084   0.060   3.733  11.930 -0.0573 -0.0418  0.2700
13865TIP3   OH263085   0.603   0.073  11.682 -0.0034 -0.0361  0.4157
13865TIP3    H163086   0.634   0.063  11.592 -1.9162 -0.1438 -0.2760
13865TIP3    H263087   0.682   0.073  11.735  1.1253 -0.7281 -1.1976
13866TIP3   OH263088   1.167   2.385   2.696  0.1396 -0.0000  0.0298
13866TIP3    H163089   1.142   2.312   2.640  2.0861 -1.3286  0.7881
13866TIP3    H263090   1.218   2.443   2.639  1.3356 -0.8866  0.1706
13867TIP3   OH263091   2.639   1.729  14.262 -0.4148  0.8434  0.0430
13867TIP3    H163092   2.676   1.642  14.247  2.4608  1.4397  2.6453
13867TIP3    H263093   2.546   1.713  14.280 -0.5570 -1.3245 -2.1280
13868TIP3   OH263094   3.791   2.829  11.534 -0.5389 -0.3257 -0.5357
13868TIP3    H163095   3.751   2.787  11.610  0.5906  0.6198  0.6123
13868TIP3    H263096   3.717   2.870  11.488 -1.2527 -1.0261 -0.0551
13869TIP3   OH263097   6.466   5.660   4.902 -0.2491 -0.4283 -0.0949
13869TIP3    H163098   6.476   5.711   4.982  1.6304 -1.5194  0.4193
13869TIP3    H263099   6.402   5.593   4.925 -1.2568  0.4756 -0.1757
13870TIP3   OH263100   5.815   5.639  11.585  0.1194 -0.0490  0.3466
13870TIP3    H163101   5.770   5.631  11.501 -0.7304 -0.6573  0.8304
13870TIP3    H263102   5.827   5.549  11.614 -0.7149  0.1654  1.4306
13871TIP3   OH263103   5.959   0.596  12.291 -0.4988 -0.5670  0.3004
13871TIP3    H163104   5.869   0.569  12.310 -0.3008 -1.4479  0.0562
13871TIP3    H263105   5.953   0.641  12.207 -0.4875 -2.1134 -0.5662
13872TIP3   OH263106   1.840   2.146   6.499  0.8118 -0.0660  0.3464
13872TIP3    H163107   1.891   2.209   6.447 -2.3828  2.5665  0.0475
13872TIP3    H263108   1.751   2.156   6.466 -0.3502 -2.6882  2.3887
13873TIP3   OH263109   1.977   2.013   6.202 -0.0347  0.4912  0.1627
13873TIP3    H163110   1.991   2.098   6.243 -0.6984  0.8122 -0.2696
13873TIP3    H263111   1.940   1.958   6.271 -0.5771  0.8547  0.1682
13874TIP3   OH263112   1.929   2.443   0.289  0.7148  0.1651  0.6366
13874TIP3    H163113   1.927   2.434   0.385  1.1445 -2.5844  0.4604
13874TIP3    H263114   1.963   2.359   0.258 -0.1686  0.6995 -1.9853
13875TIP3   OH263115   2.860   5.464   0.327 -0.0878  0.5634 -0.2230
13875TIP3    H163116   2.932   5.425   0.377 -0.1485  0.7377  0.0009
13875TIP3    H263117   2.903   5.528   0.269  0.1077 -0.4103 -1.1864
13876TIP3   OH263118   2.244   4.810  12.506 -0.4702 -0.0237 -0.7938
13876TIP3    H163119   2.221   4.887  12.452 -2.5473  0.1702  0.2509
13876TIP3    H263120   2.313   4.841  12.563  0.7251  0.2039 -2.2954
13877TIP3   OH263121   6.123   2.687  13.739 -0.0375 -0.2101  0.0115
13877TIP3    H163122   6.033   2.710  13.718 -0.3831  0.9300  2.4322
13877TIP3    H263123   6.156   2.762  13.789  2.4148 -0.4029 -1.1878
13878TIP3   OH263124   6.777   2.074  16.359  0.0599 -0.0718  0.1090
13878TIP3    H163125   6.807   2.006  16.419 -1.0407 -1.5649 -0.9561
13878TIP3    H263126   6.681   2.073  16.368 -0.1026 -0.0770 -1.3947
13879TIP3   OH263127   2.513   0.225   4.545 -0.0610  0.5211  0.4147
13879TIP3    H163128   2.487   0.200   4.457 -0.7600 -0.0159  0.7652
13879TIP3    H263129   2.547   0.144   4.584  0.8389  0.8936  0.4351
13880TIP3   OH263130   0.276   2.158   5.193 -0.3289 -0.2851 -0.9228
13880TIP3    H163131   0.249   2.235   5.242  1.1145 -1.2258  1.5802
13880TIP3    H263132   0.371   2.170   5.181 -0.3769 -0.8917 -2.0016
13881TIP3   OH263133   2.979   0.941   0.181 -0.2283  0.2715  0.2347
13881TIP3    H163134   2.892   0.957   0.218 -0.4691 -0.6957  0.1185
13881TIP3    H263135   2.987   0.846   0.181 -1.1029 -0.0053 -4.1741
13882TIP3   OH263136   4.404   0.188  14.183  0.0791 -0.2248  0.1911
13882TIP3    H163137   4.311   0.195  14.207 -0.5187  1.7002 -2.3160
13882TIP3    H263138   4.444   0.266  14.221  0.9545 -1.5276  2.0856
13883TIP3   OH263139   1.042   4.660   6.076 -0.3730 -0.3410 -0.8980
13883TIP3    H163140   1.055   4.749   6.109  0.6942 -0.8317  0.0795
13883TIP3    H263141   1.034   4.606   6.155  3.2814 -1.7040 -1.2529
13884TIP3   OH263142   4.692   3.226   1.778  0.0954  0.0677  0.2692
13884TIP3    H163143   4.682   3.133   1.758 -0.0777  0.2710 -0.6459
13884TIP3    H263144   4.768   3.253   1.726 -1.5135  1.0458 -1.7339
13885TIP3   OH263145   0.764   0.017  13.280  0.0072  0.4612  0.1642
13885TIP3    H163146   0.802  -0.065  13.309  0.8181  1.2550  1.3917
13885TIP3    H263147   0.670   0.006  13.294  0.0352 -0.4737 -0.2879
13886TIP3   OH263148   0.230   6.496   5.025 -0.4238 -0.4392  0.3861
13886TIP3    H163149   0.242   6.479   5.119 -0.6685 -3.2669 -0.0156
13886TIP3    H263150   0.222   6.410   4.986  0.2208  0.6422 -2.3613
13887TIP3   OH263151   2.411   3.460  16.333 -0.0021  0.1587 -0.3163
13887TIP3    H163152   2.351   3.488  16.264 -2.0913  0.8760  1.6766
13887TIP3    H263153   2.398   3.365  16.338  0.7473 -0.0225 -1.3745
13888TIP3   OH263154   4.853   3.096  11.464 -0.3425 -0.0267  0.1149
13888TIP3    H163155   4.920   3.029  11.469 -0.9448 -0.6939 -0.5589
13888TIP3    H263156   4.793   3.075  11.537 -1.2195 -1.0093 -0.8542
13889TIP3   OH263157   5.448   5.829   1.105 -0.2751  0.0625 -0.0317
13889TIP3    H163158   5.526   5.774   1.115 -0.0899  0.5334  1.3988
13889TIP3    H263159   5.482   5.909   1.065  0.1396  0.5451  1.2264
13890TIP3   OH263160   4.178   6.461  16.501  0.1858  0.2211  0.5073
13890TIP3    H163161   4.115   6.445  16.571 -0.1146 -0.1057  0.1656
13890TIP3    H263162   4.165   6.388  16.440 -1.1821  1.7179 -1.0773
13891TIP3   OH263163   4.479   1.502  16.457 -0.1216  0.2828 -0.7751
13891TIP3    H163164   4.542   1.533  16.392  0.2563  0.7505 -0.1997
13891TIP3    H263165   4.423   1.578  16.474  1.5986  1.1500  1.5819
13892TIP3   OH263166   3.539   2.342   2.478  0.2304  0.6741 -0.1375
13892TIP3    H163167   3.450   2.323   2.449 -0.6741 -0.0514  2.7709
13892TIP3    H263168   3.567   2.261   2.521  1.4542  1.6347  0.9124
13893TIP3   OH263169   2.229   5.510  11.893 -0.0026 -1.0232 -0.2249
13893TIP3    H163170   2.219   5.507  11.797 -1.4780  0.2626 -0.1632
13893TIP3    H263171   2.323   5.507  11.908  0.2721 -0.7804 -1.7500
13894TIP3   OH263172   4.772   3.302   5.434 -0.3363  0.0535  1.0400
13894TIP3    H163173   4.823   3.361   5.488 -1.5661  1.0281  1.1820
13894TIP3    H263174   4.788   3.215   5.472  0.7394  0.4067  1.4237
13895TIP3   OH263175   1.977   3.452   0.352 -0.4148  0.5996  0.1265
13895TIP3    H163176   2.046   3.439   0.286 -0.7255  0.4599 -0.1719
13895TIP3    H263177   1.897   3.462   0.301 -1.1872 -2.5485  0.4914
13896TIP3   OH263178   6.845   4.829  15.187 -0.0957  0.4071  0.3322
13896TIP3    H163179   6.865   4.800  15.098  0.7417 -1.5998  1.1096
13896TIP3    H263180   6.764   4.783  15.210  0.5265 -0.3384  1.1205
13897TIP3   OH263181   0.648   6.097   5.478  0.1512 -0.4518 -0.6059
13897TIP3    H163182   0.636   6.107   5.384 -1.5929 -0.9345 -0.4548
13897TIP3    H263183   0.688   6.011   5.488 -1.4328 -1.2366 -0.8138
13898TIP3   OH263184   6.020   6.368   2.756  0.6967  0.0766  0.6136
13898TIP3    H163185   5.960   6.417   2.813  1.2678  0.6272  0.7485
13898TIP3    H263186   6.046   6.432   2.690 -0.7010 -0.8042 -0.8605
13899TIP3   OH263187   4.539   0.028  13.456  0.6215 -0.1545 -0.2875
13899TIP3    H163188   4.483  -0.045  13.485 -1.5075  0.3757 -2.6510
13899TIP3    H263189   4.619  -0.014  13.425 -0.6155 -1.5865 -1.7283
13900TIP3   OH263190   6.210   3.228   1.653  0.6573 -0.1006  0.0349
13900TIP3    H163191   6.197   3.320   1.631  2.0902  0.0591 -0.1855
13900TIP3    H263192   6.301   3.221   1.681  1.2504 -1.8174 -2.0211
13901TIP3   OH263193   3.777   0.919   3.235  0.2574 -0.4020 -0.3594
13901TIP3    H163194   3.749   0.841   3.283 -3.9372  1.2502  0.3373
13901TIP3    H263195   3.832   0.966   3.297  1.7437 -2.0847 -0.3171
13902TIP3   OH263196   4.834   0.851   4.830  0.1497  0.2310 -0.2385
13902TIP3    H163197   4.796   0.832   4.744 -0.0683 -0.9179  0.1028
13902TIP3    H263198   4.772   0.911   4.871 -0.8877 -0.9242 -0.0415
13903TIP3   OH263199   1.101   3.575  12.301  0.5745  0.0668 -0.4941
13903TIP3    H163200   1.163   3.639  12.266  1.3101 -0.5001 -0.2641
13903TIP3    H263201   1.117   3.496  12.249 -0.3803  0.0851 -0.8344
13904TIP3   OH263202   0.232   2.345  12.938 -0.1672  0.0578  0.1870
13904TIP3    H163203   0.325   2.364  12.941 -0.4918  1.6602  1.2277
13904TIP3    H263204   0.190   2.419  12.982 -1.7275 -2.0591  2.5527
13905TIP3   OH263205   5.309   6.230  10.980 -0.0217 -0.1385  0.5970
13905TIP3    H163206   5.395   6.233  10.938 -0.2239 -0.8198  0.1107
13905TIP3    H263207   5.300   6.140  11.011 -1.6018 -0.8583 -1.6674
13906TIP3   OH263208   2.466   4.978  14.915  0.2418  0.0059  0.5042
13906TIP3    H163209   2.372   4.980  14.895  0.2795  0.6527  0.3959
13906TIP3    H263210   2.507   4.951  14.833  0.0395 -1.8991  0.9729
13907TIP3   OH263211   6.204   2.604   5.076 -0.0900 -0.4106  0.3194
13907TIP3    H163212   6.234   2.655   5.001  0.2824  0.3523  0.9757
13907TIP3    H263213   6.215   2.513   5.048  0.7906 -0.1450 -0.2558
13908TIP3   OH263214   6.576   3.091   0.923  0.4434 -0.2210 -0.0549
13908TIP3    H163215   6.582   3.028   0.852 -1.9305  0.5351 -1.0051
13908TIP3    H263216   6.522   3.048   0.989  0.3659  0.1216  0.1071
13909TIP3   OH263217   2.895   1.292   1.838 -0.4888 -0.2872 -0.0459
13909TIP3    H163218   2.918   1.211   1.886  1.8835  0.9721  1.1366
13909TIP3    H263219   2.902   1.267   1.746  2.1539 -1.0702  0.2517
13910TIP3   OH263220   5.976   6.714   0.867 -0.5099  0.7845  0.4573
13910TIP3    H163221   5.882   6.701   0.881 -0.3045 -1.8603  0.0273
13910TIP3    H263222   5.995   6.663   0.787  1.5897 -0.4387  1.6420
13911TIP3   OH263223   1.316   2.450  16.348  1.0512 -0.4111 -0.5807
13911TIP3    H163224   1.402   2.474  16.315 -0.2526  2.2971 -2.3692
13911TIP3    H263225   1.254   2.485  16.283 -1.4326 -1.5741  0.9840
13912TIP3   OH263226   3.796   5.964   0.492  0.0134  0.4488 -0.2885
13912TIP3    H163227   3.754   5.884   0.460 -0.5385  0.9014 -0.7308
13912TIP3    H263228   3.837   5.938   0.574 -0.4359 -0.2149 -0.2621
13913TIP3   OH263229   6.655   2.527   4.001  0.5406 -0.2418 -0.4278
13913TIP3    H163230   6.706   2.563   3.929  1.3858 -1.4675 -0.4834
13913TIP3    H263231   6.690   2.438   4.013  0.8697  0.1402  1.9140
13914TIP3   OH263232   1.755   5.718   0.547 -0.4268 -0.0624 -0.1064
13914TIP3    H163233   1.682   5.667   0.513  1.0914 -0.2834 -3.3833
13914TIP3    H263234   1.725   5.809   0.542 -0.4719 -0.1353 -1.6121
13915TIP3   OH263235   4.771   2.610   6.558 -0.2917  0.5937 -0.2713
13915TIP3    H163236   4.764   2.520   6.526 -1.9898  0.4301  0.4762
13915TIP3    H263237   4.682   2.634   6.583  0.4424  1.7734  1.4408
13916TIP3   OH263238   3.763   5.480   0.433 -0.2247  0.1656 -0.5296
13916TIP3    H163239   3.778   5.457   0.525  0.3490  2.0406 -0.1116
13916TIP3    H263240   3.776   5.398   0.386  0.2214 -0.6779  0.9884
13917TIP3   OH263241   1.606   6.268   1.372 -0.4016  0.0303 -0.1691
13917TIP3    H163242   1.550   6.335   1.332 -1.5734 -0.5494  0.4688
13917TIP3    H263243   1.546   6.197   1.394  0.5165 -0.4243  0.9416
13918TIP3   OH263244   3.615   2.811  15.095  0.0393 -0.1256  0.6485
13918TIP3    H163245   3.694   2.761  15.075 -0.1723 -0.9039  1.6743
13918TIP3    H263246   3.646   2.901  15.106  0.4111  0.0113 -1.2855
13919TIP3   OH263247   3.632   1.065  13.762 -0.2570  0.1324  0.1568
13919TIP3    H163248   3.715   1.081  13.807 -0.9500  1.0518  1.1519
13919TIP3    H263249   3.641   1.110  13.679  1.1221 -1.7609 -0.8050
13920TIP3   OH263250   1.643   5.554   2.531 -0.4699 -0.3132 -0.2300
13920TIP3    H163251   1.680   5.466   2.520 -1.8135 -0.9010 -0.3829
13920TIP3    H263252   1.549   5.541   2.518 -0.7276  1.1049  0.0774
13921TIP3   OH263253   1.135   6.080  14.541  0.1032  0.0109  0.2166
13921TIP3    H163254   1.083   6.000  14.541  0.5655 -0.3453 -2.3783
13921TIP3    H263255   1.155   6.095  14.634 -0.9983 -2.1856  0.8720
13922TIP3   OH263256   3.868   0.273  14.055  0.1658 -0.0485  0.2714
13922TIP3    H163257   3.913   0.267  13.970  1.3065  0.1183  0.8437
13922TIP3    H263258   3.792   0.328  14.038  0.3840 -0.0050 -0.6371
13923TIP3   OH263259   0.537   0.070   5.596 -0.0404  0.3127 -0.4417
13923TIP3    H163260   0.460   0.023   5.565 -0.5567  1.7185 -1.4256
13923TIP3    H263261   0.583   0.008   5.651 -2.9091  0.0067  1.8627
13924TIP3   OH263262   2.853   1.344  13.489  0.2200 -0.1767 -0.5053
13924TIP3    H163263   2.766   1.322  13.522  0.3961  1.6660  1.3639
13924TIP3    H263264   2.836   1.379  13.401 -0.8726 -0.3720 -0.3928
13925TIP3   OH263265   3.566   6.479  16.481 -0.0138  0.0703 -0.3105
13925TIP3    H163266   3.639   6.431  16.520 -0.7978 -0.6704  0.2869
13925TIP3    H263267   3.507   6.498  16.554  0.1033  1.6507 -0.5958
13926TIP3   OH263268   3.102   3.215   2.568 -0.4069  0.1579  0.4861
13926TIP3    H163269   3.024   3.181   2.611 -0.8601  1.0128  0.3657
13926TIP3    H263270   3.145   3.138   2.532 -1.1704 -0.3328  0.5927
13927TIP3   OH263271   2.172   0.224  10.588 -0.5490 -0.2526 -0.1162
13927TIP3    H163272   2.166   0.319  10.594 -0.8525 -0.2172 -0.8115
13927TIP3    H263273   2.266   0.206  10.583 -0.4908  0.0105 -0.0063
13928TIP3   OH263274   3.078   3.995  13.474 -0.0585 -0.1979 -0.1397
13928TIP3    H163275   3.093   3.904  13.446  1.5578 -0.1436  0.3991
13928TIP3    H263276   3.071   3.990  13.569 -1.4267  0.0942 -0.2060
13929TIP3   OH263277   3.831   2.715   0.019 -0.2418  0.2740  0.0605
13929TIP3    H163278   3.736   2.717   0.014 -0.3232 -1.5458  0.4607
13929TIP3    H263279   3.855   2.626  -0.006  1.3222  0.5447  0.4990
13930TIP3   OH263280   3.999   6.704   3.110  0.4989 -0.3207  0.0109
13930TIP3    H163281   3.951   6.705   3.027  1.3753 -0.6039 -0.5053
13930TIP3    H263282   3.980   6.618   3.147  1.1923 -0.7285 -0.5516
13931TIP3   OH263283   6.372   3.679  11.208 -0.5497  0.1400 -0.6047
13931TIP3    H163284   6.457   3.658  11.246 -0.3598  1.6615 -0.0942
13931TIP3    H263285   6.380   3.657  11.116  0.6445  0.8847 -0.6979
13932TIP3   OH263286   6.307   0.851  11.510 -0.0352  0.4297 -0.1610
13932TIP3    H163287   6.402   0.844  11.517 -0.0223 -0.8649 -1.2144
13932TIP3    H263288   6.275   0.825  11.597  0.5530  0.1610 -0.0145
13933TIP3   OH263289   6.051   2.602  14.630 -0.5625  0.3284 -0.1772
13933TIP3    H163290   6.141   2.606  14.598 -1.0629  0.3980 -1.6677
13933TIP3    H263291   5.999   2.583  14.552 -1.8734  0.6546  0.5894
13934TIP3   OH263292   3.974   3.845   5.878 -0.1625  0.0238 -0.5436
13934TIP3    H163293   3.975   3.762   5.830  2.0286 -1.5100  1.9392
13934TIP3    H263294   4.065   3.872   5.883 -0.5604  1.2644  0.8674
13935TIP3   OH263295   0.817   1.643   4.433 -0.0330 -0.3161 -0.1945
13935TIP3    H163296   0.810   1.730   4.393 -0.0367 -0.5413 -0.6983
13935TIP3    H263297   0.877   1.595   4.375  1.0911 -0.2238  0.8328
13936TIP3   OH263298   1.396   2.525   3.480  0.2166  0.1531 -0.3259
13936TIP3    H163299   1.488   2.522   3.455  0.1920  1.1298 -0.5639
13936TIP3    H263300   1.387   2.604   3.532 -0.4526 -0.0398 -0.1343
13937TIP3   OH263301   5.420   0.167   5.022 -0.3474  0.5958 -0.1946
13937TIP3    H163302   5.503   0.212   5.002 -0.6322  0.2598 -2.3442
13937TIP3    H263303   5.439   0.074   5.007 -0.7585  0.3646  0.6571
13938TIP3   OH263304   6.155   3.483   3.712  0.6721  0.0191 -0.3714
13938TIP3    H163305   6.227   3.425   3.735  0.7345  0.0020 -0.6051
13938TIP3    H263306   6.079   3.425   3.706  0.5868  0.0757  0.1262
13939TIP3   OH263307   1.310   1.431  15.796  0.2776 -0.2807  0.0169
13939TIP3    H163308   1.292   1.512  15.748  0.2633  0.5451  1.3715
13939TIP3    H263309   1.385   1.452  15.852  1.8330 -1.9344 -1.3151
13940TIP3   OH263310   5.451   0.417  15.024  0.6540  0.5222 -0.4516
13940TIP3    H163311   5.454   0.424  15.120  0.2330 -0.4015 -0.3587
13940TIP3    H263312   5.511   0.346  15.003 -0.8826 -0.7732 -0.6676
13941TIP3   OH263313   3.774   5.194   5.708  0.6095 -0.0038 -0.1187
13941TIP3    H163314   3.857   5.148   5.720  0.8113  0.4592  0.2790
13941TIP3    H263315   3.788   5.251   5.633  0.3181 -0.6778 -0.6923
13942TIP3   OH263316   6.651   5.558   3.536 -0.0148  0.6795 -0.1363
13942TIP3    H163317   6.560   5.566   3.506  0.4012  2.5796 -1.0098
13942TIP3    H263318   6.657   5.619   3.610  0.5234  0.4525  0.0137
13943TIP3   OH263319   2.171   3.124   4.202 -0.2625 -0.1076 -0.4444
13943TIP3    H163320   2.143   3.072   4.278  1.6286 -0.5923 -0.0272
13943TIP3    H263321   2.100   3.188   4.190 -0.3810  0.3553  2.0961
13944TIP3   OH263322   1.351   3.007  13.748  0.0890  0.1323  0.5771
13944TIP3    H163323   1.446   3.018  13.755  0.0630  0.0002  1.2217
13944TIP3    H263324   1.339   2.940  13.680  0.4940 -0.3996  1.0172
13945TIP3   OH263325   3.362   6.040   2.326 -0.1289 -0.0443  0.0681
13945TIP3    H163326   3.296   6.108   2.336  0.0421  0.0373  0.6738
13945TIP3    H263327   3.444   6.088   2.315  0.1622 -0.1341  1.6365
13946TIP3   OH263328   4.145   0.450  13.621  0.3898  0.0272 -0.3789
13946TIP3    H163329   4.121   0.541  13.639 -0.0663 -0.1016 -0.3339
13946TIP3    H263330   4.241   0.452  13.613  0.6547  0.1335  1.9374
13947TIP3   OH263331   3.240   5.412  16.386 -0.2016 -0.2222 -0.0607
13947TIP3    H163332   3.229   5.374  16.473 -0.8620 -0.6141 -0.3123
13947TIP3    H263333   3.301   5.485  16.400  0.7083 -1.0562  0.5136
13948TIP3   OH263334   6.327   3.834  12.529 -0.1529 -0.3030  0.2329
13948TIP3    H163335   6.305   3.906  12.588  0.9221 -0.3780  0.7579
13948TIP3    H263336   6.245   3.814  12.484 -0.5234  1.0949  0.2355
13949TIP3   OH263337   5.233   3.720   3.782  0.6168  0.4984  0.0762
13949TIP3    H163338   5.255   3.813   3.778  1.6410  0.3164  1.0510
13949TIP3    H263339   5.301   3.677   3.729  0.0177  0.3117 -0.5589
13950TIP3   OH263340   3.480   3.673  11.386  0.3089 -0.4878 -0.8315
13950TIP3    H163341   3.533   3.673  11.307 -1.4947 -1.0591 -2.1081
13950TIP3    H263342   3.454   3.582  11.398 -1.2232 -0.0920 -0.8798
13951TIP3   OH263343   3.334   5.632   2.987 -0.4108 -0.3886  0.3669
13951TIP3    H163344   3.325   5.607   2.895 -0.6477  0.6237  0.1069
13951TIP3    H263345   3.244   5.640   3.019 -0.3398  0.0273  0.4718
13952TIP3   OH263346   6.020   1.117  16.488 -0.1848  0.4202 -0.6640
13952TIP3    H163347   6.080   1.164  16.546 -0.7428  0.7271 -0.3314
13952TIP3    H263348   6.042   1.025  16.501  0.3630  0.5430 -0.7067
13953TIP3   OH263349   1.899   5.752  14.468  0.2583  0.3694  0.1080
13953TIP3    H163350   1.919   5.736  14.375 -0.8088 -0.1024 -0.0568
13953TIP3    H263351   1.983   5.777  14.506  0.5807  1.3010 -1.1396
13954TIP3   OH263352   5.850   2.199   2.796  0.0475 -0.1418 -0.5555
13954TIP3    H163353   5.897   2.161   2.870 -0.7279 -1.1043 -0.5471
13954TIP3    H263354   5.918   2.246   2.747  0.6625  0.0551  0.4626
13955TIP3   OH263355   4.835   4.620   5.535 -0.0325 -0.2272 -0.1166
13955TIP3    H163356   4.903   4.566   5.495  1.7562  0.9933  1.1271
13955TIP3    H263357   4.754   4.571   5.521  1.2539 -2.3571 -0.5545
13956TIP3   OH263358   2.291   4.109   1.185  0.8167 -0.6654 -0.4717
13956TIP3    H163359   2.329   4.031   1.144  0.6003 -0.4807 -1.0296
13956TIP3    H263360   2.313   4.101   1.278 -1.1739 -2.5631 -0.0864
13957TIP3   OH263361   3.646   5.461   5.324 -0.0222  0.0216 -0.1745
13957TIP3    H163362   3.604   5.387   5.282  0.1947 -0.7161  0.8776
13957TIP3    H263363   3.681   5.426   5.406  1.7324  0.8420 -0.5245
13958TIP3   OH263364   1.855   2.177  13.599 -0.6494 -0.2595 -0.2730
13958TIP3    H163365   1.875   2.264  13.567 -2.0258  0.1572 -0.0646
13958TIP3    H263366   1.860   2.121  13.522  3.3649 -0.6512  0.0634
13959TIP3   OH263367   3.627   6.576   3.700 -0.0549  0.0187 -0.3538
13959TIP3    H163368   3.696   6.537   3.646 -0.8339  0.0420 -1.4101
13959TIP3    H263369   3.649   6.669   3.703 -1.1693  0.4313 -2.5617
13960TIP3   OH263370   3.919   2.376  12.204  0.6491 -0.1848 -0.1575
13960TIP3    H163371   3.853   2.309  12.221  0.3397 -0.1905 -1.3164
13960TIP3    H263372   4.002   2.332  12.222  0.3888 -0.4467  0.4374
13961TIP3   OH263373   4.041   2.582  13.910  1.0684 -0.3763 -0.1224
13961TIP3    H163374   3.973   2.567  13.976  0.6167  0.4992 -0.3699
13961TIP3    H263375   4.123   2.561  13.954  0.8141  0.6071  0.8671
13962TIP3   OH263376   1.071   4.017  13.118  0.3214 -0.0297  0.3848
13962TIP3    H163377   1.034   3.945  13.067  2.2533 -1.3227  0.7248
13962TIP3    H263378   1.121   3.975  13.188  0.8996  1.6584  1.0523
13963TIP3   OH263379   2.147   2.602  11.694  0.0087  1.0383 -0.1390
13963TIP3    H163380   2.138   2.660  11.618 -2.0536  0.5232 -0.3397
13963TIP3    H263381   2.203   2.530  11.662 -0.3490  1.1260 -0.9999
13964TIP3   OH263382   6.705   5.977   5.646  0.0024 -0.4544 -0.1822
13964TIP3    H163383   6.701   5.891   5.686  0.5374 -0.2990  0.2179
13964TIP3    H263384   6.635   6.027   5.688 -0.1214 -0.6068 -0.2071
13965TIP3   OH263385   0.939   0.369  13.031  0.2730  0.4557  0.0883
13965TIP3    H163386   0.988   0.323  12.963 -2.5114 -1.1919 -0.9769
13965TIP3    H263387   0.924   0.457  12.996  0.5528  0.2486 -0.5517
13966TIP3   OH263388   4.639   3.142   3.700 -0.4295  0.1253 -0.4339
13966TIP3    H163389   4.638   3.212   3.635  1.4600 -0.6291 -1.3575
13966TIP3    H263390   4.642   3.061   3.648  0.4427 -0.5136  0.5729
13967TIP3   OH263391   2.098   2.138   0.287 -0.0150 -0.0651  0.8869
13967TIP3    H163392   2.049   2.088   0.352 -0.3272 -0.3713  0.4224
13967TIP3    H263393   2.183   2.094   0.282  0.4853  0.7300  2.0122
13968TIP3   OH263394   0.584   3.213   0.108 -0.3195 -0.3010 -0.6925
13968TIP3    H163395   0.542   3.219   0.022  0.6651 -1.0269 -1.2417
13968TIP3    H263396   0.602   3.120   0.119 -0.8765 -0.2810  0.5272
13969TIP3   OH263397   5.868   1.099   2.514  0.0256  0.0988  0.4088
13969TIP3    H163398   5.956   1.135   2.526  1.0866 -2.0156 -0.5190
13969TIP3    H263399   5.871   1.057   2.428 -2.2833  0.9379 -0.1769
13970TIP3   OH263400   0.982   1.213   0.974  0.4282  0.1146  0.1818
13970TIP3    H163401   0.941   1.296   0.997  0.5405  0.3295 -0.3884
13970TIP3    H263402   0.950   1.193   0.886  0.8333 -0.1678  0.0923
13971TIP3   OH263403   3.863   5.260   3.964 -0.1039 -0.7172  0.1519
13971TIP3    H163404   3.882   5.169   3.940  0.9448 -0.6047  0.5121
13971TIP3    H263405   3.806   5.291   3.894  1.4658 -0.9413 -1.3100
13972TIP3   OH263406   0.877   0.392  14.313  0.5382  0.4736  0.6945
13972TIP3    H163407   0.795   0.382  14.362  0.4790 -2.3721  0.2169
13972TIP3    H263408   0.940   0.421  14.378 -0.5663  1.4617  1.3573
13973TIP3   OH263409   0.049   2.625   4.319  0.0877  0.2816  0.3009
13973TIP3    H163410  -0.041   2.659   4.315  0.6044  1.6348 -2.9726
13973TIP3    H263411   0.098   2.678   4.257  2.9894 -1.0632  1.2488
13974TIP3   OH263412   0.077   6.247   6.689  0.2458 -0.3201 -0.0929
13974TIP3    H163413   0.076   6.292   6.773  1.2190 -0.2253 -0.1146
13974TIP3    H263414   0.046   6.311   6.626  1.4493  0.2903 -0.0974
13975TIP3   OH263415   0.970   6.018   1.874 -0.8505  0.7272  0.1861
13975TIP3    H163416   1.022   6.028   1.795 -0.9002 -0.6233 -0.0419
13975TIP3    H263417   0.963   6.106   1.910  0.3582  1.1458 -0.5588
13976TIP3   OH263418   0.042   3.916  16.154  0.8702 -0.2014 -0.6614
13976TIP3    H163419   0.006   3.894  16.240  0.2993 -1.9000 -1.3067
13976TIP3    H263420   0.056   3.832  16.111  0.7029  0.6274 -2.4275
13977TIP3   OH263421   4.880   0.295   5.936 -0.5912 -0.0858 -0.3733
13977TIP3    H163422   4.836   0.312   6.019 -1.6160 -0.7498 -0.7513
13977TIP3    H263423   4.819   0.239   5.888  0.9127 -1.4949 -0.7255
13978TIP3   OH263424   5.429   1.260   1.335  0.7365 -0.4110  0.4898
13978TIP3    H163425   5.456   1.305   1.255 -1.3070  1.3524  0.7208
13978TIP3    H263426   5.338   1.237   1.320  1.2057 -2.9917  1.1050
13979TIP3   OH263427   4.222   1.394  12.824 -0.4579 -0.3139  0.2439
13979TIP3    H163428   4.316   1.384  12.840 -0.5477 -0.6967  0.5729
13979TIP3    H263429   4.183   1.392  12.912 -0.6659  1.1901  0.2091
13980TIP3   OH263430   6.234   5.452   3.261  0.0355 -0.7307 -0.5289
13980TIP3    H163431   6.180   5.481   3.187 -0.6780 -0.3132  0.1379
13980TIP3    H263432   6.190   5.374   3.294 -1.8473  1.1306  1.7448
13981TIP3   OH263433   1.752   2.561  16.981  0.3382  0.1809 -0.0153
13981TIP3    H163434   1.789   2.536  17.065  0.2980  1.2689  0.3388
13981TIP3    H263435   1.817   2.620  16.943 -0.7193  1.6514  0.3571
13982TIP3   OH263436   6.152   4.763   3.815 -0.1116 -0.3804 -0.3710
13982TIP3    H163437   6.071   4.780   3.767  0.2153 -1.0195 -1.1786
13982TIP3    H263438   6.174   4.847   3.855  0.1617  0.4872 -2.2354
13983TIP3   OH263439   6.456   2.834  15.200 -0.2252 -0.2373 -0.0247
13983TIP3    H163440   6.428   2.899  15.135 -1.9587  0.6994  1.5539
13983TIP3    H263441   6.523   2.782  15.155 -0.4339  1.1726 -2.1059
13984TIP3   OH263442   4.580   1.386  15.536 -0.4298 -0.2031  0.1164
13984TIP3    H163443   4.506   1.435  15.500 -0.9367 -1.8609 -1.1877
13984TIP3    H263444   4.544   1.339  15.610 -0.8666 -1.4657 -0.8670
13985TIP3   OH263445   1.383   1.800  11.897 -0.0356 -0.2557  0.2732
13985TIP3    H163446   1.291   1.816  11.874  0.4210  1.3144 -0.5915
13985TIP3    H263447   1.421   1.764  11.817  0.6812  1.6204 -0.2858
13986TIP3   OH263448   0.613   4.811  11.168  0.3989 -0.6457  0.1432
13986TIP3    H163449   0.687   4.869  11.183  0.1263 -0.2960  0.1704
13986TIP3    H263450   0.628   4.774  11.081  0.7530 -0.8056  0.2733
13987TIP3   OH263451   1.833   0.525   1.270 -0.3850  0.0695  0.1918
13987TIP3    H163452   1.751   0.483   1.247 -1.0980  1.8948 -0.8532
13987TIP3    H263453   1.898   0.486   1.211 -0.3697 -1.6443  1.2705
13988TIP3   OH263454   2.642   2.108  15.645 -0.6862  0.5318 -0.2076
13988TIP3    H163455   2.553   2.101  15.681 -0.5074 -1.3733 -0.0246
13988TIP3    H263456   2.677   2.189  15.682 -2.2105  1.1419 -0.0106
13989TIP3   OH263457   3.342   6.699   4.342 -0.1397 -0.4085  0.3310
13989TIP3    H163458   3.302   6.750   4.271  0.5595  1.6886  1.3528
13989TIP3    H263459   3.292   6.617   4.343 -1.0508  0.0436 -1.6799
13990TIP3   OH263460   4.205   1.170  11.539 -0.3576  0.0850  0.2014
13990TIP3    H163461   4.158   1.230  11.597  0.9865 -0.9641  2.5635
13990TIP3    H263462   4.267   1.126  11.597 -0.2227 -2.4550 -1.7010
13991TIP3   OH263463   2.836   5.988   5.331  0.0327 -0.0690  0.4768
13991TIP3    H163464   2.900   5.944   5.275  0.1881 -0.5852  1.0384
13991TIP3    H263465   2.888   6.044   5.388 -0.3325  3.2740 -2.1973
13992TIP3   OH263466   6.045   1.709   2.913  0.1022 -0.5017 -0.1801
13992TIP3    H163467   5.991   1.784   2.939  0.6569  0.3575 -1.3767
13992TIP3    H263468   6.057   1.720   2.819 -1.2008 -3.0478 -0.7256
13993TIP3   OH263469   0.308   3.699   4.215  0.7676 -0.1509 -0.5743
13993TIP3    H163470   0.402   3.716   4.203  1.0838 -1.9832 -0.9367
13993TIP3    H263471   0.296   3.698   4.310  1.5250 -1.7775 -0.4573
13994TIP3   OH263472   0.043   6.088  14.108  0.2303  0.0127  0.1273
13994TIP3    H163473   0.092   6.045  14.178 -0.1012  1.6665  1.4418
13994TIP3    H263474   0.109   6.106  14.041 -0.1508 -5.9653 -2.5356
13995TIP3   OH263475   3.700   4.940  16.762 -0.3519  0.8431 -0.1306
13995TIP3    H163476   3.684   4.846  16.754  2.4309  0.3287 -0.9677
13995TIP3    H263477   3.692   4.973  16.672  1.1722  0.8716 -0.2839
13996TIP3   OH263478   5.280   2.316  12.783 -0.0203  0.0625  0.6463
13996TIP3    H163479   5.289   2.409  12.803  1.0667 -0.6186  3.9427
13996TIP3    H263480   5.198   2.289  12.825  0.0053 -0.6257  0.2851
13997TIP3   OH263481   4.146   5.315  16.845 -0.3403  0.1015 -0.2829
13997TIP3    H163482   4.102   5.391  16.883  0.4551 -0.0287  0.9299
13997TIP3    H263483   4.208   5.353  16.783 -1.8907  0.2992 -1.8203
13998TIP3   OH263484   5.547   1.591   0.626  0.0050  0.7966  0.0637
13998TIP3    H163485   5.607   1.517   0.639 -0.5966  0.7380  3.3193
13998TIP3    H263486   5.463   1.551   0.604  0.0733  0.6356  0.0956
13999TIP3   OH263487   0.760   4.708   3.230  0.5369 -0.8344 -0.0179
13999TIP3    H163488   0.709   4.702   3.150  0.2360 -0.7553  0.1669
13999TIP3    H263489   0.833   4.648   3.217  0.0942 -1.3695 -0.0561
14000TIP3   OH263490   6.550   4.610  16.790  0.6101 -0.1738 -0.3194
14000TIP3    H163491   6.599   4.662  16.854  1.3504  1.0285 -1.8136
14000TIP3    H263492   6.458   4.626  16.811  0.8209  1.7099 -0.6930
14001TIP3   OH263493   2.067   1.943  15.684 -0.2144 -0.0812 -0.1261
14001TIP3    H163494   2.025   1.988  15.758  0.5796  0.4462  0.0169
14001TIP3    H263495   2.049   1.999  15.609 -1.5016 -0.9003 -0.4619
14002TIP3   OH263496   0.568   3.904  16.419  0.3062  0.0636 -0.5030
14002TIP3    H163497   0.557   3.908  16.324 -0.1821  0.5560 -0.4377
14002TIP3    H263498   0.486   3.865  16.450  0.0998  0.6948 -0.2309
14003TIP3   OH263499   5.290   0.339   6.765 -0.3910 -0.1526 -0.4296
14003TIP3    H163500   5.357   0.406   6.753 -0.0286 -0.4207  0.0515
14003TIP3    H263501   5.327   0.261   6.723 -1.6946  0.4444 -2.8750
14004TIP3   OH263502   1.380   5.149  12.798  1.2149  0.2241 -0.0461
14004TIP3    H163503   1.424   5.160  12.713  0.8048  1.2571 -0.1419
14004TIP3    H263504   1.308   5.212  12.796  1.0193  0.0483  0.9507
14005TIP3   OH263505   5.610   4.998  12.764 -0.0826 -0.3026 -0.1676
14005TIP3    H163506   5.527   5.045  12.767 -0.0239 -0.1832 -0.3844
14005TIP3    H263507   5.588   4.908  12.785 -0.0573 -0.0005  1.2629
14006TIP3   OH263508   3.290   0.922  17.033 -0.2010  0.3840 -0.0151
14006TIP3    H163509   3.375   0.894  17.068  0.0032 -1.4804 -1.8140
14006TIP3    H263510   3.310   0.999  16.980  0.6140 -0.7226 -1.3741
14007TIP3   OH263511   1.247   5.575  16.876 -0.3872  0.2284 -0.0297
14007TIP3    H163512   1.152   5.584  16.869 -0.4873  1.2407  2.0078
14007TIP3    H263513   1.282   5.633  16.808 -1.2035 -0.0269 -0.6875
14008TIP3   OH263514   6.723   6.049   4.864  0.0540  0.0781 -0.5982
14008TIP3    H163515   6.753   6.050   4.955 -0.8381 -1.4359 -0.2502
14008TIP3    H263516   6.655   6.117   4.860  0.9915  1.0518 -0.4949
14009TIP3   OH263517   1.684   3.863  15.247  0.4029  0.2964  0.2476
14009TIP3    H163518   1.601   3.843  15.290  0.0013 -0.6377 -0.8811
14009TIP3    H263519   1.675   3.953  15.215 -0.6668 -0.1844 -0.8836
14010TIP3   OH263520   1.307   1.780  16.015  0.5923  0.0996 -0.7286
14010TIP3    H163521   1.304   1.868  15.977  0.5808 -0.7164 -2.7784
14010TIP3    H263522   1.237   1.779  16.080  0.7660  1.6739 -0.4774
14011TIP3   OH263523   0.508   6.058  14.351  0.0349  0.5600 -0.0566
14011TIP3    H163524   0.503   6.002  14.273 -3.1370  2.1090 -1.1352
14011TIP3    H263525   0.498   5.998  14.425 -0.4695 -0.5698 -1.0244
14012TIP3   OH263526   3.755   3.248   4.960  0.4125  0.0710 -0.1038
14012TIP3    H163527   3.747   3.267   5.053 -0.0607 -1.1517  0.1262
14012TIP3    H263528   3.848   3.234   4.945  0.6741  1.6616 -0.1228
14013TIP3   OH263529   1.858   1.532   4.706  0.0663 -0.0851 -0.3934
14013TIP3    H163530   1.773   1.563   4.737 -0.4413  0.2078 -1.9933
14013TIP3    H263531   1.837   1.477   4.630  1.3181  0.2313 -0.9913
14014TIP3   OH263532   5.871   6.853  12.783 -0.4861 -0.0650  0.2122
14014TIP3    H163533   5.790   6.887  12.821 -0.8286 -0.4185 -0.1971
14014TIP3    H263534   5.843   6.807  12.704  0.1185 -0.1689  0.0556
14015TIP3   OH263535   3.584   0.852   0.813  0.2528 -0.7553  0.2126
14015TIP3    H163536   3.523   0.926   0.808  0.7666 -0.3417  0.0408
14015TIP3    H263537   3.528   0.777   0.834 -0.0649 -0.0348  2.2243
14016TIP3   OH263538   3.921   3.914   2.629 -0.5338  0.2918  0.6164
14016TIP3    H163539   3.852   3.934   2.566  1.0643  1.1104 -0.9887
14016TIP3    H263540   3.898   3.828   2.664 -0.5115 -1.1877 -2.6217
14017TIP3   OH263541   1.686   6.737  12.461  0.7139 -0.2648  0.2724
14017TIP3    H163542   1.706   6.803  12.394 -1.3177  0.0901 -0.0328
14017TIP3    H263543   1.630   6.782  12.524  0.0529 -1.4421  0.5598
14018TIP3   OH263544   0.481   5.519  16.218 -0.2213 -0.4217  0.8336
14018TIP3    H163545   0.558   5.516  16.162 -1.1701 -1.3050 -0.4821
14018TIP3    H263546   0.503   5.583  16.286  1.8104 -0.9546  0.7466
14019TIP3   OH263547   2.345   5.796   0.364  0.9881  0.1191 -0.0440
14019TIP3    H163548   2.410   5.798   0.435 -0.8196 -0.5110  1.7315
14019TIP3    H263549   2.267   5.836   0.402  0.2344  0.6468 -2.0326
14020TIP3   OH263550   1.132   3.743  14.290 -0.1243  0.3832 -0.3299
14020TIP3    H163551   1.094   3.809  14.233 -1.2791  0.4380  0.4591
14020TIP3    H263552   1.142   3.665  14.235 -2.3408  0.0632 -0.3500
14021TIP3   OH263553   2.491   2.712   2.988 -0.6123 -0.7850  0.0667
14021TIP3    H163554   2.480   2.680   3.078 -1.8157 -3.1903 -0.8505
14021TIP3    H263555   2.547   2.647   2.946  0.7443  0.8217 -0.7279
14022TIP3   OH263556   3.203   1.787   3.427  0.0982 -0.0569  0.0457
14022TIP3    H163557   3.227   1.861   3.483 -2.3392  1.3185 -0.5890
14022TIP3    H263558   3.211   1.821   3.338  0.2480 -1.0187 -0.3179
14023TIP3   OH263559   0.976   0.887   5.885 -0.1190 -0.1067 -0.0989
14023TIP3    H163560   0.985   0.931   5.801 -0.7505  1.0551  0.4165
14023TIP3    H263561   0.923   0.809   5.867  1.4442 -0.9967 -1.1129
14024TIP3   OH263562   3.036   4.062  12.785 -0.5916 -0.5346 -0.4171
14024TIP3    H163563   3.120   4.073  12.742 -0.9622 -1.0656 -1.3155
14024TIP3    H263564   2.997   3.986  12.741 -1.9718  0.3238 -0.7431
14025TIP3   OH263565   1.647   3.933   3.287 -0.2099 -0.3384 -0.2490
14025TIP3    H163566   1.617   4.022   3.303  0.8896  0.0811 -0.4399
14025TIP3    H263567   1.740   3.942   3.269  0.1907 -1.6630  0.9633
14026TIP3   OH263568   3.780   3.157  11.581 -0.4442 -0.1377 -0.0013
14026TIP3    H163569   3.829   3.078  11.558  3.4076  2.4749 -2.0450
14026TIP3    H263570   3.826   3.192  11.657 -1.8693  0.3652  0.6622
14027TIP3   OH263571   5.162   6.160   5.208  0.5568  0.1535  0.7990
14027TIP3    H163572   5.153   6.128   5.118  2.7440 -0.8767  0.8843
14027TIP3    H263573   5.175   6.254   5.199  0.4816  0.0949  0.0523
14028TIP3   OH263574   2.500   6.341  14.320  0.1193  0.8959  0.3850
14028TIP3    H163575   2.440   6.389  14.376 -0.5855  0.1628  0.2816
14028TIP3    H263576   2.556   6.292  14.380 -0.6101  0.1405  0.4653
14029TIP3   OH263577   3.311   4.702  11.365 -0.5417 -0.2240  0.1308
14029TIP3    H163578   3.280   4.691  11.455  0.2455  0.5153  0.5104
14029TIP3    H263579   3.394   4.653  11.363 -0.7570 -0.5752 -0.3116
14030TIP3   OH263580   1.193   5.401  12.281  0.7806  0.2748 -0.4814
14030TIP3    H163581   1.255   5.413  12.209  2.0476 -0.8430  0.3778
14030TIP3    H263582   1.132   5.336  12.249  1.5650 -0.5004 -0.4339
14031TIP3   OH263583   6.242   3.889   1.064  0.6978 -0.2754  0.6652
14031TIP3    H163584   6.269   3.956   1.127  0.5509  0.3209  0.1140
14031TIP3    H263585   6.305   3.818   1.076  1.0556  0.0961  1.0406
14032TIP3   OH263586   6.119   6.402  15.720  0.5851 -0.5829  0.1369
14032TIP3    H163587   6.144   6.363  15.636  0.8780 -1.8100  0.7666
14032TIP3    H263588   6.071   6.332  15.765 -0.2962  0.3399  0.6626
14033TIP3   OH263589   1.007   0.978   4.493 -0.1057  0.0541  0.4757
14033TIP3    H163590   0.920   0.971   4.532 -0.1267 -1.0986  0.2642
14033TIP3    H263591   1.011   1.067   4.458 -1.5153 -0.1290 -0.2180
14034TIP3   OH263592   5.558   3.825   2.432  0.7245  0.0776 -0.1117
14034TIP3    H163593   5.549   3.788   2.520 -0.6682  0.3362 -0.1127
14034TIP3    H263594   5.564   3.749   2.375  0.5124 -0.1119  0.1155
14035TIP3   OH263595   5.263   3.655  13.681 -0.0402  0.1592 -0.4645
14035TIP3    H163596   5.332   3.588  13.681 -0.9199 -0.7798 -0.6157
14035TIP3    H263597   5.187   3.611  13.642 -0.6344  1.2700 -0.6086
14036TIP3   OH263598   1.360   2.615   1.694 -0.3511 -0.4140 -0.0615
14036TIP3    H163599   1.429   2.680   1.704 -0.3283 -0.7626  3.1733
14036TIP3    H263600   1.282   2.657   1.729 -0.6743 -1.5737  0.6891
14037TIP3   OH263601   6.457   0.158   4.130 -0.6515  0.2613  0.3373
14037TIP3    H163602   6.500   0.081   4.092  0.4606  0.6771  0.6984
14037TIP3    H263603   6.450   0.138   4.223 -0.6554  0.4569  0.3800
14038TIP3   OH263604   4.322   6.567   1.702  0.0109 -0.1841 -0.2815
14038TIP3    H163605   4.404   6.565   1.750  0.0532 -0.3863 -0.3602
14038TIP3    H263606   4.283   6.652   1.724 -0.2044 -0.4836  0.4927
14039TIP3   OH263607   0.296   1.171   3.809 -0.1497  0.2324 -0.4874
14039TIP3    H163608   0.362   1.200   3.745 -0.1613  2.9580  0.5941
14039TIP3    H263609   0.250   1.100   3.764  1.7550  0.0270 -2.3193
14040TIP3   OH263610   0.318   1.639  16.543 -0.3319  0.1634  0.1489
14040TIP3    H163611   0.252   1.575  16.514 -0.0098 -0.1833  0.1743
14040TIP3    H263612   0.319   1.705  16.474 -1.2663  0.5827  0.5286
14041TIP3   OH263613   2.147   1.315  16.557 -0.3644  0.3655  0.3168
14041TIP3    H163614   2.206   1.388  16.571 -1.2775  1.0755  0.5763
14041TIP3    H263615   2.143   1.304  16.462  1.1729 -0.5439  0.3283
14042TIP3   OH263616   1.070   1.346  16.843  0.7672  0.0190 -0.3951
14042TIP3    H163617   1.126   1.377  16.914  0.3742 -1.7921  0.7787
14042TIP3    H263618   1.107   1.261  16.818 -1.5798 -1.4495  0.7087
14043TIP3   OH263619   4.761   5.872   5.038  0.1451 -0.3257  0.2572
14043TIP3    H163620   4.765   5.800   4.975  1.1084  0.7397 -0.9396
14043TIP3    H263621   4.667   5.888   5.049 -0.0735 -1.4604  0.2083
14044TIP3   OH263622   0.543   2.024   2.404  0.1435 -0.3000 -0.3178
14044TIP3    H163623   0.484   2.013   2.478  1.0507 -1.5422  0.2572
14044TIP3    H263624   0.531   2.115   2.376 -1.3900 -0.2915  0.3118
14045TIP3   OH263625   5.622   0.601   1.448  0.0517 -0.1898  1.1231
14045TIP3    H163626   5.672   0.660   1.392  3.7997 -3.7600  0.1553
14045TIP3    H263627   5.536   0.596   1.408  0.8723  1.5575 -1.0459
14046TIP3   OH263628   3.553   2.819  12.684 -0.0090  0.2984  0.0723
14046TIP3    H163629   3.484   2.803  12.619 -0.2241 -0.4796  0.4759
14046TIP3    H263630   3.632   2.835  12.632 -0.3064  0.2898 -0.3837
14047TIP3   OH263631   2.691   4.487  15.001 -0.2927  1.5263  0.1482
14047TIP3    H163632   2.602   4.479  14.968 -0.5844 -0.6577  1.2438
14047TIP3    H263633   2.687   4.556  15.067 -1.2314  1.3202  0.3109
14048TIP3   OH263634   6.368   3.995  15.531 -0.3678 -0.0904  0.2052
14048TIP3    H163635   6.356   4.037  15.445 -1.5225 -1.2273 -0.2230
14048TIP3    H263636   6.342   4.062  15.594 -1.1748  0.1994 -0.4166
14049TIP3   OH263637   2.196   6.626   2.846  0.4460  0.5337 -0.2722
14049TIP3    H163638   2.167   6.595   2.931  0.5402  1.9116  0.2938
14049TIP3    H263639   2.244   6.552   2.808 -1.5253 -0.8769 -0.1222
14050TIP3   OH263640   6.420   0.540   6.185  0.2745 -0.7240 -0.0577
14050TIP3    H163641   6.419   0.634   6.169  0.4990 -0.1524  2.7875
14050TIP3    H263642   6.512   0.516   6.187  0.4613 -0.1365  3.0920
14051TIP3   OH263643   5.068   3.164   0.529 -0.1850 -0.8313 -0.0358
14051TIP3    H163644   4.993   3.217   0.554  0.4053  0.6370 -1.2182
14051TIP3    H263645   5.124   3.162   0.606 -0.1431  0.4386 -0.0212
14052TIP3   OH263646   2.180   1.755   6.442 -0.6231 -0.8111 -0.4074
14052TIP3    H163647   2.194   1.831   6.386  0.4661  1.1962  2.3342
14052TIP3    H263648   2.267   1.714   6.449 -0.5205 -0.4734  0.4903
14053TIP3   OH263649   4.422   5.355  15.402  0.4201  0.2417 -0.5031
14053TIP3    H163650   4.425   5.450  15.388 -0.8144  0.3197 -0.3413
14053TIP3    H263651   4.329   5.335  15.408  0.6933 -0.7497  1.0187
14054TIP3   OH263652   6.083   3.121  15.822  0.6101  0.2524  0.0455
14054TIP3    H163653   6.079   3.205  15.775 -0.0774 -0.5340 -1.3765
14054TIP3    H263654   6.103   3.056  15.754  0.4025 -0.8359  0.9908
14055TIP3   OH263655   0.612   0.122   1.739 -0.0951 -0.4149 -0.3176
14055TIP3    H163656   0.629   0.193   1.801 -1.1066 -0.5784  0.1666
14055TIP3    H263657   0.524   0.091   1.761  0.7007 -2.5053  0.1688
14056TIP3   OH263658   5.057   3.575  12.880 -0.2320 -0.6795  0.4903
14056TIP3    H163659   5.110   3.497  12.860 -0.2560 -1.0403  1.7320
14056TIP3    H263660   5.105   3.618  12.951 -0.6559 -0.0128  0.3713
14057TIP3   OH263661   0.396   2.721  15.375 -0.1308  0.0991 -0.2470
14057TIP3    H163662   0.358   2.699  15.460 -0.9615 -0.5788 -0.7705
14057TIP3    H263663   0.347   2.667  15.313  0.7756  0.2411 -1.1044
14058TIP3   OH263664   4.535   3.361  15.760 -0.4644 -0.0952 -0.5913
14058TIP3    H163665   4.562   3.340  15.850 -0.7287 -1.2140 -0.7546
14058TIP3    H263666   4.462   3.302  15.743 -0.2816 -0.0373 -1.6167
14059TIP3   OH263667   6.175   4.083   4.560 -0.3973 -0.7647  0.5218
14059TIP3    H163668   6.142   4.001   4.522  1.2045 -1.5000  0.6526
14059TIP3    H263669   6.230   4.120   4.492  0.5530 -0.8630  1.2179
14060TIP3   OH263670   2.284   6.229  12.198  0.0387  0.2250 -0.0137
14060TIP3    H163671   2.190   6.244  12.212 -0.1737  0.3597 -1.4026
14060TIP3    H263672   2.287   6.171  12.121  1.0569 -1.3331  1.1576
14061TIP3   OH263673   1.203   0.842   3.378  0.1823  0.2815 -0.0928
14061TIP3    H163674   1.122   0.850   3.327 -0.2836  1.0961  0.7609
14061TIP3    H263675   1.185   0.885   3.461  1.0193 -0.8151  0.6948
14062TIP3   OH263676   6.753   4.929   2.121 -0.3456  0.6226  0.0587
14062TIP3    H163677   6.767   4.993   2.191  0.5957 -1.4134  1.8870
14062TIP3    H263678   6.830   4.938   2.065 -0.6859  1.6916 -0.2619
14063TIP3   OH263679   4.952   5.727   3.440  0.0227  0.6778 -0.0189
14063TIP3    H163680   4.856   5.725   3.441  0.0034 -1.5395 -0.8468
14063TIP3    H263681   4.973   5.813   3.403 -1.5248  2.4911  2.9356
14064TIP3   OH263682   5.048   0.223   1.344  0.4768  0.6245 -0.6534
14064TIP3    H163683   5.076   0.185   1.427  1.2765  2.1656 -0.1673
14064TIP3    H263684   5.048   0.150   1.282 -0.7934 -0.6865  0.8229
14065TIP3   OH263685   4.241   1.144  16.584 -0.1369  0.1515 -0.0163
14065TIP3    H163686   4.166   1.190  16.622 -0.7276  0.1846 -1.1868
14065TIP3    H263687   4.204   1.094  16.512  0.5823 -1.7578  0.8827
14066TIP3   OH263688   0.986   0.191   0.539  0.1061 -0.1757 -0.1177
14066TIP3    H163689   1.049   0.251   0.579  0.2214 -0.9272  0.8661
14066TIP3    H263690   0.902   0.238   0.544  0.0247 -0.4442  1.4944
14067TIP3   OH263691   4.584   6.157  10.413 -0.1106  0.5918 -0.4238
14067TIP3    H163692   4.495   6.129  10.430 -0.0999 -0.1688 -1.5187
14067TIP3    H263693   4.583   6.187  10.322  0.8304  0.1764 -0.5879
14068TIP3   OH263694   3.568   3.842   4.729 -0.0067  0.2726 -0.4411
14068TIP3    H163695   3.574   3.757   4.774 -0.4040  0.0699 -0.7600
14068TIP3    H263696   3.631   3.835   4.657 -0.4087  0.0459 -0.7781
14069TIP3   OH263697   3.753   5.702   1.849  0.4885  0.4038 -0.1379
14069TIP3    H163698   3.786   5.653   1.774 -0.3402  1.7101 -1.3995
14069TIP3    H263699   3.774   5.646   1.924 -0.8188 -2.1213 -1.5044
14070TIP3   OH263700   4.113   2.257   3.200 -0.0715 -1.1013  0.3707
14070TIP3    H163701   4.191   2.228   3.153 -0.4830 -0.2704 -0.8822
14070TIP3    H263702   4.110   2.201   3.278  2.3460 -0.4897  1.0154
14071TIP3   OH263703   5.413   3.424   0.401  0.6247  0.3995 -0.1336
14071TIP3    H163704   5.425   3.515   0.374 -0.6218  0.3884 -0.8105
14071TIP3    H263705   5.330   3.398   0.361  0.3467 -0.6554  1.0783
14072TIP3   OH263706   1.366   4.995  13.623  0.2721 -1.0682  0.4484
14072TIP3    H163707   1.421   4.917  13.626 -0.8795 -1.9253 -0.0035
14072TIP3    H263708   1.295   4.972  13.562 -0.5575  0.0128  0.9686
14073TIP3   OH263709   5.565   6.279   3.574 -0.3148  1.0318  0.1109
14073TIP3    H163710   5.497   6.346   3.566 -0.4705  0.8684  0.0461
14073TIP3    H263711   5.534   6.221   3.644 -1.2005 -0.1422 -1.2010
14074TIP3   OH263712   3.759   1.944   3.893  0.1396 -0.0301 -0.4225
14074TIP3    H163713   3.761   2.034   3.925  0.7990  0.4513 -1.7324
14074TIP3    H263714   3.759   1.953   3.798  0.7103 -1.4259 -0.5755
14075TIP3   OH263715   5.246   0.897   4.077 -0.3541 -0.0916 -0.4564
14075TIP3    H163716   5.237   0.935   4.164 -0.6332  0.2767 -0.6409
14075TIP3    H263717   5.195   0.955   4.020 -0.3666 -0.4578 -0.8272
14076TIP3   OH263718   4.975   4.594   0.197 -0.3003  0.2669 -0.5949
14076TIP3    H163719   4.984   4.537   0.273 -3.3122 -0.1984 -0.4326
14076TIP3    H263720   5.027   4.671   0.218  0.1669 -0.4984  1.2647
14077TIP3   OH263721   5.144   3.807  13.939  0.2976 -0.3057  0.0827
14077TIP3    H163722   5.097   3.726  13.921 -0.3132 -0.1588  0.9903
14077TIP3    H263723   5.156   3.808  14.034  1.8544 -0.1780 -0.0875
14078TIP3   OH263724   3.363   0.116   3.625 -0.5552  0.6895 -0.3447
14078TIP3    H163725   3.325   0.139   3.710  0.6657  1.5007  0.0132
14078TIP3    H263726   3.299   0.057   3.585 -0.0594 -1.7575  2.1767
14079TIP3   OH263727   2.166   3.409   0.540 -0.2954  0.2519 -0.0386
14079TIP3    H163728   2.146   3.317   0.558 -1.8773  0.3273 -1.2611
14079TIP3    H263729   2.101   3.436   0.476  2.3822  1.1614 -2.6259
14080TIP3   OH263730   6.011   5.252   1.876 -0.5291 -0.0222  0.0822
14080TIP3    H163731   6.029   5.343   1.900  0.2347 -0.3397  0.7515
14080TIP3    H263732   6.046   5.244   1.787 -0.7403  0.3782 -0.0407
14081TIP3   OH263733   6.598   4.734  15.213  0.1977 -0.4185  0.4341
14081TIP3    H163734   6.508   4.764  15.203  0.5459 -0.1764 -3.2628
14081TIP3    H263735   6.591   4.638  15.213 -0.0678 -0.4006  0.2082
14082TIP3   OH263736   2.400   2.117   4.669  0.0779  0.3118 -0.0926
14082TIP3    H163737   2.421   2.043   4.612 -0.2044  1.5132 -1.8131
14082TIP3    H263738   2.338   2.170   4.619  1.1857  2.3556  0.5794
14083TIP3   OH263739   3.051   6.239   4.059 -0.0642 -0.3069 -0.0753
14083TIP3    H163740   3.124   6.296   4.083  0.0154 -0.6034  0.3959
14083TIP3    H263741   3.092   6.165   4.014 -0.3628  1.3471 -3.4235
14084TIP3   OH263742   0.987   3.565  10.247 -0.4331  0.0070 -0.0447
14084TIP3    H163743   0.929   3.637  10.270 -0.1069  0.4643 -0.6159
14084TIP3    H263744   1.071   3.607  10.228  0.2969 -0.7143  1.4783
14085TIP3   OH263745   4.594   0.600  10.609 -0.1841  0.3713  0.1599
14085TIP3    H163746   4.560   0.611  10.520 -3.3749  1.7363  1.4069
14085TIP3    H263747   4.573   0.509  10.632 -0.7241  0.4706  0.0542
14086TIP3   OH263748   0.957   4.940   3.302  0.8019  0.1456  0.0155
14086TIP3    H163749   1.044   4.902   3.291  1.7238  2.4525 -1.4789
14086TIP3    H263750   0.899   4.884   3.251  1.8516 -0.0975 -0.9583
14087TIP3   OH263751   1.458   4.626  13.009  0.0357  0.6803 -0.1664
14087TIP3    H163752   1.419   4.706  13.045 -1.1075 -0.3939  1.0533
14087TIP3    H263753   1.552   4.635  13.026  0.0679  2.1994 -0.9596
14088TIP3   OH263754   2.454   1.169  13.885  0.6026  0.5558  0.2018
14088TIP3    H163755   2.548   1.183  13.880  0.8525 -0.9642  0.3896
14088TIP3    H263756   2.442   1.109  13.958 -0.0098 -3.1459 -2.6574
14089TIP3   OH263757   3.170   4.437  14.561 -0.2631  0.2693  0.1696
14089TIP3    H163758   3.177   4.414  14.469 -0.5884  1.2408 -0.1110
14089TIP3    H263759   3.213   4.522  14.568 -1.7758  1.0315  0.5610
14090TIP3   OH263760   0.729   4.139  12.187  0.0481  0.0279  0.0451
14090TIP3    H163761   0.644   4.099  12.171  1.2614 -2.4556 -0.7030
14090TIP3    H263762   0.737   4.139  12.283 -1.5971  2.3214  0.2823
14091TIP3   OH263763   6.388   0.341  14.022  0.3685 -0.2261 -0.7733
14091TIP3    H163764   6.438   0.361  13.943  0.4759  0.1445 -0.6150
14091TIP3    H263765   6.369   0.247  14.015 -0.3341 -0.0333 -1.6363
14092TIP3   OH263766   1.458   1.535   0.676  0.0984  0.4824  0.0288
14092TIP3    H163767   1.406   1.565   0.602  1.3383 -0.4679 -1.2628
14092TIP3    H263768   1.546   1.566   0.659  0.6596 -0.7915  0.4752
14093TIP3   OH263769   2.098   6.093  13.771  0.3202 -0.2597  0.0664
14093TIP3    H163770   2.079   6.162  13.708 -0.0553 -0.5295 -0.1185
14093TIP3    H263771   2.148   6.028  13.721 -1.0380 -1.0640 -0.2987
14094TIP3   OH263772   4.449   4.640  14.438  0.2549 -0.3314 -0.0240
14094TIP3    H163773   4.427   4.550  14.417 -1.8092  0.5771 -2.1522
14094TIP3    H263774   4.368   4.677  14.473  1.5752  0.2782  2.6742
14095TIP3   OH263775   2.094   0.325   1.462  0.0754  0.4939  0.3363
14095TIP3    H163776   2.122   0.415   1.444 -1.5163  1.6446  3.0861
14095TIP3    H263777   2.001   0.332   1.484 -0.2459 -1.9506  0.0564
14096TIP3   OH263778   4.729   3.611  12.228  0.0004 -0.5117 -1.2930
14096TIP3    H163779   4.790   3.684  12.239  1.1989 -1.2838 -2.4447
14096TIP3    H263780   4.649   3.651  12.193  0.3383  0.3412 -1.1200
14097TIP3   OH263781   3.394   0.690   5.606  0.1183 -0.3170  0.2823
14097TIP3    H163782   3.488   0.674   5.597  0.3198 -1.0485  2.9103
14097TIP3    H263783   3.354   0.603   5.601 -0.3182 -0.1167  0.2426
14098TIP3   OH263784   0.697   4.347  15.349 -0.1141 -0.1693  0.1623
14098TIP3    H163785   0.655   4.261  15.344  0.5531 -0.5121  0.3319
14098TIP3    H263786   0.745   4.356  15.267 -0.0173 -0.0433  0.2321
14099TIP3   OH263787   1.187   4.596   6.482 -0.3789 -0.5358 -0.8537
14099TIP3    H163788   1.154   4.597   6.392  2.9263  2.6157 -2.3070
14099TIP3    H263789   1.124   4.647   6.532 -0.7365  0.3251 -2.1399
14100TIP3   OH263790   0.373   3.052  11.980 -0.2051  0.3639 -0.0830
14100TIP3    H163791   0.410   3.127  12.026  0.1153  0.5640 -0.6663
14100TIP3    H263792   0.321   3.007  12.047  0.6664  0.3590  0.6072
14101TIP3   OH263793   4.386   3.773   0.282  0.1464 -0.2204 -0.0687
14101TIP3    H163794   4.291   3.781   0.274  0.0173 -0.8799  0.6374
14101TIP3    H263795   4.401   3.746   0.373  1.0160 -0.0666 -0.1504
14102TIP3   OH263796   6.198   3.977   0.484  0.2936 -0.3026 -0.0052
14102TIP3    H163797   6.254   4.017   0.418 -0.4156 -0.2653 -0.6015
14102TIP3    H263798   6.114   4.023   0.475  0.4537  0.3521  1.5570
14103TIP3   OH263799   1.882   1.743  11.732  0.0244 -0.2504  0.1213
14103TIP3    H163800   1.841   1.804  11.793  1.1079  1.0977 -0.4565
14103TIP3    H263801   1.890   1.792  11.650 -0.8062 -1.8101 -0.9341
14104TIP3   OH263802   4.189   2.006  12.483  0.0129  0.0146  0.6730
14104TIP3    H163803   4.131   1.929  12.483  0.7990 -0.5806  0.3934
14104TIP3    H263804   4.138   2.074  12.438 -1.5033  0.2959  2.6593
14105TIP3   OH263805   5.975   4.130   3.887  0.5657  0.1619 -0.3306
14105TIP3    H163806   5.993   4.078   3.966 -1.1198 -0.6799 -0.4463
14105TIP3    H263807   6.036   4.204   3.892  0.3664  0.2385  1.8568
14106TIP3   OH263808   3.446   6.632  14.294 -0.1173  0.0829 -0.3705
14106TIP3    H163809   3.463   6.543  14.263  0.6889  0.5492 -1.3233
14106TIP3    H263810   3.360   6.654  14.257 -0.7131 -0.5823  0.5627
14107TIP3   OH263811   0.083   5.979   4.637  0.0306  0.4387  0.0335
14107TIP3    H163812   0.016   5.924   4.677  0.4726  0.0615  0.2533
14107TIP3    H263813   0.104   5.936   4.555 -1.0030  1.3050 -0.7240
14108TIP3   OH263814   3.855   4.712  14.230  0.2190 -0.2615 -0.1070
14108TIP3    H163815   3.894   4.772  14.293 -0.5013  0.3207 -0.1950
14108TIP3    H263816   3.767   4.748  14.214  0.4390 -0.3077 -1.5551
14109TIP3   OH263817   0.422   4.789  13.958  0.4158 -0.2034  0.3629
14109TIP3    H163818   0.395   4.736  14.033  0.4297  1.5572  1.6863
14109TIP3    H263819   0.347   4.845  13.940  0.8147  0.1526 -0.2211
14110TIP3   OH263820   4.255   1.581   4.289 -0.2949 -0.1582  0.1097
14110TIP3    H163821   4.177   1.637   4.294  0.8456  1.5943 -0.6069
14110TIP3    H263822   4.223   1.493   4.309 -2.3219  0.6111  0.5026
14111TIP3   OH263823   3.770   1.906  11.104  0.1185 -0.7772 -0.4948
14111TIP3    H163824   3.726   1.958  11.036  1.9242  0.1275 -1.0295
14111TIP3    H263825   3.859   1.941  11.107  0.3715 -1.4776  1.6646
14112TIP3   OH263826   2.005   2.251  10.383 -0.3089  0.3126  0.4083
14112TIP3    H163827   2.027   2.209  10.466  0.5194 -2.5514 -1.1303
14112TIP3    H263828   1.912   2.233  10.371 -0.0319 -0.8517 -0.0839
14113TIP3   OH263829   1.546   3.328  13.103  0.2974  0.1056 -0.2869
14113TIP3    H163830   1.480   3.398  13.101  0.4877  0.2800 -0.6031
14113TIP3    H263831   1.566   3.317  13.196 -1.2811 -1.0143 -0.0428
14114TIP3   OH263832   3.589   1.475  16.065 -0.1323 -0.2158 -0.0246
14114TIP3    H163833   3.551   1.517  16.142  0.2306  0.6666 -0.3190
14114TIP3    H263834   3.547   1.519  15.991  0.4943 -0.1408 -0.3388
14115TIP3   OH263835   2.535   6.780  12.202 -0.3393  0.0589  0.0159
14115TIP3    H163836   2.573   6.754  12.119 -0.7350  0.5363 -0.3179
14115TIP3    H263837   2.609   6.786  12.262 -0.2211 -1.8681  0.1337
14116TIP3   OH263838   4.698   5.438  14.069 -0.0800 -0.1134 -0.1810
14116TIP3    H163839   4.790   5.438  14.093 -0.1798 -2.9394  0.4896
14116TIP3    H263840   4.654   5.392  14.141 -1.7553 -0.3564 -1.3035
14117TIP3   OH263841   5.859   1.209   0.912  0.2986  0.7613  0.2857
14117TIP3    H163842   5.930   1.159   0.873 -0.1377  0.5318 -0.2298
14117TIP3    H263843   5.810   1.144   0.963  0.0905  0.7881  0.1199
14118TIP3   OH263844   0.939   2.920   1.733 -0.0081  0.1279  0.0862
14118TIP3    H163845   0.881   2.986   1.770 -0.8830 -0.6905  0.2103
14118TIP3    H263846   0.882   2.866   1.678  0.8332 -0.0833 -0.5986
14119TIP3   OH263847   5.763   1.045  15.986 -0.8218 -0.5944  0.5364
14119TIP3    H163848   5.804   1.027  16.071 -0.1680 -0.6953  0.2068
14119TIP3    H263849   5.727   1.133  15.995 -1.3732 -0.8723  1.1503
14120TIP3   OH263850   3.230   3.683   3.332 -0.4839  0.6235 -0.5669
14120TIP3    H163851   3.257   3.607   3.384 -1.6030 -0.7327 -1.8850
14120TIP3    H263852   3.198   3.746   3.397 -1.3677 -0.8122  0.4448
14121TIP3   OH263853   5.651   6.003  11.341  0.6078  0.2467  0.3307
14121TIP3    H163854   5.592   5.949  11.393  0.1452  1.0839  0.6854
14121TIP3    H263855   5.606   6.086  11.330  0.9957  0.3319 -0.8327
14122TIP3   OH263856   5.481   2.506  16.379  0.1693 -0.4821  0.5487
14122TIP3    H163857   5.455   2.455  16.455  2.6665  1.2039  2.7214
14122TIP3    H263858   5.565   2.546  16.404  0.8303  0.6504 -2.8833
14123TIP3   OH263859   4.976   5.358   0.535 -0.0989  0.1430 -0.2606
14123TIP3    H163860   5.069   5.370   0.519 -0.2283  0.1772 -1.0423
14123TIP3    H263861   4.959   5.407   0.615  0.0301  2.4948 -1.5820
14124TIP3   OH263862   2.617   1.757  17.082  0.2791  0.5509  0.6094
14124TIP3    H163863   2.612   1.688  17.148  1.4399  1.5506  1.7806
14124TIP3    H263864   2.701   1.741  17.037  1.1406  1.8616  1.6891
14125TIP3   OH263865   1.932   2.055  15.917  0.5016 -0.5858 -0.1819
14125TIP3    H163866   1.972   2.122  15.972  0.3610 -0.7306  0.0988
14125TIP3    H263867   1.864   2.101  15.868  1.5482 -0.1536 -1.2915
14126TIP3   OH263868   0.489   4.158  15.361 -0.1189  0.1160  0.2402
14126TIP3    H163869   0.472   4.069  15.331  1.1635  0.3615 -1.4091
14126TIP3    H263870   0.430   4.171  15.434 -0.5302 -1.9873  0.3378
14127TIP3   OH263871   4.614   5.597   1.281  0.6019  0.2749 -0.4726
14127TIP3    H163872   4.655   5.629   1.200 -0.4855 -0.9015 -1.5243
14127TIP3    H263873   4.543   5.541   1.251 -0.4536  0.6016  1.3191
14128TIP3   OH263874   2.688   5.022   4.164 -0.1974  0.6051  0.2942
14128TIP3    H163875   2.603   5.065   4.152 -1.2157 -1.5449 -0.8926
14128TIP3    H263876   2.727   5.067   4.239 -2.7914  1.1109  1.4734
14129TIP3   OH263877   5.191   1.656   3.452  0.4550 -0.2158 -0.1475
14129TIP3    H163878   5.225   1.683   3.366 -1.0558 -0.4147 -0.8568
14129TIP3    H263879   5.130   1.726   3.476 -2.5078 -2.1914 -1.3823
14130TIP3   OH263880   5.427   1.169   2.013  0.3986  0.3260 -0.1353
14130TIP3    H163881   5.509   1.166   2.063  1.6915  0.4467 -2.1532
14130TIP3    H263882   5.411   1.262   1.999 -0.1912  0.3092  0.3745
14131TIP3   OH263883   6.407   4.425   0.360 -0.2072 -0.0687 -0.0812
14131TIP3    H163884   6.442   4.342   0.390  0.0268 -0.2929 -0.9610
14131TIP3    H263885   6.475   4.462   0.304 -0.4832  0.5077 -0.0486
14132TIP3   OH263886   2.281   0.648   6.235 -0.2472  0.9799  0.4408
14132TIP3    H163887   2.299   0.603   6.152  1.2606  1.7429  0.3163
14132TIP3    H263888   2.334   0.601   6.300 -1.4571  0.3568  0.9907
14133TIP3   OH263889   3.310   5.773  16.059 -0.1122 -0.7574  0.1272
14133TIP3    H163890   3.398   5.757  16.095 -0.1909 -1.1174  0.1658
14133TIP3    H263891   3.283   5.687  16.024  1.0115  0.0400 -3.1254
14134TIP3   OH263892   1.507   0.701  14.225  0.2207  0.0240  0.3686
14134TIP3    H163893   1.431   0.651  14.195 -0.3071  0.2323  1.3067
14134TIP3    H263894   1.512   0.683  14.319  0.8435  0.6608  0.4684
14135TIP3   OH263895   0.839   2.785   0.159  0.1575 -0.2514  0.3902
14135TIP3    H163896   0.920   2.835   0.170  0.5037 -1.0335  1.5893
14135TIP3    H263897   0.806   2.774   0.249 -0.9061 -0.5457 -0.0237
14136TIP3   OH263898   1.039   3.993  11.154  0.1720  0.2925 -0.3342
14136TIP3    H163899   0.981   3.917  11.160  0.2943 -0.1394 -3.1046
14136TIP3    H263900   1.003   4.044  11.082  2.1654  0.9639 -0.9216
14137TIP3   OH263901   1.945   4.104  11.590  0.7766 -0.1475  0.2287
14137TIP3    H163902   1.981   4.162  11.656  1.8290 -2.0891  1.4762
14137TIP3    H263903   1.854   4.091  11.617  1.1712 -0.8589  1.3182
14138TIP3   OH263904   1.228   6.721  11.747  0.5245  0.4298 -0.0490
14138TIP3    H163905   1.168   6.743  11.818  0.1563 -0.2094 -0.1563
14138TIP3    H263906   1.249   6.629  11.762  0.4606  0.2986 -0.7639
14139TIP3   OH263907   5.942   0.740  13.551  0.0955 -0.3354 -0.3524
14139TIP3    H163908   6.008   0.768  13.488 -0.5336 -1.0157 -1.3572
14139TIP3    H263909   5.860   0.774  13.516 -0.0569  0.9689  1.1643
14140TIP3   OH263910   0.928   4.335   2.147 -0.1434 -0.2951 -0.6102
14140TIP3    H163911   0.879   4.280   2.207  2.0158 -0.1406  1.4132
14140TIP3    H263912   0.979   4.274   2.094 -1.3312 -0.3795 -1.7248
14141TIP3   OH263913   4.649   1.704  11.228 -0.0980  0.0602  0.4147
14141TIP3    H163914   4.680   1.680  11.141  0.0353 -0.2664  0.5480
14141TIP3    H263915   4.556   1.721  11.217 -0.5354 -2.0233  0.5924
14142TIP3   OH263916   5.731   4.919   4.896  0.1372 -0.1916 -0.6968
14142TIP3    H163917   5.668   4.855   4.862 -1.3935  0.7735  0.2199
14142TIP3    H263918   5.704   5.002   4.858  0.4223  0.3553  0.2700
14143TIP3   OH263919   0.670   6.817   0.439  0.2617 -0.4138  0.4422
14143TIP3    H163920   0.644   6.782   0.524 -0.5108  0.1523  0.4576
14143TIP3    H263921   0.674   6.911   0.452 -1.3833 -0.1619 -0.4955
14144TIP3   OH263922   4.849   1.615   4.877  0.3672  0.3569  0.1517
14144TIP3    H163923   4.882   1.703   4.895 -1.6947  0.8338  2.0814
14144TIP3    H263924   4.754   1.625   4.877  0.0405 -2.0480  1.3948
14145TIP3   OH263925   2.295   2.710   2.225 -0.1939  0.1774  0.4915
14145TIP3    H163926   2.320   2.627   2.265 -1.3302 -0.0181  0.8369
14145TIP3    H263927   2.344   2.776   2.274  0.2110 -0.2367  0.6521
14146TIP3   OH263928   4.145   2.578  11.547  0.3765  0.2272 -0.0343
14146TIP3    H163929   4.240   2.566  11.550  0.7581  2.6050 -0.2797
14146TIP3    H263930   4.111   2.496  11.513  2.1411 -1.4031  1.8844
14147TIP3   OH263931   1.762   0.123  12.764  0.1136  0.4341 -0.3139
14147TIP3    H163932   1.769   0.163  12.851 -1.1465 -1.3485  0.6817
14147TIP3    H263933   1.842   0.072  12.754  0.7921  1.5412 -0.7324
14148TIP3   OH263934   4.735   4.063   1.775  0.5531  0.7015  0.0527
14148TIP3    H163935   4.752   4.033   1.686 -0.3375 -2.1419  0.7495
14148TIP3    H263936   4.818   4.049   1.821  0.4400  0.2988  0.1337
14149TIP3   OH263937   5.955   0.232   1.423 -0.4411  0.2171  0.4770
14149TIP3    H163938   5.919   0.180   1.494  1.2713  1.0347  2.0180
14149TIP3    H263939   5.911   0.317   1.431 -0.9734  0.0046 -0.0963
14150TIP3   OH263940   3.486   3.335  16.703 -0.5080 -0.1266  0.7845
14150TIP3    H163941   3.445   3.417  16.675  0.1687  0.1628  0.6141
14150TIP3    H263942   3.569   3.332  16.656 -0.0137 -0.3535  1.6323
14151TIP3   OH263943   0.917   6.336  15.307 -0.0398 -0.5054  0.2449
14151TIP3    H163944   0.850   6.402  15.294  0.4426 -0.3394 -1.5929
14151TIP3    H263945   0.885   6.284  15.382 -1.5091  0.4028  0.2846
14152TIP3   OH263946   1.115   1.850   3.215 -0.4220  0.2504 -0.7523
14152TIP3    H163947   1.050   1.791   3.177 -0.6119  0.4648 -0.7578
14152TIP3    H263948   1.066   1.928   3.240 -0.1005  0.5825 -1.1373
14153TIP3   OH263949   5.276   2.741   3.077  0.2171 -0.0045  0.7201
14153TIP3    H163950   5.355   2.768   3.031  0.7649 -0.4431  1.3907
14153TIP3    H263951   5.206   2.750   3.012  0.7678  0.6535  0.2094
14154TIP3   OH263952   4.931   2.015   5.869  0.4292  0.3925 -0.2102
14154TIP3    H163953   4.964   1.953   5.804  0.0176 -2.0519  1.7362
14154TIP3    H263954   4.838   1.995   5.876  0.5121  0.4043  1.2594
14155TIP3   OH263955   6.272   3.082   6.536 -0.9606 -0.4324  0.4821
14155TIP3    H163956   6.217   3.149   6.577 -0.0561 -0.7415  2.2722
14155TIP3    H263957   6.270   3.008   6.597  0.4897 -0.8828  0.0237
14156TIP3   OH263958   4.018   4.164  16.567 -0.3113  0.9188 -0.2485
14156TIP3    H163959   3.979   4.098  16.510  1.3293  1.1558 -1.7363
14156TIP3    H263960   3.997   4.247  16.525 -0.6192  1.2287  0.4972
14157TIP3   OH263961   5.602   4.165  15.122 -0.0521 -0.0662 -0.2016
14157TIP3    H163962   5.631   4.140  15.209 -0.2289  0.4212 -0.0019
14157TIP3    H263963   5.518   4.210  15.136  1.3456  2.7752 -0.2934
14158TIP3   OH263964   0.010   2.673   1.495  0.0526 -0.2772 -0.4504
14158TIP3    H163965   0.050   2.600   1.542  1.0028  0.6526  0.2408
14158TIP3    H263966  -0.018   2.636   1.411  2.4865 -0.9750 -1.0293
14159TIP3   OH263967   3.819   1.292   1.288  0.2504 -0.0712  0.5863
14159TIP3    H163968   3.787   1.203   1.302 -0.7590  0.2235  0.3173
14159TIP3    H263969   3.911   1.282   1.265  0.1130 -1.0495  0.4245
14160TIP3   OH263970   3.280   4.025  16.490 -0.2731  0.1361  0.0036
14160TIP3    H163971   3.256   3.952  16.432 -0.8944 -1.0173  1.6577
14160TIP3    H263972   3.198   4.051  16.531 -0.0232  1.6649 -0.4090
14161TIP3   OH263973   3.782   3.283   5.890 -0.3775 -0.5514 -0.6374
14161TIP3    H163974   3.752   3.353   5.832 -1.3682 -0.8916 -0.5705
14161TIP3    H263975   3.804   3.327   5.972 -1.3568 -0.3362 -0.4705
14162TIP3   OH263976   1.949   1.260  16.058 -0.4199 -0.0056  0.0911
14162TIP3    H163977   1.928   1.348  16.090 -2.4626 -0.1388 -0.7282
14162TIP3    H263978   2.010   1.275  15.986 -0.1825  0.6936  0.4293
14163TIP3   OH263979   2.910   5.790  14.343  1.1348  0.1070  0.0557
14163TIP3    H163980   2.899   5.700  14.375  0.2754 -0.4011 -1.5986
14163TIP3    H263981   2.994   5.818  14.380  1.3551 -1.3252  0.6976
14164TIP3   OH263982   4.445   0.257  13.145 -0.0767  0.4997 -0.0260
14164TIP3    H163983   4.438   0.289  13.055  0.0941  0.0492 -0.2021
14164TIP3    H263984   4.359   0.274  13.183 -0.9347 -1.3651 -0.9642
14165TIP3   OH263985   6.298   6.089   0.198  0.2235  0.5091 -0.9748
14165TIP3    H163986   6.258   6.170   0.166 -2.9076 -0.7975 -0.7960
14165TIP3    H263987   6.392   6.100   0.182 -0.1283  3.8991 -1.4292
14166TIP3   OH263988   4.691   3.409  14.889  0.0822  0.7756 -0.6663
14166TIP3    H163989   4.747   3.343  14.848 -1.5724 -0.3340 -1.2715
14166TIP3    H263990   4.703   3.487  14.835  2.7181  1.3245  0.5480
14167TIP3   OH263991   4.073   1.646   3.270 -0.3350 -0.1754 -0.4400
14167TIP3    H163992   4.137   1.619   3.205  0.7823  3.5189 -1.0958
14167TIP3    H263993   4.120   1.641   3.354 -0.6221 -1.4776 -0.3318
14168TIP3   OH263994   3.154   5.093   2.638 -0.1340  0.1596  0.2507
14168TIP3    H163995   3.185   5.009   2.604  3.0669  0.9818  0.8301
14168TIP3    H263996   3.161   5.153   2.564  1.6043  0.7390  0.8129
14169TIP3   OH263997   3.841   0.083   0.092 -0.2558 -0.0005 -0.1421
14169TIP3    H163998   3.885   0.133   0.160 -1.5039  3.0274 -1.3709
14169TIP3    H263999   3.748   0.097   0.108 -0.7045 -2.0572 -0.5581
14170TIP3   OH264000   6.510   1.272  11.511  0.1599  0.4419 -0.6741
14170TIP3    H164001   6.553   1.202  11.561  0.3081  1.8631  1.2814
14170TIP3    H264002   6.460   1.225  11.443  1.9882 -1.4243 -0.8327
14171TIP3   OH264003   4.425   0.214   1.858 -0.3379 -0.7174  0.6744
14171TIP3    H164004   4.479   0.271   1.914 -0.7314 -0.3281  0.6614
14171TIP3    H264005   4.364   0.274   1.815 -1.0479 -1.2041  0.9920
14172TIP3   OH264006   2.740   1.510  10.318 -0.5109  0.1121 -0.0146
14172TIP3    H164007   2.701   1.571  10.256 -1.9409 -0.9056 -0.1654
14172TIP3    H264008   2.831   1.503  10.290 -0.8071  0.6790 -1.1845
14173TIP3   OH264009   5.486   1.062  15.124 -0.7389  0.1357  0.0699
14173TIP3    H164010   5.436   1.062  15.205  0.2929  0.7744  0.7228
14173TIP3    H264011   5.432   1.111  15.062 -0.6854  1.3145  0.9277
14174TIP3   OH264012   6.106   6.419  11.790 -0.0672 -0.1270 -0.0203
14174TIP3    H164013   6.046   6.344  11.789 -0.7071  0.3663  0.5544
14174TIP3    H264014   6.173   6.396  11.725 -0.3059 -1.1479  0.0702
14175TIP3   OH264015   5.364   4.281  15.779 -0.5773  0.0329 -0.0796
14175TIP3    H164016   5.285   4.332  15.760 -1.2242 -0.7743  0.3729
14175TIP3    H264017   5.335   4.190  15.773  0.3504 -0.2724  0.0012
14176TIP3   OH264018   6.557   5.524   1.242  0.5331 -0.0071  0.2368
14176TIP3    H164019   6.644   5.502   1.211 -0.0664 -0.7300 -0.9913
14176TIP3    H264020   6.508   5.547   1.163 -1.1055 -2.1559  0.5293
14177TIP3   OH264021   0.916   3.345  11.080  0.2131 -0.6767  0.8079
14177TIP3    H164022   0.851   3.348  11.010 -0.2793  0.1395  1.2774
14177TIP3    H264023   0.876   3.395  11.151  2.1782  1.6646  0.4127
14178TIP3   OH264024   6.572   2.491   5.110  0.5224 -0.5761 -0.0129
14178TIP3    H164025   6.556   2.436   5.188  1.9519 -0.7953  0.1646
14178TIP3    H264026   6.499   2.471   5.052 -0.7037 -0.2507  1.3460
14179TIP3   OH264027   4.371   6.807   5.875  0.7219  0.2216  0.2728
14179TIP3    H164028   4.372   6.867   5.949 -1.7648 -0.4183  0.9322
14179TIP3    H264029   4.426   6.733   5.904  2.5595  1.4433  0.0470
14180TIP3   OH264030   5.666   2.621  10.803  0.4603  0.0200  0.3667
14180TIP3    H164031   5.721   2.542  10.801  0.1360 -0.2037 -0.3374
14180TIP3    H264032   5.699   2.674  10.731 -0.1476 -0.0541  0.0278
14181TIP3   OH264033   3.495   5.488   6.320  0.0628 -0.2176 -0.3018
14181TIP3    H164034   3.518   5.493   6.227  0.8019  0.0532 -0.1135
14181TIP3    H264035   3.501   5.395   6.341  0.7915 -0.1812 -0.3179
14182TIP3   OH264036   1.160   3.215   5.693  0.2330  0.0834 -0.2970
14182TIP3    H164037   1.072   3.251   5.705 -0.1647 -0.7766 -0.5355
14182TIP3    H264038   1.204   3.229   5.777 -1.1050 -2.0820  0.8500
14183TIP3   OH264039   5.289   4.697   4.666  0.3427  0.3950 -0.6229
14183TIP3    H164040   5.316   4.756   4.595 -0.8352 -0.6876 -2.0083
14183TIP3    H264041   5.197   4.719   4.682  0.5449  0.5093  0.4918
14184TIP3   OH264042   4.952   1.694   1.793  0.1882 -0.0678 -0.7640
14184TIP3    H164043   5.011   1.706   1.718 -0.3576 -0.0944 -1.2061
14184TIP3    H264044   5.004   1.721   1.869  0.7498 -0.0414 -1.1524
14185TIP3   OH264045   4.359   2.106   0.886  0.4410  0.8669  0.2000
14185TIP3    H164046   4.296   2.157   0.935  0.0135 -0.1332  0.7330
14185TIP3    H264047   4.444   2.127   0.926  0.3283  1.4659  0.1269
14186TIP3   OH264048   5.399   2.462   1.408  0.0523  0.4829  0.2944
14186TIP3    H164049   5.383   2.446   1.501 -0.0931  1.7301  0.4995
14186TIP3    H264050   5.313   2.449   1.366 -0.2477  1.4496  0.5728
14187TIP3   OH264051   1.058   0.593   3.287 -0.2690 -0.0730  0.5984
14187TIP3    H164052   1.102   0.513   3.317  1.0921 -0.1696 -1.3805
14187TIP3    H264053   1.120   0.663   3.305 -1.6002  0.6570  2.6388
14188TIP3   OH264054   4.486   3.997  11.410 -0.0428  0.2568 -0.4547
14188TIP3    H164055   4.449   4.029  11.327  1.0038 -0.2899 -1.1528
14188TIP3    H264056   4.572   3.963  11.386  0.4269  0.4260  0.9333
14189TIP3   OH264057   1.234   5.810  15.196 -0.0564  0.3107  0.4526
14189TIP3    H164058   1.259   5.771  15.112  0.2919  2.9922 -0.7856
14189TIP3    H264059   1.295   5.883  15.208  0.5098 -0.5321  3.5512
14190TIP3   OH264060   2.563   4.521   2.782  0.4784  0.2604  0.3516
14190TIP3    H164061   2.606   4.521   2.867  0.3963  0.0402  0.3939
14190TIP3    H264062   2.601   4.597   2.736 -0.7261  1.4351  1.2104
14191TIP3   OH264063   6.193   6.330   0.121 -0.0468  0.0975  0.2421
14191TIP3    H164064   6.257   6.387   0.164  1.2498 -0.0839 -1.3837
14191TIP3    H264065   6.186   6.364   0.032 -0.0993 -1.5836 -0.4270
14192TIP3   OH264066   3.249   4.422  15.584  0.3666  0.0530  0.5500
14192TIP3    H164067   3.275   4.398  15.495  1.0615  1.4907  0.3426
14192TIP3    H264068   3.258   4.341  15.635  2.0243 -0.2965 -0.2402
14193TIP3   OH264069   6.340   0.786   2.046 -0.0085 -0.2326  0.4029
14193TIP3    H164070   6.427   0.776   2.083 -0.3405 -0.0941  1.2479
14193TIP3    H264071   6.343   0.740   1.962 -0.1310 -3.3761  1.9780
14194TIP3   OH264072   4.496   5.890   5.111 -0.1013  0.2401 -0.2093
14194TIP3    H164073   4.418   5.835   5.108  0.0820  0.0331 -2.1185
14194TIP3    H264074   4.484   5.944   5.189 -1.6885 -0.4539  0.0557
14195TIP3   OH264075   1.232   1.887   5.361 -0.2683 -1.4642 -0.2106
14195TIP3    H164076   1.158   1.834   5.331 -0.9798 -0.5660 -0.0614
14195TIP3    H264077   1.198   1.935   5.436 -0.0571  0.2762 -1.1906
14196TIP3   OH264078   1.221   4.521  15.850  0.4511 -0.4829 -0.0841
14196TIP3    H164079   1.178   4.440  15.822  1.4485 -1.8428  2.0522
14196TIP3    H264080   1.311   4.512  15.819  0.6291 -0.3260  0.3792
14197TIP3   OH264081   4.135   2.510   4.338  0.3712  0.2593 -1.1281
14197TIP3    H164082   4.170   2.432   4.296  2.4039  0.4167  0.1392
14197TIP3    H264083   4.092   2.558   4.268 -0.4759 -1.7285 -2.0279
14198TIP3   OH264084   0.201   0.898  14.941  0.1880 -0.4065  0.0565
14198TIP3    H164085   0.168   0.968  14.998 -2.8716 -0.4395 -1.4807
14198TIP3    H264086   0.129   0.836  14.934  1.3343 -1.6256 -1.9365
14199TIP3   OH264087   6.456   4.712   3.285  0.1055 -0.2959  0.3948
14199TIP3    H164088   6.415   4.672   3.208 -1.2400  0.5192  0.6439
14199TIP3    H264089   6.510   4.783   3.250 -1.2437  0.6832  0.2171
14200TIP3   OH264090   4.699   1.861   0.201  0.0601 -0.0245  0.1024
14200TIP3    H164091   4.609   1.862   0.234 -0.0360 -1.3577 -0.0710
14200TIP3    H264092   4.690   1.850   0.107  0.3967  1.0509 -0.0707
14201TIP3   OH264093   4.978   0.974   0.250  0.3155  0.0951 -0.4840
14201TIP3    H164094   5.048   0.912   0.267  1.0572  1.1321  0.3777
14201TIP3    H264095   4.917   0.927   0.193  0.6402 -1.5382  0.4776
14202TIP3   OH264096   5.180   2.285   1.351 -0.0901  0.3491  0.1483
14202TIP3    H164097   5.164   2.196   1.383 -0.9935  0.9076  1.3028
14202TIP3    H264098   5.264   2.279   1.305  0.9777 -0.6076  2.1301
14203TIP3   OH264099   4.487   3.563  14.073 -0.8589 -0.4976 -0.4134
14203TIP3    H164100   4.542   3.636  14.102 -1.2026 -0.0953 -0.7697
14203TIP3    H264101   4.432   3.600  14.005  1.0082 -1.7916 -2.7717
14204TIP3   OH264102   2.422   4.448  11.017  0.0919 -0.1408 -0.4126
14204TIP3    H164103   2.328   4.447  11.030  0.1311  2.2795  0.6071
14204TIP3    H264104   2.458   4.403  11.094 -0.2101  0.5278  0.1349
14205TIP3   OH264105   5.671   4.422  16.631  0.0204 -0.6356 -0.1616
14205TIP3    H164106   5.642   4.385  16.547 -0.6082 -1.8601  0.5605
14205TIP3    H264107   5.756   4.460  16.612 -1.6629  2.5494 -2.2358
14206TIP3   OH264108   5.125   4.391  15.714  0.2153  0.2910  0.2869
14206TIP3    H164109   5.038   4.365  15.686  1.2185 -1.5893 -1.3740
14206TIP3    H264110   5.136   4.480  15.679 -1.1024  0.6633  0.7779
14207TIP3   OH264111   4.066   4.039  14.803  0.1636  0.2424  0.2806
14207TIP3    H164112   4.020   4.121  14.787 -0.6688 -0.3284 -0.2823
14207TIP3    H264113   3.997   3.975  14.821  0.7958 -0.3757  0.5840
14208TIP3   OH264114   5.669   6.170  14.819 -0.8895 -0.3637  0.0139
14208TIP3    H164115   5.601   6.156  14.885 -1.8539  0.5267 -0.7588
14208TIP3    H264116   5.684   6.264  14.819  0.9174 -0.6188  0.6971
14209TIP3   OH264117   4.049   4.744  11.168 -0.5552  0.7706 -0.7006
14209TIP3    H164118   4.098   4.819  11.201 -1.1764  1.2041 -0.7402
14209TIP3    H264119   4.086   4.668  11.213  0.1678  1.0849 -0.7598
14210TIP3   OH264120   5.522   2.609   1.000  0.0752  0.2065 -0.0900
14210TIP3    H164121   5.503   2.694   0.961 -0.4123  0.1585  0.0385
14210TIP3    H264122   5.444   2.588   1.052  0.1997 -0.3093 -0.1055
14211TIP3   OH264123   2.858   1.932  15.622 -0.4523  0.3515  0.0430
14211TIP3    H164124   2.827   1.885  15.545 -0.5217  0.5695 -0.0628
14211TIP3    H264125   2.790   1.996  15.641 -0.8975 -0.3531  0.8778
14212TIP3   OH264126   3.224   6.476  11.896  0.1178 -0.0452 -0.3857
14212TIP3    H164127   3.264   6.445  11.814 -0.5302 -0.0303 -0.7144
14212TIP3    H264128   3.281   6.548  11.924  1.8644 -1.7216  0.5879
14213TIP3   OH264129   0.957   4.721   5.207 -0.3790 -0.0239 -0.1328
14213TIP3    H164130   0.945   4.664   5.283  0.8628  0.3238  0.3382
14213TIP3    H264131   0.954   4.810   5.243  0.8058  0.1336 -0.3875
14214TIP3   OH264132   3.385   3.413  11.317  0.4220 -0.5279 -0.1358
14214TIP3    H164133   3.290   3.418  11.331  0.3196 -0.4088 -0.8669
14214TIP3    H264134   3.401   3.320  11.301  0.1583 -0.3160 -1.8184
14215TIP3   OH264135   6.277   1.735  14.552 -0.1764 -0.2453  0.1539
14215TIP3    H164136   6.193   1.764  14.588 -0.4732  0.0720 -0.7608
14215TIP3    H264137   6.280   1.774  14.465  0.9044 -0.2980  0.1577
14216TIP3   OH264138   2.331   3.149   0.212  0.1516 -0.5487  0.0780
14216TIP3    H164139   2.316   3.123   0.303 -1.9937  0.2355 -0.0031
14216TIP3    H264140   2.426   3.162   0.207  0.2114  0.5975  2.5584
14217TIP3   OH264141   6.323   4.962   5.305  0.1100  0.0301  0.1269
14217TIP3    H164142   6.362   5.040   5.266  0.7421  0.9092  2.3632
14217TIP3    H264143   6.396   4.900   5.311 -0.1504 -0.3626 -0.7023
14218TIP3   OH264144   4.527   1.132  11.362  0.5197 -0.3284 -0.2937
14218TIP3    H164145   4.597   1.104  11.304  1.5699  0.7559  0.4173
14218TIP3    H264146   4.490   1.210  11.321 -0.0920 -0.7133 -0.5037
14219TIP3   OH264147   0.995   3.612  13.623 -0.0571 -0.4938 -0.4803
14219TIP3    H164148   1.070   3.630  13.566  0.7092  2.7416  1.3001
14219TIP3    H264149   1.024   3.541  13.680  1.1507 -0.1819 -0.6871
14220TIP3   OH264150   5.188   1.850  10.457  0.5082 -0.1087 -0.3216
14220TIP3    H164151   5.149   1.912  10.519  0.6187  0.5086 -0.8566
14220TIP3    H264152   5.114   1.820  10.404  0.5039 -0.1951 -0.2665
14221TIP3   OH264153   6.759   2.670  10.750 -0.5332 -0.2152 -0.0002
14221TIP3    H164154   6.751   2.760  10.781  2.5728 -1.0236  3.9710
14221TIP3    H264155   6.675   2.630  10.770 -1.6091  1.4779 -0.8943
14222TIP3   OH264156   4.268   1.289  16.211 -0.0598  0.2117  0.4622
14222TIP3    H164157   4.345   1.346  16.205  0.3700 -0.1851  1.9096
14222TIP3    H264158   4.304   1.201  16.218 -0.7261 -0.3375 -2.0281
14223TIP3   OH264159   0.185   4.418   4.246 -0.4709  0.1020  0.1731
14223TIP3    H164160   0.129   4.366   4.303  0.3106  0.2759  1.1354
14223TIP3    H264161   0.256   4.448   4.303 -0.0763  0.9300 -0.7188
14224TIP3   OH264162   4.520   2.724   0.796  0.2662  0.6392  0.5027
14224TIP3    H164163   4.452   2.746   0.859 -1.2844  1.6743 -1.4150
14224TIP3    H264164   4.555   2.809   0.767  2.6510  0.1372  1.6329
14225TIP3   OH264165   0.703   6.619   2.977  0.0224  0.2703 -0.0575
14225TIP3    H164166   0.715   6.651   2.888 -0.1224  0.8007  0.1133
14225TIP3    H264167   0.610   6.631   2.995 -0.1181 -0.6087 -0.1280
14226TIP3   OH264168   3.367   1.749  11.876  0.6620 -0.0340  0.0394
14226TIP3    H164169   3.354   1.666  11.922 -0.2058 -0.4159 -0.8552
14226TIP3    H264170   3.300   1.807  11.912  0.3843 -0.1427 -0.3002
14227TIP3   OH264171   3.595   6.676   0.052 -0.0991 -0.1964 -0.3978
14227TIP3    H164172   3.627   6.632  -0.027  1.7271  2.6999 -1.4282
14227TIP3    H264173   3.672   6.686   0.107 -0.9075 -0.1288  0.7564
14228TIP3   OH264174   2.150   4.051   2.408 -0.1076  0.5954 -0.3239
14228TIP3    H164175   2.232   4.078   2.450  0.9103  1.0047 -2.4310
14228TIP3    H264176   2.084   4.112   2.440  0.1508 -0.2868  2.1100
14229TIP3   OH264177   3.906   1.288   2.751  0.6440  0.3241 -0.3122
14229TIP3    H164178   3.983   1.343   2.767  0.0591  0.7670  1.1444
14229TIP3    H264179   3.891   1.243   2.834 -1.2962  1.0660 -0.2042
14230TIP3   OH264180   1.778   1.733  15.265  0.0642 -0.3242 -0.2544
14230TIP3    H164181   1.775   1.640  15.289 -1.7808 -0.3346 -0.4034
14230TIP3    H264182   1.871   1.751  15.252  0.8364 -1.2960  3.0135
14231TIP3   OH264183   1.185   0.522  15.608 -0.5327  0.3597 -0.4914
14231TIP3    H164184   1.196   0.452  15.544  0.8528 -0.0386  0.1480
14231TIP3    H264185   1.159   0.476  15.688 -2.1659  0.8435 -0.7008
14232TIP3   OH264186   1.258   4.164  14.405  0.5975  0.1824 -0.3853
14232TIP3    H164187   1.335   4.107  14.406  0.4541 -0.0150  1.2686
14232TIP3    H264188   1.192   4.116  14.455  0.9449  2.4028  2.4264
14233TIP3   OH264189   5.406   3.054   1.443 -0.4720  0.0889 -0.5513
14233TIP3    H164190   5.328   3.041   1.390  0.1185 -2.9437 -0.8761
14233TIP3    H264191   5.479   3.045   1.381  0.1992 -2.6514  0.4935
14234TIP3   OH264192   0.603   0.360   5.122  0.0045  0.2536 -0.4706
14234TIP3    H164193   0.677   0.368   5.183 -1.0480  0.2931  0.8553
14234TIP3    H264194   0.572   0.450   5.110 -0.9442  0.0704  0.4521
14235TIP3   OH264195   1.459   6.364  11.236  0.2071  0.0644  0.8409
14235TIP3    H164196   1.400   6.332  11.168 -0.2957 -0.8837  1.7039
14235TIP3    H264197   1.430   6.454  11.253 -0.4091 -0.0960  0.6326
14236TIP3   OH264198   3.516   3.453   0.287 -0.6121  0.0730  0.5558
14236TIP3    H164199   3.570   3.385   0.248  0.9072  0.6479  1.5458
14236TIP3    H264200   3.486   3.506   0.213  0.7632  0.1377  0.0184
14237TIP3   OH264201   2.686   6.816   2.033  0.7766  0.1227  0.2666
14237TIP3    H164202   2.682   6.727   2.070 -0.6401  0.4121  0.8954
14237TIP3    H264203   2.671   6.803   1.939  1.1806 -0.3507  0.2631
14238TIP3   OH264204   2.460   5.467   0.828 -0.4393 -0.7129 -0.1354
14238TIP3    H164205   2.529   5.406   0.802  0.5825  0.4726 -0.2502
14238TIP3    H264206   2.383   5.411   0.841  0.7624 -2.1878  0.9358
14239TIP3   OH264207   1.365   2.109   3.351 -0.5078 -0.2976 -0.6565
14239TIP3    H164208   1.336   2.153   3.431  1.1826  0.4551 -0.4044
14239TIP3    H264209   1.343   2.170   3.281  0.5480  0.3318 -0.4542
14240TIP3   OH264210   5.187   2.633   5.401  0.0234 -0.3113 -0.2406
14240TIP3    H164211   5.159   2.564   5.342 -0.1914  0.1361 -0.6687
14240TIP3    H264212   5.170   2.714   5.353 -1.0053  0.1063  0.7744
14241TIP3   OH264213   0.631   4.949  14.175  0.3649 -0.1310 -0.2747
14241TIP3    H164214   0.711   4.991  14.145 -0.1278 -0.6521 -2.4499
14241TIP3    H264215   0.561   4.993  14.127 -0.4864 -1.0194  0.1117
14242TIP3   OH264216   1.030   2.957  12.237 -0.4820  0.0581 -0.1611
14242TIP3    H164217   1.057   2.961  12.145 -2.3491 -2.0208 -0.8613
14242TIP3    H264218   1.111   2.938  12.284  0.2257 -0.5687 -1.5648
14243TIP3   OH264219   1.742   3.932   1.959 -0.8436  0.0397 -0.4676
14243TIP3    H164220   1.761   3.857   2.016  0.2100 -0.2265 -1.1433
14243TIP3    H264221   1.791   4.005   1.998 -1.5132  0.2951 -0.0667
14244TIP3   OH264222   4.773   6.337   2.068 -0.1285  0.6138 -0.0070
14244TIP3    H164223   4.734   6.366   2.150 -2.3422  0.4984 -0.9387
14244TIP3    H264224   4.759   6.243   2.066  0.2083  0.5661 -0.3801
14245TIP3   OH264225   2.600   2.152  10.865  0.2358 -0.0891 -0.7398
14245TIP3    H164226   2.672   2.130  10.806  0.4125  1.4847 -1.1579
14245TIP3    H264227   2.640   2.202  10.935 -0.4170  0.6588 -0.8857
14246TIP3   OH264228   3.345   6.488  13.130 -0.1926 -0.0923  0.2164
14246TIP3    H164229   3.251   6.502  13.120 -0.6268 -2.3674  0.5161
14246TIP3    H264230   3.370   6.437  13.053  0.4769 -0.7832  0.8749
14247TIP3   OH264231   5.139   2.348  16.717  0.0075  0.1006 -0.1321
14247TIP3    H164232   5.109   2.430  16.755  0.4309  0.3906 -0.4144
14247TIP3    H264233   5.158   2.292  16.792  1.2053  0.8017  0.1119
14248TIP3   OH264234   0.539   2.203  10.751  1.0059  0.1976 -0.4401
14248TIP3    H164235   0.522   2.137  10.818  0.7798 -0.4984 -1.1702
14248TIP3    H264236   0.578   2.276  10.799  0.9695 -0.3372  0.4272
14249TIP3   OH264237   5.249   6.807   0.384  0.2574  0.4736  0.1786
14249TIP3    H164238   5.189   6.748   0.338  1.1160  0.1425 -0.5303
14249TIP3    H264239   5.234   6.892   0.343 -0.5998  0.6556  0.8412
14250TIP3   OH264240   1.649   6.268   3.407  0.2744 -0.2561 -0.3417
14250TIP3    H164241   1.578   6.245   3.348 -2.3621  1.3528  1.9304
14250TIP3    H264242   1.710   6.318   3.354 -0.9454 -0.5914 -2.1330
14251TIP3   OH264243   2.997   0.185   5.644 -0.0502  0.0996  0.1324
14251TIP3    H164244   3.059   0.123   5.682  0.4931  0.2808 -0.4388
14251TIP3    H264245   2.999   0.260   5.703  1.4118  0.7230 -0.6490
14252TIP3   OH264246   2.226   5.370  15.661  0.8483  0.0730 -0.8340
14252TIP3    H164247   2.196   5.306  15.725  2.3023 -1.3787 -1.5380
14252TIP3    H264248   2.181   5.451  15.686  1.9452 -0.1928  2.5212
14253TIP3   OH264249   6.846   1.893   3.570 -0.1165 -0.3898 -0.5020
14253TIP3    H164250   6.825   1.872   3.661 -0.0740  2.3912  0.2652
14253TIP3    H264251   6.768   1.939   3.537  0.4633  0.0206 -1.3477
14254TIP3   OH264252   6.066   4.193   5.656  0.2772  0.5728 -0.2333
14254TIP3    H164253   6.108   4.142   5.587  2.1883  0.6116  0.8359
14254TIP3    H264254   6.018   4.261   5.609  1.7144  0.7477 -1.5449
14255TIP3   OH264255   6.095   2.444   4.488 -0.1814 -0.2927 -0.4060
14255TIP3    H164256   6.145   2.488   4.558  0.3847 -0.3250 -0.7787
14255TIP3    H264257   6.017   2.497   4.478  0.2263  0.3112 -0.4556
14256TIP3   OH264258   2.009   5.595   5.134  0.5103 -0.6234  0.0240
14256TIP3    H164259   1.998   5.690   5.134  2.2720 -0.3777 -1.4719
14256TIP3    H264260   1.920   5.561   5.151 -0.1827  1.2541  0.3944
14257TIP3   OH264261   4.041   1.609  16.212 -0.6702 -0.3327  0.7789
14257TIP3    H164262   4.047   1.514  16.221  1.3664 -0.4683 -1.0727
14257TIP3    H264263   4.028   1.642  16.301 -0.0646 -2.2538  1.6170
14258TIP3   OH264264   0.480   3.853   6.155 -0.3870 -0.6563  0.2326
14258TIP3    H164265   0.441   3.940   6.160 -0.7838 -0.8358  0.2675
14258TIP3    H264266   0.572   3.867   6.180  0.7277  0.4639 -3.8217
14259TIP3   OH264267   3.479   6.846  11.547 -0.0174 -0.3218  0.0884
14259TIP3    H164268   3.419   6.848  11.472 -1.1520  3.7596  0.8535
14259TIP3    H264269   3.422   6.852  11.623  1.2368  1.8912  0.9325
14260TIP3   OH264270   4.340   5.782   2.799 -0.0616 -0.0255 -0.0667
14260TIP3    H164271   4.321   5.781   2.892  1.2600  4.6807  0.4971
14260TIP3    H264272   4.435   5.773   2.793 -0.1753 -0.8368 -1.0601
14261TIP3   OH264273   0.150   6.490  15.164 -0.4465  0.0223 -0.1924
14261TIP3    H164274   0.169   6.577  15.129  0.1425 -0.1679 -0.3557
14261TIP3    H264275   0.148   6.502  15.259  1.2716 -0.0774 -0.1050
14262TIP3   OH264276   6.321   6.505  15.384  0.3156 -0.3920 -0.2264
14262TIP3    H164277   6.377   6.472  15.314  3.8399  1.5035  1.4585
14262TIP3    H264278   6.316   6.433  15.447  0.1197 -0.8631 -0.7737
14263TIP3   OH264279   1.158   5.424   5.303 -0.3166  0.0095 -0.3323
14263TIP3    H164280   1.177   5.342   5.258 -2.7052 -0.4579 -0.6289
14263TIP3    H264281   1.104   5.399   5.378  0.7325  1.1257  0.8434
14264TIP3   OH264282   1.229   1.700  15.634  0.2676  0.3235  0.2572
14264TIP3    H164283   1.317   1.735  15.621  0.8857 -0.8053  1.1831
14264TIP3    H264284   1.179   1.774  15.670  1.1638  0.6492  0.8704
14265TIP3   OH264285   2.937   4.883   2.363  0.1495  0.3842 -0.4116
14265TIP3    H164286   2.963   4.815   2.426 -0.3430  0.5003 -0.0752
14265TIP3    H264287   3.006   4.882   2.297  0.0951 -0.5180 -0.4652
14266TIP3   OH264288   0.208   4.512   5.114 -0.4216 -0.5368 -0.0114
14266TIP3    H164289   0.284   4.556   5.152  0.1777  0.5087 -2.2698
14266TIP3    H264290   0.134   4.542   5.167  0.2794  1.3894 -0.0475
14267TIP3   OH264291   4.895   3.530   4.420  0.0737  0.2390 -0.2233
14267TIP3    H164292   4.811   3.520   4.463  0.8121  2.1842  1.8783
14267TIP3    H264293   4.911   3.446   4.377 -2.2045 -0.6729  0.5929
14268TIP3   OH264294   2.162   2.606   4.342 -0.5201 -0.5015 -0.2411
14268TIP3    H164295   2.128   2.621   4.254 -1.8577  2.2366  0.6229
14268TIP3    H264296   2.102   2.655   4.399  1.2907 -0.7795  2.0303
14269TIP3   OH264297   2.594   1.623   1.360 -0.2687  0.2694 -0.5430
14269TIP3    H164298   2.548   1.706   1.355 -1.7877 -0.5563 -0.8840
14269TIP3    H264299   2.681   1.641   1.326 -0.8681  1.5146 -1.4765
14270TIP3   OH264300   0.840   6.806   2.204 -0.2914 -0.1926 -0.2731
14270TIP3    H164301   0.747   6.830   2.200 -0.4279 -0.6741 -0.0131
14270TIP3    H264302   0.864   6.819   2.296 -0.1852 -0.3914 -0.2742
14271TIP3   OH264303   1.229   6.855   2.865 -0.6721  0.0522 -0.1051
14271TIP3    H164304   1.225   6.927   2.803  3.1173 -0.6958 -1.4563
14271TIP3    H264305   1.214   6.777   2.813 -0.6211 -0.4058  0.5484
14272TIP3   OH264306   6.097   4.704  13.224 -0.4160  0.4804  0.9023
14272TIP3    H164307   6.020   4.648  13.237 -0.2246  0.5029  2.3105
14272TIP3    H264308   6.151   4.657  13.161 -0.9837 -0.1671  0.8845
14273TIP3   OH264309   5.603   2.961  15.202 -0.1031 -0.1831  0.1358
14273TIP3    H164310   5.643   2.950  15.115 -0.7660 -0.2160 -0.1677
14273TIP3    H264311   5.635   3.046  15.232  1.0777 -0.6849  0.3766
14274TIP3   OH264312   5.367   2.572   1.872 -0.0628 -0.5168 -0.0561
14274TIP3    H164313   5.342   2.603   1.959  1.9972  0.0230  0.3893
14274TIP3    H264314   5.453   2.531   1.885  0.7455  0.4496 -2.0039
14275TIP3   OH264315   0.020   5.309   5.552  0.1421 -0.4202 -0.4193
14275TIP3    H164316  -0.057   5.326   5.606  0.4094  1.1444 -0.4806
14275TIP3    H264317   0.063   5.394   5.545 -0.5292 -0.2578 -4.1045
14276TIP3   OH264318   2.845   5.041   1.927 -0.2309  0.2257  0.0321
14276TIP3    H164319   2.890   5.045   1.842  0.0520  0.1242  0.1777
14276TIP3    H264320   2.857   5.128   1.964  1.9956 -0.5056  1.1733
14277TIP3   OH264321   2.008   6.254  10.224  0.3869 -0.5201  0.0784
14277TIP3    H164322   1.933   6.305  10.255  0.9047  0.3534 -0.0437
14277TIP3    H264323   2.084   6.295  10.266  0.7017 -2.2990  1.3611
14278TIP3   OH264324   5.471   0.501   4.416  0.0963  0.2832 -0.0585
14278TIP3    H164325   5.462   0.572   4.480 -2.6741  0.8428 -0.9148
14278TIP3    H264326   5.565   0.489   4.406  0.6528  2.9512  1.0905
14279TIP3   OH264327   4.011   0.798  14.491 -0.0119 -0.7504  0.1044
14279TIP3    H164328   4.018   0.888  14.459 -1.9324 -0.3646  0.6063
14279TIP3    H264329   3.972   0.750  14.418 -1.3330 -0.5802  0.6523
14280TIP3   OH264330   6.699   2.494  13.445  0.8785  0.0194 -0.5439
14280TIP3    H164331   6.672   2.416  13.397 -0.5421  0.2583 -0.1882
14280TIP3    H264332   6.621   2.518  13.496  1.1526  1.8905 -0.9515
14281TIP3   OH264333   3.245   2.419   3.694  0.1757 -0.4895  0.7055
14281TIP3    H164334   3.223   2.465   3.775 -1.3149 -2.9749  1.8167
14281TIP3    H264335   3.332   2.383   3.710  0.1193 -0.5033  0.9793
14282TIP3   OH264336   3.310   6.042  11.859 -0.1672  0.0627 -0.7444
14282TIP3    H164337   3.237   6.070  11.914 -0.0051  0.8352 -0.9192
14282TIP3    H264338   3.388   6.072  11.905 -0.0680  2.5594 -2.3325
14283TIP3   OH264339   2.880   3.519  12.211 -0.1474 -0.1268 -0.2405
14283TIP3    H164340   2.923   3.604  12.202 -0.6117  0.0150 -1.2123
14283TIP3    H264341   2.796   3.529  12.166  0.3330 -1.4817 -1.5119
14284TIP3   OH264342   0.246   6.237   0.923  0.1821 -0.4754 -0.3390
14284TIP3    H164343   0.228   6.151   0.887 -0.8381 -0.0265 -0.9310
14284TIP3    H264344   0.261   6.293   0.847 -0.7548  0.2099 -0.0419
14285TIP3   OH264345   0.451   4.597   1.589 -0.1122 -0.0094 -0.1812
14285TIP3    H164346   0.397   4.657   1.538 -1.3406  0.2326  1.3174
14285TIP3    H264347   0.541   4.626   1.574 -0.5845  1.2200 -0.7090
14286TIP3   OH264348   1.176   3.467   0.787 -0.4576  0.2413 -0.1669
14286TIP3    H164349   1.174   3.562   0.776  0.3233  0.1662 -1.0024
14286TIP3    H264350   1.090   3.446   0.823 -0.4564  1.3176  0.4946
14287TIP3   OH264351   3.550   1.282  14.149 -0.0244  0.2069  0.4317
14287TIP3    H164352   3.524   1.279  14.241 -3.7720 -0.2214 -0.4769
14287TIP3    H264353   3.488   1.342  14.108  1.6003  0.4679 -1.8446
14288TIP3   OH264354   3.600   2.835  16.314  0.1832 -0.6680 -0.2785
14288TIP3    H164355   3.611   2.853  16.221  0.8974  0.2818 -0.0224
14288TIP3    H264356   3.593   2.740  16.320  1.5774 -0.8509 -1.1671
14289TIP3   OH264357   5.507   0.988   1.361 -0.1130  0.0675 -0.5652
14289TIP3    H164358   5.468   0.933   1.293 -1.1181 -1.3591  1.0549
14289TIP3    H264359   5.472   1.075   1.345 -2.8457 -0.8454 -0.1089
14290TIP3   OH264360   0.598   0.360   0.894  0.7507 -0.0406 -0.1463
14290TIP3    H164361   0.622   0.430   0.833  0.4973  0.0108 -0.1880
14290TIP3    H264362   0.514   0.387   0.929  0.5442 -0.4341 -0.3288
14291TIP3   OH264363   4.324   2.404  12.726  0.6447  0.1176 -0.3972
14291TIP3    H164364   4.343   2.484  12.677  1.8565  0.1626  0.1203
14291TIP3    H264365   4.392   2.400  12.793  1.4217 -2.0388 -1.2436
14292TIP3   OH264366   6.188   2.687  12.711  0.4841  1.2374  0.2486
14292TIP3    H164367   6.224   2.697  12.799  0.5415 -1.0118  0.5570
14292TIP3    H264368   6.253   2.636  12.664 -0.1457  1.2689 -0.6918
14293TIP3   OH264369   1.763   0.235  14.541 -0.0961  0.6000 -0.6519
14293TIP3    H164370   1.794   0.283  14.618  0.2863  1.5769 -1.3822
14293TIP3    H264371   1.668   0.232  14.551 -0.1494  1.6940 -0.6693
14294TIP3   OH264372   2.820   2.768   0.180  0.1171  0.5360  0.1805
14294TIP3    H164373   2.848   2.854   0.213 -0.2549  1.1401 -1.0357
14294TIP3    H264374   2.871   2.754   0.101 -0.7144  0.2088 -0.3157
14295TIP3   OH264375   6.660   4.774   5.104 -0.2686 -0.6191 -0.5100
14295TIP3    H164376   6.612   4.791   5.023 -0.2005 -0.7947 -0.5885
14295TIP3    H264377   6.744   4.819   5.093 -0.2172 -0.7299 -0.5837
14296TIP3   OH264378   6.493   5.501  15.242  0.0008 -0.0831 -0.1617
14296TIP3    H164379   6.561   5.478  15.305  1.8767  1.5378 -1.4715
14296TIP3    H264380   6.412   5.502  15.293  1.3727  0.8060  2.1648
14297TIP3   OH264381   5.962   4.799   3.417 -0.2019 -0.4145  0.0537
14297TIP3    H164382   6.015   4.720   3.406  3.1757  1.5891  0.4981
14297TIP3    H264383   5.929   4.794   3.507 -0.3481 -1.4548 -0.0457
14298TIP3   OH264384   2.740   1.410  15.561 -1.0740 -0.2015 -0.5250
14298TIP3    H164385   2.777   1.412  15.473  0.1809 -0.5366 -0.0329
14298TIP3    H264386   2.724   1.317  15.577  1.7648 -0.5895  0.7593
14299TIP3   OH264387   2.559   5.459  16.832 -0.5511 -0.4977 -0.4157
14299TIP3    H164388   2.515   5.378  16.857 -2.6238  1.2741  2.1926
14299TIP3    H264389   2.489   5.517  16.803  0.3680  1.3964  0.9001
14300TIP3   OH264390   4.141   5.090  13.670  0.3143 -0.0333  0.1054
14300TIP3    H164391   4.107   5.035  13.600 -1.3608 -0.6951  1.3483
14300TIP3    H264392   4.063   5.116  13.719  1.3829  0.7597  1.4466
14301TIP3   OH264393   1.069   5.511  11.208 -0.0320 -0.2536  0.2536
14301TIP3    H164394   1.031   5.460  11.137  3.5694 -2.0107 -0.6528
14301TIP3    H264395   1.002   5.511  11.276 -0.9963 -4.7474 -0.3753
14302TIP3   OH264396   1.144   1.189   1.237  0.2157  0.1223  0.4968
14302TIP3    H164397   1.099   1.249   1.178  1.1389  1.4770  1.1243
14302TIP3    H264398   1.089   1.186   1.315 -0.3973 -0.7518  0.0560
14303TIP3   OH264399   3.301   3.882   0.401  0.4021 -0.4381  0.4982
14303TIP3    H164400   3.232   3.876   0.335  0.1588 -0.9364  0.7945
14303TIP3    H264401   3.288   3.805   0.457  0.2835  0.2358  1.4314
14304TIP3   OH264402   5.710   5.590   6.051 -0.2190  0.0340 -0.0084
14304TIP3    H164403   5.794   5.614   6.013 -1.5852  3.5551 -1.2036
14304TIP3    H264404   5.709   5.634   6.136 -0.5038 -0.8221  0.4457
14305TIP3   OH264405   4.569   4.281  11.767 -0.9339 -0.4628 -0.0143
14305TIP3    H164406   4.501   4.216  11.751  1.1653 -3.2157  1.3002
14305TIP3    H264407   4.559   4.303  11.860 -1.3670  0.8487 -0.3511
14306TIP3   OH264408   1.065   2.538  13.054 -0.0316  0.2033  0.0663
14306TIP3    H164409   1.135   2.548  13.119 -1.0336 -0.2129  1.2467
14306TIP3    H264410   1.097   2.471  12.994  1.7718  1.9843 -1.1122
14307TIP3   OH264411   4.754   5.481   5.439  0.3752 -0.0800  0.3319
14307TIP3    H164412   4.830   5.446   5.394  1.5575  1.7573  0.7877
14307TIP3    H264413   4.740   5.567   5.398 -0.9219 -0.0183  0.8548
14308TIP3   OH264414   1.268   6.555   2.286  0.2654 -0.1675  0.0418
14308TIP3    H164415   1.299   6.484   2.232  1.1904  0.6640 -0.5526
14308TIP3    H264416   1.301   6.634   2.244  0.1093  0.5628  1.2270
14309TIP3   OH264417   4.099   2.219   3.954  0.1784  0.4380  0.4281
14309TIP3    H164418   4.129   2.168   3.879 -0.0768 -0.6167  1.0229
14309TIP3    H264419   4.045   2.288   3.916  1.0443  0.6666 -0.4389
14310TIP3   OH264420   3.459   5.745   6.415  0.1273 -0.0264 -0.4432
14310TIP3    H164421   3.426   5.813   6.356  1.5278 -1.1530 -2.6196
14310TIP3    H264422   3.443   5.663   6.370  1.8942 -0.8931  0.3863
14311TIP3   OH264423   1.662   6.048  16.800 -0.7375  0.5373 -0.4594
14311TIP3    H164424   1.622   6.015  16.719  0.2088  3.1200 -2.1243
14311TIP3    H264425   1.628   6.137  16.809  0.9577  1.1288  0.6526
14312TIP3   OH264426   3.326   2.987   6.411  0.4253 -0.0867  0.2704
14312TIP3    H164427   3.324   3.010   6.504  0.6231 -0.7027  0.4329
14312TIP3    H264428   3.321   3.071   6.366  3.7212  0.5490  0.8310
14313TIP3   OH264429   5.431   5.707  13.914 -0.3002 -0.7547 -0.2399
14313TIP3    H164430   5.517   5.667  13.900 -0.7194 -1.8798  0.2445
14313TIP3    H264431   5.428   5.781  13.853  0.8390 -0.9533 -0.5577
14314TIP3   OH264432   0.710   5.853  15.539  0.2987  0.6157 -0.2239
14314TIP3    H164433   0.638   5.871  15.599  0.4381  0.3925  0.0135
14314TIP3    H264434   0.786   5.841  15.596 -0.3815 -4.4398  0.0465
14315TIP3   OH264435   1.885   5.149  12.716 -0.0691  0.4891 -0.0580
14315TIP3    H164436   1.915   5.232  12.753  1.1086  0.6657 -1.3452
14315TIP3    H264437   1.814   5.122  12.774  0.0064  2.0224  0.8118
14316TIP3   OH264438   4.537   1.240   4.743  0.0789  0.0765 -0.1409
14316TIP3    H164439   4.621   1.195   4.739  0.1511  0.1543  0.4281
14316TIP3    H264440   4.472   1.171   4.731  0.2270  0.0747 -0.9987
14317TIP3   OH264441   6.205   5.981   1.175 -0.0510  0.1515 -0.0633
14317TIP3    H164442   6.254   5.899   1.163  1.3070  0.8284  0.6156
14317TIP3    H264443   6.273   6.049   1.178 -0.9826  1.0688  1.5367
14318TIP3   OH264444   3.867   2.660  13.121  0.0334  0.0110 -0.0202
14318TIP3    H164445   3.781   2.618  13.122 -0.7294  1.4962  0.8132
14318TIP3    H264446   3.920   2.606  13.180 -0.8615  0.0862  0.8870
14319TIP3   OH264447   1.419   0.028   4.135  0.2520  0.4263 -0.3387
14319TIP3    H164448   1.354   0.098   4.128  0.5297  0.6645 -0.5733
14319TIP3    H264449   1.425   0.009   4.229 -0.4092  0.1608 -0.3451
14320TIP3   OH264450   5.457   6.202   2.649  0.6616  0.1203  0.2497
14320TIP3    H164451   5.413   6.123   2.619 -0.1070  0.3209  0.8072
14320TIP3    H264452   5.499   6.176   2.731  2.0046 -0.1913 -0.4999
14321TIP3   OH264453   1.052   2.413   0.369  0.1373 -0.0131 -0.7023
14321TIP3    H164454   1.059   2.351   0.441  0.3744 -0.6784 -1.2869
14321TIP3    H264455   1.140   2.416   0.331 -0.0889 -0.0194 -1.2365
14322TIP3   OH264456   3.976   0.132  13.324 -0.7372  0.0070  0.1150
14322TIP3    H164457   3.993   0.123  13.418 -1.5159  3.1860  0.6795
14322TIP3    H264458   3.887   0.098  13.313 -0.7287 -0.1746  0.5933
14323TIP3   OH264459   3.640   1.833  11.922  0.2283  0.2311  0.2921
14323TIP3    H164460   3.654   1.926  11.901  1.7953 -0.1604 -0.5089
14323TIP3    H264461   3.563   1.809  11.870 -0.7205  1.2675  1.1537
14324TIP3   OH264462   6.632   6.281   4.624 -0.0378 -0.0827 -0.1709
14324TIP3    H164463   6.721   6.287   4.589 -0.3819  1.0647 -0.9320
14324TIP3    H264464   6.592   6.209   4.576 -0.5800  1.6293 -2.4423
14325TIP3   OH264465   6.210   3.824  17.103 -0.4658 -0.2533  0.4299
14325TIP3    H164466   6.301   3.847  17.089 -0.5410  0.9416  1.7628
14325TIP3    H264467   6.166   3.907  17.122 -1.7261 -0.8727  0.3698
14326TIP3   OH264468   5.129   4.258  13.075 -0.0023 -0.0845  0.0903
14326TIP3    H164469   5.161   4.185  13.128 -0.6370 -0.4115  0.0296
14326TIP3    H264470   5.035   4.241  13.065  0.2740 -0.6122 -2.0171
14327TIP3   OH264471   0.941   2.348  14.292  0.3232  0.3627  0.5610
14327TIP3    H164472   0.979   2.405  14.225 -0.6344  0.7144  0.3061
14327TIP3    H264473   0.978   2.262  14.274  2.8494  1.0981  1.7495
14328TIP3   OH264474   5.013   2.365  13.685  0.6434 -0.7696 -0.3861
14328TIP3    H164475   5.066   2.294  13.648  1.7767 -1.3406  2.1511
14328TIP3    H264476   4.927   2.355  13.643  1.9113 -1.0229 -3.1583
14329TIP3   OH264477   2.630   4.114  16.301 -0.2126  0.2082  0.2702
14329TIP3    H164478   2.670   4.160  16.227  1.3144 -0.6303  0.5281
14329TIP3    H264479   2.542   4.150  16.307 -0.4402  0.1833 -2.0555
14330TIP3   OH264480   4.435   6.189   0.304 -0.9560 -0.6508 -0.8030
14330TIP3    H164481   4.520   6.144   0.306  0.3151  1.5835  0.1151
14330TIP3    H264482   4.378   6.134   0.357 -0.2562 -2.4551 -1.8276
14331TIP3   OH264483   4.933   3.229   1.061 -0.4203  0.0231 -0.6167
14331TIP3    H164484   4.849   3.208   1.020 -0.4569  0.9382 -1.0326
14331TIP3    H264485   4.978   3.285   0.997  0.3610 -0.1662 -0.2471
14332TIP3   OH264486   2.760   2.264  11.074  0.0255 -0.3538 -0.3564
14332TIP3    H164487   2.809   2.293  11.151  1.4823 -0.9333 -1.0228
14332TIP3    H264488   2.727   2.345  11.035  1.3748  0.1754 -0.4633
14333TIP3   OH264489   0.773   5.047  12.467  0.8581  0.7052 -0.7763
14333TIP3    H164490   0.753   5.008  12.382  0.6354  1.0170 -0.8654
14333TIP3    H264491   0.710   5.118  12.477  0.4116  0.2179 -0.0342
14334TIP3   OH264492   5.923   6.364  16.916  0.2793  0.2126 -0.2248
14334TIP3    H164493   5.858   6.301  16.948 -0.4200 -0.4287 -2.7004
14334TIP3    H264494   5.870   6.434  16.877  1.0873  0.8995 -0.1187
14335TIP3   OH264495   5.676   4.794  13.155 -0.1236  0.2427  0.1883
14335TIP3    H164496   5.587   4.764  13.138  0.0535 -0.2740  0.1244
14335TIP3    H264497   5.670   4.847  13.234 -0.8453  2.0057 -1.0010
14336TIP3   OH264498   4.172   6.184   0.083 -0.1495 -0.5531  0.0001
14336TIP3    H164499   4.147   6.274   0.104  0.7740 -0.2204 -0.2454
14336TIP3    H264500   4.097   6.131   0.109 -0.6701  0.2787  0.2349
14337TIP3   OH264501   1.740   1.353   3.717  0.2725  0.0617 -0.3527
14337TIP3    H164502   1.687   1.430   3.696 -0.8345 -1.0538 -1.8745
14337TIP3    H264503   1.679   1.294   3.762  0.4901 -0.7804 -1.1189
14338TIP3   OH264504   5.013   6.607   4.622  0.2061  0.1452 -0.4944
14338TIP3    H164505   5.034   6.699   4.639  1.0088 -0.0241 -0.5191
14338TIP3    H264506   4.918   6.606   4.609 -0.3253  0.5440  2.5169
14339TIP3   OH264507   3.132   6.050  16.977 -0.6788  0.5990 -0.2142
14339TIP3    H164508   3.202   6.046  16.911 -1.6276  1.0285 -1.2816
14339TIP3    H264509   3.057   6.008  16.935 -1.0147 -0.0854  1.0166
14340TIP3   OH264510   5.357   0.128  13.009 -0.0267  0.4849  0.2299
14340TIP3    H164511   5.394   0.042  12.986  0.8569  0.8937  0.0917
14340TIP3    H264512   5.429   0.189  12.995 -0.8964  1.3698 -0.4816
14341TIP3   OH264513   1.817   0.880   3.836 -0.1487  0.1356 -0.2425
14341TIP3    H164514   1.795   0.938   3.763  1.5380  0.3090 -0.6406
14341TIP3    H264515   1.744   0.892   3.898 -1.1637  0.6470 -1.4872
14342TIP3   OH264516   1.336   0.618  13.403  0.0021  0.2389  0.0075
14342TIP3    H164517   1.263   0.578  13.357 -0.9897  0.9305  0.9153
14342TIP3    H264518   1.319   0.600  13.496  1.5335 -0.4585  0.1977
14343TIP3   OH264519   3.483   1.320  11.760 -0.5287  0.4303  0.3181
14343TIP3    H164520   3.418   1.254  11.785  0.4234 -0.5951  0.1745
14343TIP3    H264521   3.513   1.292  11.674 -1.1538  1.8995 -0.4111
14344TIP3   OH264522   3.504   6.447  10.826 -0.3703 -0.6758  0.0531
14344TIP3    H164523   3.480   6.357  10.806  0.9819 -1.0862  0.1621
14344TIP3    H264524   3.576   6.467  10.766  0.5458 -0.3128  1.2118
14345TIP3   OH264525   3.902   1.435   0.804  0.3239  0.3861 -0.1045
14345TIP3    H164526   3.982   1.382   0.793 -0.5131 -0.8185 -0.6183
14345TIP3    H264527   3.832   1.370   0.811 -0.7810  1.4445 -1.0174
14346TIP3   OH264528   5.143   6.581   2.594 -0.3209 -0.1688 -0.4876
14346TIP3    H164529   5.235   6.581   2.621 -0.3952  2.0828 -0.0879
14346TIP3    H264530   5.127   6.490   2.566  1.5909 -0.9713  0.7889
14347TIP3   OH264531   5.640   3.726  11.740 -0.1111 -0.4305 -0.3073
14347TIP3    H164532   5.639   3.647  11.794 -0.5579  0.1323  0.5201
14347TIP3    H264533   5.681   3.698  11.658  2.7709 -0.7317  1.1420
14348TIP3   OH264534   0.984   3.130  17.121  0.8080  0.3766 -0.2889
14348TIP3    H164535   0.892   3.121  17.098  0.6532  1.6474 -0.2499
14348TIP3    H264536   1.032   3.090  17.048  0.2518  1.2524 -1.1567
14349TIP3   OH264537   1.454   5.829   6.364 -0.1342  0.0995  0.7481
14349TIP3    H164538   1.408   5.890   6.307  0.1217 -2.0313 -1.9363
14349TIP3    H264539   1.420   5.743   6.339  2.7245 -1.2483  1.1804
14350TIP3   OH264540   0.516   0.745  11.868  0.5012 -0.0024  0.2237
14350TIP3    H164541   0.427   0.749  11.904  1.0187  1.2057  1.4611
14350TIP3    H264542   0.563   0.687  11.928  0.1898 -2.0363 -1.3781
14351TIP3   OH264543   1.955   2.431   2.343 -0.4239 -0.5442 -0.4183
14351TIP3    H164544   1.888   2.410   2.278 -0.0374  0.8293 -1.2883
14351TIP3    H264545   1.911   2.419   2.427 -1.8467  0.5289 -0.9725
14352TIP3   OH264546   1.198   1.877   0.371  0.9238 -0.0794 -0.3193
14352TIP3    H164547   1.237   1.900   0.455  1.5442 -1.9929 -0.0404
14352TIP3    H264548   1.164   1.960   0.337  1.2382  0.8467  1.5015
14353TIP3   OH264549   0.171   1.536  11.933  0.2760 -0.1927 -0.1949
14353TIP3    H164550   0.184   1.625  11.966 -0.7944  0.1828 -0.7188
14353TIP3    H264551   0.079   1.534  11.906  0.2913 -1.4580 -0.2062
14354TIP3   OH264552   5.151   1.091   3.894 -0.1564  0.0842 -0.4199
14354TIP3    H164553   5.231   1.143   3.893 -0.9200  1.4016  1.1390
14354TIP3    H264554   5.080   1.156   3.899 -1.1429 -1.0338  1.7988
14355TIP3   OH264555   4.713   1.002   5.348 -0.2505  0.5946  0.3014
14355TIP3    H164556   4.679   0.914   5.360 -0.8168  0.7582 -0.0711
14355TIP3    H264557   4.732   1.033   5.437 -0.0604  0.1113  0.4326
14356TIP3   OH264558   1.661   4.804   4.073 -0.3008  0.3717  0.1497
14356TIP3    H164559   1.595   4.829   4.008  0.1563 -0.1558 -0.5372
14356TIP3    H264560   1.740   4.850   4.046  0.6955 -2.0492 -1.4219
14357TIP3   OH264561   2.780   2.478  16.315  0.3804  0.3024 -0.6260
14357TIP3    H164562   2.861   2.445  16.354 -0.3312 -1.8847 -0.8552
14357TIP3    H264563   2.802   2.494  16.223 -0.0179 -2.9427 -1.4065
14358TIP3   OH264564   4.928   4.804  16.304 -0.3380 -0.6524 -0.2427
14358TIP3    H164565   4.965   4.719  16.279  0.1597 -0.4621 -0.1557
14358TIP3    H264566   4.989   4.868  16.268 -0.7504 -0.3257 -0.3701
14359TIP3   OH264567   0.707   4.447   5.134 -1.0529 -0.0935  0.2618
14359TIP3    H164568   0.713   4.543   5.134 -0.5732 -0.1157 -0.2904
14359TIP3    H264569   0.683   4.426   5.044 -0.7051 -0.5182  0.2690
14360TIP3   OH264570   5.097   0.976  16.648  0.1033  0.4466 -0.6905
14360TIP3    H164571   5.059   1.054  16.608 -0.7453  1.1895  1.4296
14360TIP3    H264572   5.192   0.992  16.645  0.1048  0.3469 -2.5326
14361TIP3   OH264573   3.666   2.507  10.758  0.0518 -0.6457 -0.3686
14361TIP3    H164574   3.741   2.470  10.806 -1.4688 -0.5360  2.2635
14361TIP3    H264575   3.620   2.430  10.724  1.9945 -0.6816 -3.2499
14362TIP3   OH264576   1.268   5.718   4.802 -0.0618 -0.4659  0.3198
14362TIP3    H164577   1.247   5.624   4.802 -0.9356 -0.2799  0.3061
14362TIP3    H264578   1.183   5.761   4.796  0.3973  0.3141 -0.9450
14363TIP3   OH264579   1.824   0.301   5.386  0.0862  0.0750 -0.1056
14363TIP3    H164580   1.838   0.210   5.359  1.2745  0.1807  0.1262
14363TIP3    H264581   1.875   0.353   5.323 -2.1397  0.7550 -1.4884
14364TIP3   OH264582   3.766   0.324   4.288  0.1566 -0.4465 -0.2187
14364TIP3    H164583   3.810   0.242   4.314 -0.0052 -0.5702 -0.3309
14364TIP3    H264584   3.680   0.295   4.256 -1.1697 -0.0068  2.6157
14365TIP3   OH264585   4.417   6.156   1.181 -0.5169  0.5110  0.4239
14365TIP3    H164586   4.344   6.195   1.134  0.7846  1.9724 -0.4994
14365TIP3    H264587   4.490   6.217   1.166  1.7052 -2.3062 -1.2058
14366TIP3   OH264588   6.534   5.828   0.129 -0.2268 -0.0446 -0.5209
14366TIP3    H164589   6.615   5.853   0.085 -0.6608  0.9679 -0.7705
14366TIP3    H264590   6.553   5.742   0.168  0.6587 -0.2388 -1.3498
14367TIP3   OH264591   0.119   1.047   4.881 -0.2342 -0.0554  0.4415
14367TIP3    H164592   0.113   1.075   4.973  3.0986  0.1302  0.7319
14367TIP3    H264593   0.064   0.969   4.876  0.2837 -0.6630  2.9023
14368TIP3   OH264594   1.213   5.777  11.674 -0.1041 -0.0777 -0.3649
14368TIP3    H164595   1.208   5.844  11.606  1.0969 -0.0516 -0.4475
14368TIP3    H264596   1.214   5.825  11.756 -0.6132 -0.0685 -0.3590
14369TIP3   OH264597   1.140   4.305  15.664 -0.5905 -0.0998  0.7258
14369TIP3    H164598   1.046   4.307  15.646 -0.3036  0.8260 -0.8290
14369TIP3    H264599   1.161   4.212  15.672 -1.3173 -0.4270 -0.8925
14370TIP3   OH264600   5.142   4.411   2.258  0.2457 -0.3446 -0.0601
14370TIP3    H164601   5.129   4.317   2.249  1.0463 -0.3473 -1.4529
14370TIP3    H264602   5.208   4.420   2.326  0.9003 -0.8520 -0.6164
14371TIP3   OH264603   2.681   0.957   4.708 -0.3664  0.1090 -0.5261
14371TIP3    H164604   2.741   0.998   4.771 -1.0957  0.2731  0.0849
14371TIP3    H264605   2.678   1.019   4.635  0.1427  0.1391 -0.5261
14372TIP3   OH264606   0.709   2.343   5.950  0.6558 -0.0527  0.1499
14372TIP3    H164607   0.717   2.420   6.006 -0.0314 -0.2197  0.4843
14372TIP3    H264608   0.800   2.316   5.934  0.8812  0.4231  0.5870
14373TIP3   OH264609   1.390   4.897   4.178  0.3671 -0.0016  0.6916
14373TIP3    H164610   1.391   4.965   4.111 -0.5705  0.2858  0.9529
14373TIP3    H264611   1.479   4.896   4.212  0.6545  0.3758 -0.0320
14374TIP3   OH264612   2.523   5.888   0.594  0.1409 -0.0982 -0.0113
14374TIP3    H164613   2.483   5.975   0.594 -2.2932 -1.0677 -2.5398
14374TIP3    H264614   2.611   5.902   0.559  0.2095  1.4677  0.7122
14375TIP3   OH264615   0.011   3.585  14.195  0.1295 -0.5500 -0.0360
14375TIP3    H164616  -0.040   3.535  14.132  1.0893 -0.0060 -1.2835
14375TIP3    H264617   0.056   3.652  14.143  0.1020  0.6228  1.3667
14376TIP3   OH264618   3.959   2.417   3.766  0.1503 -0.1916  0.1537
14376TIP3    H164619   3.940   2.357   3.695 -0.1131 -1.2516  1.0980
14376TIP3    H264620   3.876   2.462   3.783  0.2694  0.2237 -0.3439
14377TIP3   OH264621   1.494   1.742   2.504  0.0409 -0.7414  0.1686
14377TIP3    H164622   1.463   1.814   2.558  1.3436  0.1608 -0.2447
14377TIP3    H264623   1.562   1.781   2.448  1.0889 -2.3658  0.2362
14378TIP3   OH264624   5.744   2.331  11.133 -0.9459  0.0499  0.1850
14378TIP3    H164625   5.758   2.426  11.130 -1.3106  0.1720  1.5892
14378TIP3    H264626   5.831   2.294  11.146 -0.8982  0.2447  0.4260
14379TIP3   OH264627   4.848   4.435   6.178 -0.4774  0.3602  0.1889
14379TIP3    H164628   4.849   4.462   6.086  3.0738  1.5937  0.4611
14379TIP3    H264629   4.880   4.346   6.177  0.8516  0.8219  0.2908
14380TIP3   OH264630   2.449   5.363  11.828  0.2303 -0.1227  0.2848
14380TIP3    H164631   2.536   5.336  11.859 -0.5511 -1.3133  1.5843
14380TIP3    H264632   2.446   5.335  11.737 -0.6725 -5.2941  1.5610
14381TIP3   OH264633   4.389   5.529   5.563  0.2613 -0.4158  0.1715
14381TIP3    H164634   4.296   5.517   5.583  0.1716  1.4660  1.1291
14381TIP3    H264635   4.391   5.575   5.479  0.3084 -0.1836  0.2982
14382TIP3   OH264636   3.293   1.020   2.984  0.0623  0.2716 -0.0701
14382TIP3    H164637   3.338   1.104   2.970  0.1014  0.4806  1.1996
14382TIP3    H264638   3.222   1.021   2.920  1.1987  0.4055 -1.3940
14383TIP3   OH264639   1.634   5.569  12.308  0.5991  0.1002  0.1171
14383TIP3    H164640   1.609   5.632  12.240 -0.5268 -0.9830 -0.5152
14383TIP3    H264641   1.665   5.623  12.380 -0.4029  1.3951 -0.3777
14384TIP3   OH264642   5.411   3.959   6.436 -0.6072 -0.1034  0.4107
14384TIP3    H164643   5.359   3.991   6.509 -1.7408  0.1135 -0.4760
14384TIP3    H264644   5.401   4.025   6.368  0.2798 -0.3979 -0.0176
14385TIP3   OH264645   2.977   0.873  12.366 -0.4461  0.2883  0.2578
14385TIP3    H164646   2.925   0.945  12.330 -0.7915  0.2098  0.5869
14385TIP3    H264647   2.933   0.793  12.335 -0.9677  0.2151  1.1235
14386TIP3   OH264648   5.546   4.079   1.324 -0.0458 -0.1351  0.1084
14386TIP3    H164649   5.574   4.059   1.234  4.0341  0.6787  1.0283
14386TIP3    H264650   5.472   4.139   1.313 -1.8683 -2.5696 -2.6003
14387TIP3   OH264651   4.189   5.474   2.261 -0.2769  0.7054 -0.4026
14387TIP3    H164652   4.170   5.505   2.172 -0.1197  0.5990 -0.4732
14387TIP3    H264653   4.102   5.458   2.299 -0.3368  0.2824 -0.7036
14388TIP3   OH264654   5.556   6.220  15.452 -0.3617 -0.1847  0.2746
14388TIP3    H164655   5.526   6.296  15.501 -0.7658 -0.9313  1.2324
14388TIP3    H264656   5.651   6.218  15.465 -0.2356  0.6046 -0.4419
14389TIP3   OH264657   6.188   0.717  12.985  0.6152 -0.3928 -0.7466
14389TIP3    H164658   6.236   0.795  13.011  0.6515 -1.0065  1.2206
14389TIP3    H264659   6.119   0.749  12.928 -1.0937  1.5244  2.1415
14390TIP3   OH264660   5.799   1.075  15.421  0.1059 -0.0849  0.1742
14390TIP3    H164661   5.824   0.983  15.427 -1.3113 -1.0222 -4.2128
14390TIP3    H264662   5.709   1.078  15.452  0.3957  0.0296  1.0336
14391TIP3   OH264663   3.360   0.778  11.362  0.5178  0.1640 -0.4979
14391TIP3    H164664   3.451   0.799  11.342  1.0699 -1.7073 -0.1755
14391TIP3    H264665   3.349   0.688  11.332 -0.7327 -0.2186  0.9643
14392TIP3   OH264666   6.178   6.272   1.912  0.6928 -0.2042  0.7979
14392TIP3    H164667   6.218   6.302   1.994  1.6249  1.1422 -0.0983
14392TIP3    H264668   6.105   6.217   1.940  0.8949  0.3262  2.5364
14393TIP3   OH264669   5.929   6.715  12.132 -0.9326  0.0658  0.4124
14393TIP3    H164670   5.921   6.799  12.087 -1.5149 -0.5938 -0.7885
14393TIP3    H264671   6.003   6.672  12.089  0.2416  0.4839  1.9405
14394TIP3   OH264672   4.828   5.660   0.116  0.0072  0.2742 -0.6049
14394TIP3    H164673   4.865   5.625   0.197 -0.1627  2.5711  0.5639
14394TIP3    H264674   4.831   5.587   0.054 -0.6125 -1.8076  1.6787
14395TIP3   OH264675   5.694   4.273  12.542  0.2793 -0.1997  0.0840
14395TIP3    H164676   5.768   4.283  12.602 -0.8277 -0.2784  1.5339
14395TIP3    H264677   5.712   4.335  12.471  1.5010  0.1197  0.6442
14396TIP3   OH264678   0.044   1.897  13.066 -0.0416  0.3517 -0.4622
14396TIP3    H164679   0.097   1.977  13.061  0.3369  0.1388  0.0058
14396TIP3    H264680   0.106   1.827  13.044 -0.3467  0.1743 -0.7662
14397TIP3   OH264681   1.131   3.016   5.520 -0.3243 -0.9611  0.0511
14397TIP3    H164682   1.058   2.955   5.512 -0.2403 -0.8971 -1.2796
14397TIP3    H264683   1.105   3.074   5.591 -1.6599 -0.8229 -0.5264
14398TIP3   OH264684   4.674   2.430  14.648 -0.3136  0.4032 -0.1297
14398TIP3    H164685   4.645   2.515  14.681  0.6902  0.3185  1.0427
14398TIP3    H264686   4.643   2.367  14.713 -0.4134 -0.0550 -0.6140
14399TIP3   OH264687   3.104   4.536   3.893  0.1199 -0.2403 -0.0497
14399TIP3    H164688   3.187   4.490   3.880 -0.0111 -0.5025  0.0218
14399TIP3    H264689   3.040   4.484   3.844  0.4322  1.4689 -2.4410
14400TIP3   OH264690   4.482   5.520  16.272  0.2116 -0.0331  0.4987
14400TIP3    H164691   4.430   5.443  16.253 -0.5946  0.6051  0.0439
14400TIP3    H264692   4.487   5.567  16.188  1.7537 -0.2125  0.4591
14401TIP3   OH264693   5.770   6.234  13.218 -0.1067  0.5393  0.0320
14401TIP3    H164694   5.738   6.317  13.253  1.0703  1.8418 -1.8154
14401TIP3    H264695   5.742   6.233  13.127 -0.6961 -1.4515  0.1855
14402TIP3   OH264696   6.671   1.060  16.511  0.2507  0.1029  0.3049
14402TIP3    H164697   6.635   0.972  16.503 -0.7972  0.4389  1.1068
14402TIP3    H264698   6.674   1.076  16.605 -1.0916  1.5076  0.1449
14403TIP3   OH264699   3.095   5.295   3.260  0.2113  0.2419  0.2439
14403TIP3    H164700   3.042   5.374   3.276 -0.3857 -0.2572  0.8361
14403TIP3    H264701   3.146   5.284   3.340  1.4559  0.8856 -0.4441
14404TIP3   OH264702   2.127   5.326  15.327 -0.0564  0.2515 -0.0426
14404TIP3    H164703   2.185   5.370  15.389 -1.4085  1.4801  0.4342
14404TIP3    H264704   2.130   5.234  15.351 -0.5952  0.7059  1.9357
14405TIP3   OH264705   5.840   3.498  15.933  0.0775 -0.4861 -0.3043
14405TIP3    H164706   5.767   3.541  15.889  0.7508  1.7553  0.5897
14405TIP3    H264707   5.886   3.451  15.863 -1.1038 -0.3202 -1.2252
14406TIP3   OH264708   0.854   6.256   0.854  0.9360  0.8278 -0.2570
14406TIP3    H164709   0.797   6.232   0.927  0.8472  0.2247 -0.5245
14406TIP3    H264710   0.811   6.219   0.777  1.4471  0.7698 -0.5179
14407TIP3   OH264711   6.432   4.636  17.095  0.3501  0.7653 -0.4749
14407TIP3    H164712   6.497   4.683  17.043  0.3619 -0.7772 -1.9348
14407TIP3    H264713   6.369   4.603  17.031 -0.2308 -0.2994  0.5978
14408TIP3   OH264714   4.728   1.463  11.959  0.3725  0.3064  0.5830
14408TIP3    H164715   4.665   1.409  12.007 -0.8636  0.5160 -0.7208
14408TIP3    H264716   4.675   1.532  11.919  1.3029  0.0996 -1.1129
14409TIP3   OH264717   2.653   1.992  12.593  0.1740 -0.1720  0.0645
14409TIP3    H164718   2.730   1.936  12.584  1.1701  1.2454 -0.6087
14409TIP3    H264719   2.583   1.933  12.621  1.0774 -1.8156 -0.9968
14410TIP3   OH264720   1.087   6.771   5.143 -0.1389 -0.2256 -0.1722
14410TIP3    H164721   1.151   6.742   5.208  1.1834  0.4805 -1.0833
14410TIP3    H264722   1.024   6.823   5.192 -0.2975 -1.3392  0.8336
14411TIP3   OH264723   3.607   2.974  12.351 -0.4191 -0.2822 -0.1670
14411TIP3    H164724   3.679   3.028  12.320 -0.4365 -0.5580 -0.6973
14411TIP3    H264725   3.567   2.939  12.271 -0.4297 -1.0419  0.1583
14412TIP3   OH264726   6.739   6.660   5.572 -0.4618 -0.2388 -0.0776
14412TIP3    H164727   6.764   6.752   5.569  1.9279 -0.7989  0.2498
14412TIP3    H264728   6.643   6.660   5.578 -0.5374  2.1823 -0.5261
14413TIP3   OH264729   5.910   2.312  14.415 -0.3942 -0.6202  0.2945
14413TIP3    H164730   5.879   2.363  14.490  0.8611  1.0035 -0.2324
14413TIP3    H264731   5.948   2.377  14.356  0.5011 -2.0933 -0.8120
14414TIP3   OH264732   4.707   5.099   0.912 -0.6635  0.4048  0.2840
14414TIP3    H164733   4.614   5.086   0.930 -1.2242  0.6163 -2.1083
14414TIP3    H264734   4.717   5.075   0.820  1.6222  0.6027  0.4168
14415TIP3   OH264735   2.059   0.604  11.740 -1.0120 -0.3488  0.1475
14415TIP3    H164736   2.006   0.529  11.714 -1.6934  0.1377  0.0918
14415TIP3    H264737   2.144   0.567  11.764 -1.0532 -1.0360 -0.7364
14416TIP3   OH264738   5.028   4.868  13.367  0.5163  0.3132  0.0067
14416TIP3    H164739   4.960   4.884  13.433 -0.2562  1.2391 -0.9871
14416TIP3    H264740   5.032   4.948  13.316  0.3049 -0.7635 -1.7846
14417TIP3   OH264741   5.264   3.727   1.458  0.3278 -0.2856  0.2319
14417TIP3    H164742   5.355   3.713   1.435  0.4874  2.7359 -1.4124
14417TIP3    H264743   5.260   3.818   1.487 -2.1067 -0.4282  0.5559
14418TIP3   OH264744   5.449   5.247   2.530  0.0034  0.2370 -0.3225
14418TIP3    H164745   5.482   5.287   2.611  1.1226 -1.5295  0.1469
14418TIP3    H264746   5.388   5.179   2.560  1.3157 -1.2263 -0.8724
14419TIP3   OH264747   6.471   1.057   5.543 -0.2806  0.0875 -0.3231
14419TIP3    H164748   6.502   1.092   5.627 -1.9603  0.5896  0.1150
14419TIP3    H264749   6.378   1.041   5.556 -0.7468  0.8727 -2.3274
14420TIP3   OH264750   1.216   6.137  15.057 -0.2056 -0.2655 -0.3375
14420TIP3    H164751   1.283   6.187  15.103  0.3982 -0.4402 -1.0105
14420TIP3    H264752   1.134   6.183  15.077  0.3781  1.2843 -1.2831
14421TIP3   OH264753   4.198   3.943   1.382 -0.5165 -0.2835  0.5587
14421TIP3    H164754   4.141   3.967   1.309 -2.0593 -2.2289  1.0327
14421TIP3    H264755   4.138   3.920   1.453  0.9157 -0.3928  1.7874
14422TIP3   OH264756   4.129   0.557   5.318 -0.6273 -0.3359  0.1247
14422TIP3    H164757   4.144   0.651   5.331  0.1351 -0.3489 -0.6114
14422TIP3    H264758   4.202   0.515   5.363 -0.2731 -0.5264 -0.6186
14423TIP3   OH264759   4.768   3.122  16.580 -0.1892 -0.5509  0.2234
14423TIP3    H164760   4.738   3.092  16.494 -0.2863  0.7529 -0.2207
14423TIP3    H264761   4.862   3.104  16.580 -0.3136 -1.2231  0.1378
14424TIP3   OH264762   3.118   4.772   0.054 -0.4977 -0.1566  0.2907
14424TIP3    H164763   3.055   4.721   0.002  0.0976 -0.9688  0.3378
14424TIP3    H264764   3.162   4.828  -0.010 -1.3967  0.5583  0.2892
14425TIP3   OH264765   5.771   2.834  11.840  0.3661 -0.3556 -0.3806
14425TIP3    H164766   5.733   2.865  11.757  1.9471  0.1116 -0.9620
14425TIP3    H264767   5.698   2.835  11.901 -0.6610  0.0810 -1.5664
14426TIP3   OH264768   2.256   0.147  10.327  0.4513  0.5090 -0.2891
14426TIP3    H164769   2.172   0.155  10.374  0.5545 -3.1276  0.8619
14426TIP3    H264770   2.252   0.214  10.260 -2.4433  1.9254  1.0910
14427TIP3   OH264771   5.829   2.692   2.215  0.7653 -0.1692  0.8026
14427TIP3    H164772   5.884   2.626   2.172  0.6418  0.0387  0.3183
14427TIP3    H264773   5.779   2.731   2.143  0.2715 -0.0889  1.1932
14428TIP3   OH264774   5.449   1.853  12.738 -0.8493  0.2650  0.3804
14428TIP3    H164775   5.456   1.901  12.656 -1.6681  0.0877  0.1972
14428TIP3    H264776   5.455   1.761  12.712 -0.3968  0.2301  0.6027
14429TIP3   OH264777   0.667   6.180   2.331 -0.0525 -0.0045 -0.4302
14429TIP3    H164778   0.689   6.266   2.297 -0.6044 -0.3977 -1.8872
14429TIP3    H264779   0.710   6.119   2.271  2.4412 -0.8254  1.9838
14430TIP3   OH264780   4.404   4.850  12.225  0.5206  0.3781  0.6811
14430TIP3    H164781   4.496   4.847  12.251  1.0183 -1.0460 -1.0314
14430TIP3    H264782   4.380   4.758  12.213 -1.1388  0.7366  1.0636
14431TIP3   OH264783   6.317   3.211  11.796 -0.0684  0.3045  0.2320
14431TIP3    H164784   6.340   3.217  11.889 -1.4728 -2.2720  0.8545
14431TIP3    H264785   6.372   3.276  11.753  1.8156  0.4666  2.6568
14432TIP3   OH264786   5.333   3.815   6.186 -0.1231 -0.2768  0.1317
14432TIP3    H164787   5.368   3.822   6.274 -1.0838 -2.7502  0.8014
14432TIP3    H264788   5.266   3.882   6.181 -1.8790 -1.7446  2.2765
14433TIP3   OH264789   3.940   1.631   1.333  0.3297 -0.3432  0.1716
14433TIP3    H164790   4.003   1.563   1.356  1.6102  0.9469  0.5733
14433TIP3    H264791   3.992   1.699   1.290 -0.8516  0.5898  0.1709
14434TIP3   OH264792   4.887   1.820  10.792 -0.3746 -0.4330 -0.4739
14434TIP3    H164793   4.947   1.890  10.765 -1.0572  0.4609  0.2487
14434TIP3    H264794   4.816   1.866  10.837 -0.9778 -1.5790 -0.2234
14435TIP3   OH264795   3.566   4.030   1.778  0.4445  0.4186  0.1051
14435TIP3    H164796   3.500   3.999   1.840  1.3432 -1.0047  0.4219
14435TIP3    H264797   3.571   4.124   1.792 -1.7659  0.6415 -0.2102
14436TIP3   OH264798   0.508   3.766  14.878 -0.1412  0.0191  0.4460
14436TIP3    H164799   0.442   3.701  14.855  0.3400  0.0016 -0.9891
14436TIP3    H264800   0.484   3.844  14.828  1.2076 -0.1577 -0.5312
14437TIP3   OH264801   0.344   0.808   3.272  0.1634 -0.7251 -0.1193
14437TIP3    H164802   0.393   0.890   3.263 -0.6556 -0.2610 -0.5436
14437TIP3    H264803   0.399   0.742   3.230  0.4926 -0.2375 -0.4710
14438TIP3   OH264804   3.005   2.940   5.463 -0.1279  0.0582  0.1555
14438TIP3    H164805   3.075   2.897   5.513  0.9248 -0.0174 -1.3130
14438TIP3    H264806   2.974   3.009   5.520  2.1748  1.0520  0.3191
14439TIP3   OH264807   1.750   6.265   3.139  0.2767 -0.4514  0.0457
14439TIP3    H164808   1.662   6.268   3.103 -0.1067  0.8561  1.0091
14439TIP3    H264809   1.779   6.175   3.126 -0.9322 -0.7293 -0.8817
14440TIP3   OH264810   1.754   2.882   0.339 -0.4694  0.4043  0.3374
14440TIP3    H164811   1.681   2.903   0.280 -0.0882  0.1707 -0.2336
14440TIP3    H264812   1.830   2.924   0.298  0.0455 -0.8670 -0.0680
14441TIP3   OH264813   1.271   0.601   4.810 -0.2492 -0.1711 -0.1940
14441TIP3    H164814   1.192   0.563   4.849  0.2316 -0.6793  0.3005
14441TIP3    H264815   1.238   0.659   4.741 -1.1224  0.6810  0.8928
14442TIP3   OH264816   0.312   4.592  10.710 -0.0474 -0.4926  0.2271
14442TIP3    H164817   0.258   4.516  10.732  0.5316 -1.2091 -0.7284
14442TIP3    H264818   0.393   4.555  10.677  0.6044  0.5653  0.6051
14443TIP3   OH264819   6.652   1.505   0.157  0.0786 -0.8310 -0.3088
14443TIP3    H164820   6.673   1.594   0.185 -2.0818 -1.3729  3.7934
14443TIP3    H264821   6.624   1.514   0.066  0.7374  2.5249 -0.2981
14444TIP3   OH264822   3.894   6.305  11.162  0.3522 -0.3435 -0.2832
14444TIP3    H164823   3.811   6.337  11.127  0.3434 -0.5048 -0.4161
14444TIP3    H264824   3.915   6.229  11.106 -0.1883 -1.2516  0.7085
14445TIP3   OH264825   1.551   3.118   2.471 -0.2403  0.1536  0.1394
14445TIP3    H164826   1.605   3.183   2.515 -0.9254  0.4512  0.5505
14445TIP3    H264827   1.471   3.112   2.524 -0.5163 -0.4452 -0.3254
14446TIP3   OH264828   6.524   1.526  11.394 -0.2187  0.1105 -0.2143
14446TIP3    H164829   6.584   1.514  11.321  2.3257  0.2773  1.7056
14446TIP3    H264830   6.502   1.438  11.423  0.0648  0.0398 -0.2128
14447TIP3   OH264831   6.563   3.594   3.639  0.2853 -0.6431 -0.1286
14447TIP3    H164832   6.538   3.597   3.732 -0.4797 -1.5704 -0.3021
14447TIP3    H264833   6.628   3.524   3.634  0.2977 -0.6187 -0.3031
14448TIP3   OH264834   2.916   1.872  16.641  0.4503  0.5776  0.0041
14448TIP3    H164835   2.899   1.786  16.680 -1.3413  0.0935 -1.6291
14448TIP3    H264836   2.942   1.927  16.714  0.4857 -1.0643  1.2969
14449TIP3   OH264837   5.181   6.797  16.083 -0.5667  0.4747  0.0253
14449TIP3    H164838   5.254   6.768  16.028 -1.1630  0.1225 -0.6048
14449TIP3    H264839   5.222   6.841  16.157  0.2744  0.5610 -0.4794
14450TIP3   OH264840   3.728   0.510   3.578 -0.3644 -0.5491  0.3337
14450TIP3    H164841   3.813   0.473   3.600 -0.9915 -1.9078  0.6222
14450TIP3    H264842   3.671   0.433   3.566 -1.3815  0.3035 -0.5198
14451TIP3   OH264843   5.474   2.664  10.339  0.7447 -0.0208  0.1420
14451TIP3    H164844   5.501   2.581  10.299  1.3478  0.5374 -0.6291
14451TIP3    H264845   5.554   2.715  10.344  0.6790 -0.0358  2.0325
14452TIP3   OH264846   5.812   5.672   0.227  0.2186  0.2434  0.0617
14452TIP3    H164847   5.905   5.654   0.236 -0.1486 -0.9979  1.7636
14452TIP3    H264848   5.805   5.719   0.144  1.9094 -2.9599 -2.1102
14453TIP3   OH264849   0.206   5.916  13.292  0.6450 -0.1385 -0.2342
14453TIP3    H164850   0.219   6.010  13.309 -0.1697 -0.5670  3.6660
14453TIP3    H264851   0.178   5.912  13.200 -1.6410  3.7294  0.0524
14454TIP3   OH264852   1.652   0.944   0.313 -0.1868 -0.0235  0.0427
14454TIP3    H164853   1.739   0.914   0.338 -1.3594 -3.0585  0.8461
14454TIP3    H264854   1.605   0.957   0.395 -0.6156  1.3684 -0.3843
14455TIP3   OH264855   5.394   5.054  13.178  0.4266 -0.4481  0.0123
14455TIP3    H164856   5.472   5.108  13.189 -0.7737  1.1371  1.2527
14455TIP3    H264857   5.373   5.061  13.085 -0.4084  2.3794  0.3236
14456TIP3   OH264858   0.985   0.886   2.850 -0.1775 -0.4441  0.3416
14456TIP3    H164859   1.052   0.954   2.862 -0.1745 -0.4566  0.3981
14456TIP3    H264860   1.017   0.833   2.777 -1.0146  0.6185 -0.8170
14457TIP3   OH264861   3.710   0.729   3.413  0.2378 -0.8137 -0.4571
14457TIP3    H164862   3.651   0.746   3.486  0.8699 -1.1821  0.1538
14457TIP3    H264863   3.761   0.653   3.441  3.5504  1.5906  0.6508
14458TIP3   OH264864   0.738   2.040  13.050 -0.3784  0.1495  0.0317
14458TIP3    H164865   0.811   2.006  13.101 -0.6499  0.6854  0.7915
14458TIP3    H264866   0.713   1.968  12.992 -0.6523 -0.7921  1.2830
14459TIP3   OH264867   6.813   3.838  12.680  0.6833  0.1397  0.4483
14459TIP3    H164868   6.830   3.892  12.603 -0.1013  1.5895  1.2357
14459TIP3    H264869   6.720   3.851  12.698  0.6876 -0.7745  1.1947
14460TIP3   OH264870   0.448   1.697   3.413  0.2726  0.1558  0.0194
14460TIP3    H164871   0.489   1.780   3.391 -0.9923  1.0421  0.9047
14460TIP3    H264872   0.425   1.705   3.506 -0.7890 -0.7858 -0.1452
14461TIP3   OH264873   4.966   2.898   4.987 -0.4369 -0.0782  0.1262
14461TIP3    H164874   5.002   2.963   4.927 -1.6726 -0.6734 -1.2977
14461TIP3    H264875   4.910   2.948   5.046 -0.3313  0.3212 -0.1111
14462TIP3   OH264876   3.788   4.395  11.914 -0.2740 -0.3422  0.6808
14462TIP3    H164877   3.722   4.385  11.983 -0.2515 -2.1607  0.4977
14462TIP3    H264878   3.795   4.490  11.900 -2.3768 -0.0718  1.1591
14463TIP3   OH264879   4.246   5.200   3.140  0.0024  0.4727 -0.3806
14463TIP3    H164880   4.155   5.174   3.156 -0.1783  0.5131 -1.3263
14463TIP3    H264881   4.291   5.181   3.223 -1.2112  2.0405  0.7220
14464TIP3   OH264882   4.844   1.334   4.098  0.3561 -0.0941  0.3885
14464TIP3    H164883   4.846   1.253   4.149  1.6209 -0.8896 -0.8285
14464TIP3    H264884   4.884   1.399   4.156 -0.3772 -0.4043  1.2656
14465TIP3   OH264885   6.041   1.863   2.207 -0.5699 -0.1596 -0.2914
14465TIP3    H164886   5.988   1.804   2.154  0.5507 -0.5119 -1.0446
14465TIP3    H264887   6.062   1.936   2.148  0.2714 -0.3119 -0.1861
14466TIP3   OH264888   5.688   2.178  13.398 -0.0346  0.8237 -0.2460
14466TIP3    H164889   5.747   2.165  13.323  1.6816 -1.9059  1.3971
14466TIP3    H264890   5.600   2.170  13.361  0.7593 -2.3673 -1.7842
14467TIP3   OH264891   1.816   0.040  14.814 -0.3335 -0.0367 -0.0512
14467TIP3    H164892   1.809   0.085  14.730  0.0341 -1.2678 -0.7712
14467TIP3    H264893   1.845   0.108  14.876  0.1091  0.7256 -1.0669
14468TIP3   OH264894   0.639   2.678   4.326  0.1767  0.4033  0.0064
14468TIP3    H164895   0.620   2.621   4.252  1.0642  0.2592 -0.1215
14468TIP3    H264896   0.697   2.626   4.382 -1.9293 -0.2047  1.7658
14469TIP3   OH264897   6.218   5.176  16.933 -0.0452 -0.3266  0.0328
14469TIP3    H164898   6.144   5.126  16.900 -0.3150 -0.2401  0.5115
14469TIP3    H264899   6.180   5.240  16.993  0.2809  0.4868 -0.5932
14470TIP3   OH264900   0.413   0.335  16.865 -0.1467 -0.7945  0.5773
14470TIP3    H164901   0.406   0.285  16.946 -0.3034 -0.5926  0.6918
14470TIP3    H264902   0.437   0.271  16.799  0.6028 -0.8570  0.8999
14471TIP3   OH264903   5.695   3.933   0.541 -0.2893 -0.7399 -0.2808
14471TIP3    H164904   5.615   3.885   0.519  0.0269 -1.3568 -0.1260
14471TIP3    H264905   5.761   3.864   0.551 -0.0729 -0.3656  1.0356
14472TIP3   OH264906   5.951   1.626  12.397  0.1841  0.0227  0.3931
14472TIP3    H164907   5.916   1.669  12.320 -0.2980  2.1191  1.6992
14472TIP3    H264908   5.949   1.533  12.376 -1.0829  0.4526 -1.6303
14473TIP3   OH264909   1.115   5.468  16.302 -1.0426 -0.2053 -0.0170
14473TIP3    H164910   1.206   5.476  16.330 -0.6027  0.3983 -1.5207
14473TIP3    H264911   1.086   5.385  16.340 -0.3913  0.3528  1.8211
14474TIP3   OH264912   0.715   2.706   5.799 -0.0702 -0.4882  0.4174
14474TIP3    H164913   0.628   2.710   5.760 -0.7002 -1.2178  1.6842
14474TIP3    H264914   0.707   2.755   5.881  1.2574  1.1382 -0.3841
14475TIP3   OH264915   2.431   5.512   3.579 -0.0756  0.5511  0.6285
14475TIP3    H164916   2.404   5.423   3.602 -1.0044  0.5699 -0.3494
14475TIP3    H264917   2.366   5.569   3.620  0.4272  0.7823  1.1189
14476TIP3   OH264918   1.003   3.571  15.732  0.7910  0.3113  0.0678
14476TIP3    H164919   0.951   3.492  15.719 -1.5807  1.4939  1.6494
14476TIP3    H264920   1.060   3.549  15.806  0.4452 -0.0448  0.2344
14477TIP3   OH264921   3.099   0.273   1.820 -0.2172 -0.2168  0.5314
14477TIP3    H164922   3.038   0.341   1.846 -0.7507 -0.5225  0.1168
14477TIP3    H264923   3.071   0.195   1.869  2.0216  0.4510  3.0797
14478TIP3   OH264924   2.598   3.999   4.323 -0.5314  0.6844 -0.3993
14478TIP3    H164925   2.522   4.037   4.280 -2.5399  3.2282  4.6346
14478TIP3    H264926   2.668   4.063   4.309 -1.2001  1.5648  0.1673
14479TIP3   OH264927   1.659   4.308   2.438  0.1123  0.1608  0.3614
14479TIP3    H164928   1.609   4.303   2.356  0.0310 -0.8475  0.4517
14479TIP3    H264929   1.594   4.330   2.505 -0.1374 -0.6396  0.3970
14480TIP3   OH264930   2.272   6.333   1.732  0.2223  0.0650 -0.0806
14480TIP3    H164931   2.312   6.389   1.666 -1.9047  0.8172 -0.8112
14480TIP3    H264932   2.219   6.271   1.682  2.7494 -2.9378  0.6818
14481TIP3   OH264933   6.658   4.803   4.056  0.2884 -0.1388 -0.0160
14481TIP3    H164934   6.723   4.740   4.088  0.6836 -0.6164 -1.6853
14481TIP3    H264935   6.577   4.778   4.102  1.0291 -0.1485  1.3551
14482TIP3   OH264936   2.698   1.852  15.924  0.2397  0.4342 -0.0918
14482TIP3    H164937   2.721   1.822  15.836  1.3901 -1.9488  0.9555
14482TIP3    H264938   2.603   1.865  15.921  0.3205  0.8550 -1.7858
14483TIP3   OH264939   1.543   5.220  15.156  0.0444 -0.1747  0.4788
14483TIP3    H164940   1.520   5.284  15.223  1.3945 -0.3603  1.1544
14483TIP3    H264941   1.636   5.235  15.139  0.1017 -1.1859 -0.1965
14484TIP3   OH264942   5.933   3.024  14.934 -0.0896 -0.7960 -0.0738
14484TIP3    H164943   5.965   2.957  14.874  0.0879 -0.9137  0.1495
14484TIP3    H264944   5.973   3.002  15.018  0.8052  0.1930 -0.2177
14485TIP3   OH264945   4.521   2.495  15.293 -0.0001 -0.6103 -0.1849
14485TIP3    H164946   4.460   2.527  15.227 -1.0138 -1.1708  0.4488
14485TIP3    H264947   4.493   2.405  15.309  0.0130 -0.3765  1.2507
14486TIP3   OH264948   0.624   6.467  16.765 -0.2037  0.4583  0.4767
14486TIP3    H164949   0.679   6.538  16.733  1.0895 -0.5347  0.4426
14486TIP3    H264950   0.628   6.476  16.861  0.2479  0.2223  0.4819
14487TIP3   OH264951   4.927   5.069   2.117 -0.2844 -0.0464  0.5443
14487TIP3    H164952   4.920   4.987   2.068  0.1405 -0.0152  0.4197
14487TIP3    H264953   5.000   5.054   2.177 -0.1468  0.2720  0.4585
14488TIP3   OH264954   2.276   2.916   3.875 -0.2709 -0.2594  0.2204
14488TIP3    H164955   2.312   2.916   3.964  1.1567 -0.3844 -0.3479
14488TIP3    H264956   2.339   2.866   3.823 -1.3079 -0.5540 -0.7893
14489TIP3   OH264957   5.319   5.003  12.558 -0.4983  0.0407  0.4063
14489TIP3    H164958   5.269   4.981  12.479  1.2245 -0.0428 -0.7187
14489TIP3    H264959   5.370   4.924  12.577  0.3660  0.6216  0.5727
14490TIP3   OH264960   5.110   2.154  14.188  0.3256  0.3276  0.0794
14490TIP3    H164961   5.148   2.241  14.178  0.1507  0.6607  1.9487
14490TIP3    H264962   5.090   2.126  14.099  0.8838  1.9638 -0.5980
14491TIP3   OH264963   1.250   0.321   0.596 -0.5721  0.7464  0.6093
14491TIP3    H164964   1.331   0.270   0.596 -1.7602 -1.2273  1.4895
14491TIP3    H264965   1.249   0.363   0.510  1.2934  0.6971  0.5175
14492TIP3   OH264966   1.469   5.240   2.365  0.3915 -0.2959  0.6843
14492TIP3    H164967   1.453   5.146   2.372 -0.3275 -0.1071  1.6605
14492TIP3    H264968   1.559   5.251   2.396  1.4547 -0.9463 -1.8294
14493TIP3   OH264969   6.340   4.875   0.391 -0.4670 -0.8132  0.0496
14493TIP3    H164970   6.266   4.826   0.355 -0.6849  0.4862 -1.3941
14493TIP3    H264971   6.407   4.868   0.322 -0.2986  0.3942  0.0774
14494TIP3   OH264972   0.201   0.251   1.848  0.0822  0.3695  0.0854
14494TIP3    H164973   0.166   0.329   1.892 -0.2672 -0.0962  0.6526
14494TIP3    H264974   0.128   0.190   1.846  0.8069 -0.5959  1.2153
14495TIP3   OH264975   6.339   5.499   2.680  0.4709  0.5463  0.2776
14495TIP3    H164976   6.395   5.575   2.665  0.3786  0.6948  0.6504
14495TIP3    H264977   6.358   5.473   2.770  1.0740 -0.3636 -0.0969
14496TIP3   OH264978   3.216   6.321  10.739 -0.1265  0.1645 -0.4858
14496TIP3    H164979   3.293   6.264  10.743  0.0898  0.2683 -2.4440
14496TIP3    H264980   3.189   6.331  10.831  1.9396 -0.1920  0.2101
14497TIP3   OH264981   3.805   4.819  16.065  0.8094 -0.1861 -0.1388
14497TIP3    H164982   3.798   4.849  15.974 -0.3654 -1.4501 -0.5151
14497TIP3    H264983   3.869   4.747  16.061  0.8562 -0.1536  0.0531
14498TIP3   OH264984   3.082   6.020  15.268 -0.1572 -0.1212 -0.8714
14498TIP3    H164985   3.048   6.078  15.337 -1.2831 -1.9973  0.2315
14498TIP3    H264986   3.134   5.955  15.316  1.1612 -0.0235 -2.0979
14499TIP3   OH264987   2.353   0.780  16.939 -0.1187 -0.1000 -0.3142
14499TIP3    H164988   2.435   0.748  16.900  0.8941  4.5793 -2.6546
14499TIP3    H264989   2.284   0.733  16.891  1.1236 -1.9729 -0.3794
14500TIP3   OH264990   6.351   0.007  11.889 -0.1108  0.7474 -0.0427
14500TIP3    H164991   6.342   0.084  11.946 -0.9376  0.9726 -0.4689
14500TIP3    H264992   6.273   0.008  11.835 -0.3795 -0.6806  0.2800
14501TIP3   OH264993   6.496   0.084  13.568  0.2366  0.0986 -0.5944
14501TIP3    H164994   6.558   0.095  13.496  0.3521  1.7397 -0.2988
14501TIP3    H264995   6.481   0.173  13.599  1.0526 -0.6238  2.1410
14502TIP3   OH264996   1.636   4.047  13.627  0.1452 -0.0052 -0.4683
14502TIP3    H164997   1.707   4.025  13.688  0.1313  0.6996 -0.1951
14502TIP3    H264998   1.680   4.079  13.549  0.1513 -0.5246 -0.6816
14503TIP3   OH264999   6.612   2.290   1.317  0.5586 -0.4596  0.1389
14503TIP3    H165000   6.681   2.223   1.319  1.7298  0.6985  0.0699
14503TIP3    H265001   6.581   2.290   1.227 -0.3621 -1.7667  0.4241
14504TIP3   OH265002   1.238   1.873  12.837  0.1958 -0.0902  0.4957
14504TIP3    H165003   1.329   1.902  12.830  0.2214  0.0282  1.2088
14504TIP3    H265004   1.229   1.805  12.770  0.0964  1.6176 -1.2865
14505TIP3   OH265005   6.771   4.946  12.288  0.0756 -0.4491  0.0688
14505TIP3    H165006   6.824   4.875  12.325  0.5171  0.5969  1.5290
14505TIP3    H265007   6.812   5.026  12.320  0.7214  0.5865 -3.0938
14506TIP3   OH265008   4.283   5.257   1.371 -0.1948 -0.3926  0.1502
14506TIP3    H165009   4.232   5.227   1.296 -3.5822  1.0792  1.6794
14506TIP3    H265010   4.276   5.185   1.434 -3.9386  1.2271  1.8385
14507TIP3   OH265011   2.784   6.475  10.725 -0.5473  0.0244  0.3408
14507TIP3    H165012   2.798   6.417  10.649 -1.0435 -1.8842  1.6309
14507TIP3    H265013   2.750   6.556  10.687 -0.7253 -0.8540 -1.4880
14508TIP3   OH265014   5.637   0.756  11.714  0.4984  0.3206  0.0663
14508TIP3    H165015   5.568   0.691  11.701 -0.4206  1.1563  0.5792
14508TIP3    H265016   5.628   0.816  11.640  1.1866 -0.0041 -0.2815
14509TIP3   OH265017   2.217   5.298  14.517  0.2318  0.1804 -0.0593
14509TIP3    H165018   2.277   5.370  14.537 -0.3276  0.4434  0.7607
14509TIP3    H265019   2.177   5.323  14.433 -0.9372  1.5231  0.8527
14510TIP3   OH265020   1.633   4.048  11.586 -0.8321  0.1478  0.1012
14510TIP3    H165021   1.613   3.986  11.516  0.5946  0.5170 -0.6806
14510TIP3    H265022   1.549   4.064  11.629 -1.3419 -1.8565 -0.0485
14511TIP3   OH265023   2.549   1.891   0.539  0.3080  0.1420 -0.1347
14511TIP3    H165024   2.577   1.946   0.466  3.4688  0.3048  1.0200
14511TIP3    H265025   2.548   1.950   0.614  0.8229 -0.7373  0.5864
14512TIP3   OH265026   3.914   5.473   1.280 -0.3654  0.2730  0.7723
14512TIP3    H165027   3.958   5.484   1.365 -0.0890 -0.6639  0.7600
14512TIP3    H265028   3.879   5.560   1.260 -0.4051  0.5129  1.8293
14513TIP3   OH265029   0.584   0.130  12.820 -0.7673 -0.6261 -0.0198
14513TIP3    H165030   0.636   0.161  12.745 -1.6577  0.6240 -0.1668
14513TIP3    H265031   0.637   0.152  12.896 -0.5813 -0.3838 -0.2150
14514TIP3   OH265032   2.738   1.585  16.692  0.2477  0.4761 -0.5751
14514TIP3    H165033   2.760   1.555  16.603 -0.6114 -1.4764 -0.1700
14514TIP3    H265034   2.672   1.523  16.722 -0.5452  1.9834  0.9045
14515TIP3   OH265035   4.866   1.048   4.157  0.0332  0.0259  0.2229
14515TIP3    H165036   4.912   1.082   4.234  0.6009  0.4040 -0.2700
14515TIP3    H265037   4.881   0.953   4.160 -0.2720 -0.0111  0.7769
14516TIP3   OH265038   5.585   1.442   1.170  0.1095  0.1005  0.0172
14516TIP3    H165039   5.533   1.520   1.192 -0.9739 -0.7418  0.5889
14516TIP3    H265040   5.635   1.467   1.092 -1.4740  0.8541 -0.8214
14517TIP3   OH265041   1.471   2.267   5.053  0.0190 -0.0400  0.2261
14517TIP3    H165042   1.487   2.193   4.994  0.9333 -1.2524  1.9112
14517TIP3    H265043   1.455   2.341   4.995  0.9131 -1.1725 -1.5347
14518TIP3   OH265044   1.037   0.517   4.614 -0.3627  0.5128  0.1577
14518TIP3    H165045   1.062   0.497   4.704 -0.8010  3.2268  0.9897
14518TIP3    H265046   1.083   0.599   4.594  0.1034 -0.2554 -2.3043
14519TIP3   OH265047   3.969   6.479  14.758 -0.2479  0.1193  0.0466
14519TIP3    H165048   3.922   6.412  14.808 -0.9900  1.6691  1.5582
14519TIP3    H265049   3.912   6.498  14.683 -2.0244  1.7198  1.6667
14520TIP3   OH265050   3.088   0.040   0.187  0.7494  0.5553  0.0257
14520TIP3    H165051   3.050   0.116   0.143  0.5799  0.5811  0.2170
14520TIP3    H265052   3.180   0.063   0.199  1.0389  0.1278 -1.2540
14521TIP3   OH265053   3.371   4.852   4.329  0.4419  0.5796 -0.1237
14521TIP3    H165054   3.444   4.797   4.302 -0.0691 -0.1891  0.0357
14521TIP3    H265055   3.355   4.827   4.420  0.3832  1.1989  0.0410
14522TIP3   OH265056   6.268   6.139   3.914 -0.4595 -0.1657 -0.1570
14522TIP3    H165057   6.284   6.073   3.982  1.6867  0.4766  0.0444
14522TIP3    H265058   6.311   6.104   3.836 -2.5153 -0.6817 -1.1378
14523TIP3   OH265059   6.414   5.286   4.271 -0.0596  0.0737  1.2963
14523TIP3    H165060   6.372   5.252   4.350  1.5701 -1.9320  1.3881
14523TIP3    H265061   6.478   5.351   4.303  0.2185 -0.3411  1.5897
14524TIP3   OH265062   6.060   5.393  15.327  0.5709  0.2202 -0.3874
14524TIP3    H165063   6.017   5.352  15.402 -1.1053  2.4241 -0.0464
14524TIP3    H265064   6.133   5.335  15.307  0.2336 -1.1922  2.0443
14525TIP3   OH265065   2.118   1.919  14.184  0.2349 -0.8380 -0.3663
14525TIP3    H165066   2.053   1.974  14.141  1.0097 -0.3301 -0.9227
14525TIP3    H265067   2.106   1.832  14.146 -0.1821 -0.7669 -0.3934
14526TIP3   OH265068   2.495   0.263   2.682  0.4127  0.6051 -0.5977
14526TIP3    H165069   2.514   0.297   2.595  2.1452  0.6042 -0.2715
14526TIP3    H265070   2.428   0.322   2.717 -0.4501  0.4778 -1.9780
14527TIP3   OH265071   6.347   0.931   0.409 -0.3114  0.0347 -0.3801
14527TIP3    H165072   6.415   0.936   0.342  0.8195 -1.6142  0.5979
14527TIP3    H265073   6.278   0.878   0.369 -0.0610 -0.1264 -0.6005
14528TIP3   OH265074   5.378   4.987   1.350  0.0842  0.1722  0.2281
14528TIP3    H165075   5.420   4.976   1.436  0.3059 -1.2666 -0.0409
14528TIP3    H265076   5.422   5.062   1.311  0.7486  0.1615  0.9331
14529TIP3   OH265077   1.489   0.610  15.045  0.1552  0.5780 -0.4087
14529TIP3    H165078   1.396   0.589  15.036 -0.2235  0.5748  2.5182
14529TIP3    H265079   1.493   0.704  15.027 -0.4584  0.6157 -0.3976
14530TIP3   OH265080   0.676   5.278  15.135  0.3307 -0.3161 -0.3516
14530TIP3    H165081   0.625   5.257  15.214  0.0572 -2.2697 -0.9912
14530TIP3    H265082   0.757   5.227  15.145  0.2200 -0.7197 -1.3984
14531TIP3   OH265083   6.624   3.516   4.170  0.5806  0.3916 -0.3536
14531TIP3    H165084   6.678   3.576   4.119  0.6503  0.9254  0.3313
14531TIP3    H265085   6.681   3.487   4.242  0.3079  0.0982 -0.2501
14532TIP3   OH265086   1.319   3.972   0.221  0.3054 -0.5483  0.1985
14532TIP3    H165087   1.318   4.068   0.220 -0.3383 -0.5353  1.3701
14532TIP3    H265088   1.253   3.947   0.285 -0.6400 -1.8206 -1.1803
14533TIP3   OH265089   3.636   1.105  11.925 -0.1811 -0.2404  0.5004
14533TIP3    H165090   3.634   1.150  11.841  0.2095 -0.8792  0.1322
14533TIP3    H265091   3.553   1.126  11.967 -1.0260 -1.1012 -0.6845
14534TIP3   OH265092   3.111   6.120  12.057  0.3030 -0.6510  0.0991
14534TIP3    H165093   3.080   6.210  12.054  2.0640 -0.0265 -1.7240
14534TIP3    H265094   3.163   6.115  12.137 -0.4590 -0.3161  0.6283
14535TIP3   OH265095   2.163   4.702  16.016  0.4019  0.0617 -0.0327
14535TIP3    H165096   2.194   4.736  15.932  0.3105  0.2970  0.0259
14535TIP3    H265097   2.146   4.781  16.068 -0.7357 -0.0374 -0.2257
14536TIP3   OH265098   5.017   3.358  11.596 -0.5164 -0.2034  0.2411
14536TIP3    H165099   4.936   3.324  11.558 -1.0982  0.5634  0.7573
14536TIP3    H265100   4.999   3.451  11.610  1.1716  0.4470 -1.5221
14537TIP3   OH265101   2.280   1.712  14.012 -0.3472  0.0872  0.3578
14537TIP3    H165102   2.316   1.749  13.932 -0.6120 -1.1097 -0.3515
14537TIP3    H265103   2.185   1.718  14.001 -0.3906  1.0422  1.1451
14538TIP3   OH265104   2.673   3.226   3.320 -0.1054 -0.1757 -0.6284
14538TIP3    H165105   2.745   3.172   3.355  0.5116  0.9275 -0.1511
14538TIP3    H265106   2.714   3.309   3.297 -1.5203  1.2522  1.5540
14539TIP3   OH265107   0.276   6.512   3.706  0.0470 -0.0729 -0.4770
14539TIP3    H165108   0.212   6.449   3.674  0.1198 -0.3657 -0.0506
14539TIP3    H265109   0.225   6.570   3.764  0.0982 -0.0977 -0.4075
14540TIP3   OH265110   5.085   6.025  13.915 -0.1182 -0.4803  0.5774
14540TIP3    H165111   5.112   6.060  13.830 -0.8711  0.2373  0.6246
14540TIP3    H265112   5.167   6.000  13.958  0.2139 -1.8979 -0.7834
14541TIP3   OH265113   1.807   5.552   0.000 -0.8596 -0.3909  0.0075
14541TIP3    H165114   1.795   5.609   0.075 -4.0358 -0.1326 -0.5557
14541TIP3    H265115   1.860   5.479   0.034  1.8820  1.9623  1.1479
14542TIP3   OH265116   0.784   2.726  12.185 -0.4286  0.0326 -0.1880
14542TIP3    H165117   0.855   2.788  12.166  0.2242 -0.1163  1.6351
14542TIP3    H265118   0.705   2.771  12.153  0.1901  1.2311 -0.1038
14543TIP3   OH265119   1.626   5.765   4.692  0.6740  0.1424 -0.8930
14543TIP3    H165120   1.662   5.751   4.780 -3.9954  0.2836  1.3203
14543TIP3    H265121   1.598   5.857   4.693 -1.1536 -0.3713 -1.7404
14544TIP3   OH265122   5.978   0.566  13.753  0.3808 -0.2060 -0.1960
14544TIP3    H165123   5.965   0.626  13.680  0.3104 -0.2511 -0.2213
14544TIP3    H265124   5.985   0.622  13.830  0.5739 -0.1508 -0.2520
14545TIP3   OH265125   1.415   4.201  13.716 -0.1713  0.3102  0.4802
14545TIP3    H165126   1.475   4.127  13.705  0.4718  0.7953  0.6562
14545TIP3    H265127   1.348   4.169  13.776 -0.3068 -0.3666 -0.0289
14546TIP3   OH265128   6.609   3.411   5.247 -0.1157  0.1467 -0.0914
14546TIP3    H165129   6.561   3.493   5.240  1.7345  1.1176 -2.7515
14546TIP3    H265130   6.675   3.415   5.179 -1.3095 -4.5410 -1.9295
14547TIP3   OH265131   3.945   4.665  17.058 -0.1197 -0.1485  0.2615
14547TIP3    H165132   3.989   4.603  17.116 -0.0364 -1.4074 -1.0907
14547TIP3    H265133   3.882   4.612  17.009 -1.0328  1.0873  0.0433
14548TIP3   OH265134   4.757   1.329  12.861 -0.3232 -0.3087  0.2034
14548TIP3    H165135   4.843   1.362  12.884 -0.8578  0.1265  1.6885
14548TIP3    H265136   4.773   1.265  12.792  1.5327 -2.4347  2.4255
14549TIP3   OH265137   5.598   2.427  11.926 -0.6895 -0.1621 -0.0001
14549TIP3    H165138   5.631   2.353  11.977  0.7338  1.2040  1.1564
14549TIP3    H265139   5.676   2.475  11.900 -1.6257  1.6044  0.3232
14550TIP3   OH265140   6.678   2.256   2.284  0.1010 -0.0776 -0.5205
14550TIP3    H165141   6.630   2.323   2.333  0.0373  0.9824 -1.9577
14550TIP3    H265142   6.716   2.199   2.351  0.7768  1.8297  0.7874
14551TIP3   OH265143   2.765   6.657  14.884 -0.1628  0.2135  0.0141
14551TIP3    H165144   2.838   6.602  14.913  0.5979 -0.3396 -2.6561
14551TIP3    H265145   2.806   6.732  14.842 -1.1981  1.8251  1.7542
14552TIP3   OH265146   2.740   0.971   0.328  0.3712  0.4582  0.7326
14552TIP3    H165147   2.763   0.958   0.420  1.8937 -2.0793  0.0964
14552TIP3    H265148   2.657   0.925   0.317  0.4081  0.3919  0.7342
14553TIP3   OH265149   6.756   6.317  11.769 -0.2366 -0.0369  0.3445
14553TIP3    H165150   6.665   6.292  11.781  0.3805 -1.5977  2.4180
14553TIP3    H265151   6.796   6.244  11.721 -0.1243  0.8100 -0.8987
14554TIP3   OH265152   4.592   1.880  14.562  0.1005 -0.4608  0.2456
14554TIP3    H165153   4.535   1.802  14.563 -0.9376  0.2775  1.3618
14554TIP3    H265154   4.644   1.872  14.642  0.1974 -0.1540  0.2135
14555TIP3   OH265155   5.315   0.319  15.501 -0.1060  0.0564 -0.4918
14555TIP3    H165156   5.331   0.229  15.470 -3.0224  0.0347 -2.2885
14555TIP3    H265157   5.230   0.314  15.545 -0.7619  2.0797 -1.4404
14556TIP3   OH265158   2.867   3.134  12.944  0.0075  0.3916  0.2252
14556TIP3    H165159   2.841   3.223  12.918  1.1166  0.3835 -1.0297
14556TIP3    H265160   2.960   3.143  12.968 -0.5364  0.0744  2.8074
14557TIP3   OH265161   5.745   4.182  13.242  0.0961 -0.4147 -0.0740
14557TIP3    H165162   5.795   4.103  13.227 -1.2044 -1.7467  2.1481
14557TIP3    H265163   5.654   4.158  13.222 -0.4740  0.1531  1.6219
14558TIP3   OH265164   0.337   0.090  15.724 -0.4103  0.2889  0.0776
14558TIP3    H165165   0.382   0.124  15.647  2.4722 -1.2640  0.9026
14558TIP3    H265166   0.284   0.018  15.692 -1.2342  1.2190 -0.7336
14559TIP3   OH265167   6.234   0.438  13.378 -0.1051  0.5022  0.2339
14559TIP3    H165168   6.245   0.345  13.360  0.7240  0.8118 -1.0711
14559TIP3    H265169   6.157   0.463  13.328 -0.6612  0.4101  1.0370
14560TIP3   OH265170   6.837   0.047   0.045  0.3464 -0.0660  0.3145
14560TIP3    H165171   6.922   0.022   0.082  0.0990 -1.8567 -0.2288
14560TIP3    H265172   6.808  -0.031  -0.002 -0.7701  1.1299 -1.0413
14561TIP3   OH265173   4.513   5.002  14.396 -0.7864  0.4045  0.0607
14561TIP3    H165174   4.475   5.027  14.481  0.3889 -1.1621  1.0853
14561TIP3    H265175   4.466   4.923  14.371 -0.7780  0.5789 -0.5301
14562TIP3   OH265176   2.882   3.578  15.945  0.4118  0.2154  0.3340
14562TIP3    H165177   2.800   3.622  15.923 -0.2214 -1.1159 -0.1041
14562TIP3    H265178   2.950   3.633  15.906 -0.3848  0.5032 -0.7155
14563TIP3   OH265179   3.310   4.383   2.567  0.1979 -0.0903  0.3285
14563TIP3    H165180   3.292   4.298   2.525  1.0336 -0.7137  1.1811
14563TIP3    H265181   3.252   4.384   2.643 -1.7353  1.2871 -1.0687
14564TIP3   OH265182   4.928   6.035   6.244 -0.5869 -0.1256 -0.0359
14564TIP3    H165183   4.998   6.031   6.309 -0.1882 -0.3062 -0.4686
14564TIP3    H265184   4.924   6.128   6.219  0.1281 -0.2550 -0.6739
14565TIP3   OH265185   2.816   4.826  11.961 -0.4216 -0.1714  0.0198
14565TIP3    H165186   2.736   4.878  11.958 -0.4304 -0.1910 -0.0712
14565TIP3    H265187   2.808   4.765  11.887 -0.1303  0.1024 -0.2373
14566TIP3   OH265188   3.818   0.085  15.687 -0.3806  0.0976 -0.2460
14566TIP3    H165189   3.767   0.018  15.641  0.1202  0.4106 -1.2745
14566TIP3    H265190   3.886   0.035  15.733  0.0862 -0.0964 -1.1301
14567TIP3   OH265191   1.191   1.022   1.004 -0.4062 -0.2423 -0.3259
14567TIP3    H165192   1.148   0.937   1.013  1.5219 -1.1393  0.9349
14567TIP3    H265193   1.132   1.082   1.051 -1.3461 -1.0266 -0.4638
14568TIP3   OH265194   6.108   3.235  14.682 -0.0243  0.5393 -0.0067
14568TIP3    H165195   6.030   3.207  14.633  0.2519 -1.9144  0.8649
14568TIP3    H265196   6.163   3.157  14.687  0.9334  1.2857  2.3798
14569TIP3   OH265197   1.182   3.977  11.969  0.4817 -0.4787  0.3631
14569TIP3    H165198   1.179   3.950  11.877 -0.1713 -0.8794  0.4935
14569TIP3    H265199   1.091   3.995  11.991  0.8413  1.4455  0.4150
14570TIP3   OH265200   2.591   4.705   5.160 -0.5842  0.4240 -0.7721
14570TIP3    H165201   2.555   4.722   5.247  1.3914  1.5415 -0.0973
14570TIP3    H265202   2.580   4.611   5.147 -0.9768  0.2452  0.6695
14571TIP3   OH265203   0.676   5.977  13.109  0.4037 -0.9595  0.1089
14571TIP3    H165204   0.680   5.888  13.143  2.6473 -0.9423  0.0254
14571TIP3    H265205   0.765   5.996  13.081 -0.5788  0.3075 -2.5215
14572TIP3   OH265206   2.326   1.906   2.928 -0.0645 -0.1047 -0.2069
14572TIP3    H165207   2.315   1.877   2.837  0.8987  0.0034 -0.3770
14572TIP3    H265208   2.301   1.830   2.980 -3.0042  0.5926 -0.4464
14573TIP3   OH265209   5.276   1.688  13.831  0.0986 -0.0619  0.3233
14573TIP3    H165210   5.341   1.619  13.823  0.5632  0.4029 -0.0301
14573TIP3    H265211   5.205   1.662  13.773  0.8074  0.3385 -0.7529
14574TIP3   OH265212   6.574   0.296   5.552  0.0881  0.0160  0.4161
14574TIP3    H165213   6.516   0.234   5.509  1.5728 -1.5040  0.5081
14574TIP3    H265214   6.563   0.279   5.646 -1.6015  1.9048  0.6354
14575TIP3   OH265215   5.054   5.383   2.196  0.1638 -0.4563  0.4839
14575TIP3    H165216   5.086   5.467   2.230  0.3982  0.0522 -0.9523
14575TIP3    H265217   5.065   5.323   2.269  0.8235  0.5639  1.2561
14576TIP3   OH265218   4.946   6.828   0.908  0.5083 -0.2303  0.0004
14576TIP3    H165219   4.911   6.757   0.854 -0.2414 -0.8785  1.2967
14576TIP3    H265220   5.033   6.843   0.873  0.6187 -1.6726 -0.4369
14577TIP3   OH265221   4.738   4.103   2.692  0.2836  0.6963 -0.5989
14577TIP3    H165222   4.726   4.036   2.759 -2.0544  1.2300 -0.3945
14577TIP3    H265223   4.747   4.185   2.740 -1.6003  1.1097 -0.8598
14578TIP3   OH265224   5.187   5.238  16.872 -0.3986  0.2593  0.0418
14578TIP3    H165225   5.182   5.287  16.955 -0.2199  0.1561  0.1127
14578TIP3    H265226   5.117   5.276  16.819 -2.1208 -1.2507  1.0843
14579TIP3   OH265227   4.805   2.511  16.017 -0.3902 -0.2850 -0.1840
14579TIP3    H165228   4.841   2.422  16.013  0.3391 -0.0491  0.9117
14579TIP3    H265229   4.734   2.505  16.081 -0.5356 -0.1326 -0.3298
14580TIP3   OH265230   2.662   4.687   0.548  0.0804 -0.1214  0.7107
14580TIP3    H165231   2.704   4.772   0.538  1.1155 -0.6633  0.2861
14580TIP3    H265232   2.570   4.707   0.563  0.6257  1.1619  2.8451
14581TIP3   OH265233   3.991   2.060   1.813 -0.3296  0.6052  0.5330
14581TIP3    H165234   4.015   2.048   1.905 -0.7098  0.7859  0.6602
14581TIP3    H265235   3.951   1.976   1.788 -0.3403  0.5992  0.5698
14582TIP3   OH265236   4.946   0.455  16.878 -0.2720  0.0092 -0.2716
14582TIP3    H165237   4.991   0.404  16.946 -0.8645  0.0177  0.1364
14582TIP3    H265238   5.011   0.464  16.808 -0.4777 -2.2406 -0.8439
14583TIP3   OH265239   6.215   2.360  10.900 -0.2304  0.3466 -0.2243
14583TIP3    H165240   6.275   2.285  10.901 -0.8699 -0.1948  1.1966
14583TIP3    H265241   6.151   2.339  10.833 -1.1434 -1.0318  1.0203
14584TIP3   OH265242   1.359   5.534  13.175  0.2268  0.2848 -0.2034
14584TIP3    H165243   1.347   5.509  13.266  1.6427 -1.9434 -0.5610
14584TIP3    H265244   1.280   5.503  13.130  1.1877 -2.1347 -0.3324
14585TIP3   OH265245   1.298   6.511   2.563 -0.5330  0.3948 -0.2946
14585TIP3    H165246   1.276   6.418   2.568 -0.3691  0.3656 -0.0880
14585TIP3    H265247   1.311   6.528   2.470  1.5100 -0.2764 -0.1770
14586TIP3   OH265248   1.236   1.389  12.083  0.0920  0.0363 -0.1023
14586TIP3    H165249   1.275   1.395  12.170 -0.7021  0.9428  0.2064
14586TIP3    H265250   1.182   1.309  12.086  0.6689 -0.3589 -0.0298
14587TIP3   OH265251   5.393   6.620   2.675 -0.9881  0.3686 -0.3783
14587TIP3    H165252   5.410   6.559   2.747  0.5395 -0.4708 -1.4028
14587TIP3    H265253   5.362   6.700   2.719 -3.9970 -1.3607  0.9541
14588TIP3   OH265254   2.427   2.066  15.823  0.4130 -0.3218 -0.2349
14588TIP3    H165255   2.456   2.104  15.906 -1.9483  1.7892 -0.2630
14588TIP3    H265256   2.350   2.014  15.844  1.1088 -1.6628 -0.8437
14589TIP3   OH265257   5.989   1.946  10.941  0.3659  1.0426 -0.0267
14589TIP3    H165258   5.981   1.988  10.855  0.0756 -0.1821 -0.6192
14589TIP3    H265259   6.063   1.886  10.932 -1.9701 -1.9948 -0.7313
14590TIP3   OH265260   1.374   6.490   5.788  0.4720  0.0454  0.3083
14590TIP3    H165261   1.284   6.506   5.817  0.2717 -0.3321 -0.0906
14590TIP3    H265262   1.403   6.416   5.842 -0.2533 -1.3377 -1.0936
14591TIP3   OH265263   2.972   6.006  16.462  0.2066 -0.3178 -0.4456
14591TIP3    H165264   2.972   6.055  16.379  0.6875  1.6392  0.6288
14591TIP3    H265265   2.889   6.029  16.503 -1.2934 -3.4307 -1.4728
14592TIP3   OH265266   2.682   6.717   4.156 -0.5527 -0.0492 -0.6280
14592TIP3    H165267   2.625   6.682   4.087  1.5113 -1.4029 -1.7572
14592TIP3    H265268   2.741   6.776   4.110  0.2774 -0.2599  0.1407
14593TIP3   OH265269   6.532   2.087  13.055  0.0544 -0.1963  0.3508
14593TIP3    H165270   6.464   2.105  13.120 -0.4625 -0.5601 -0.0807
14593TIP3    H265271   6.496   2.119  12.973 -0.3463 -1.9548 -0.2038
14594TIP3   OH265272   1.533   4.932   3.356 -0.1225  0.1880 -0.0506
14594TIP3    H165273   1.582   4.891   3.285 -0.8312 -1.9909  0.6346
14594TIP3    H265274   1.526   5.024   3.331  2.4527  0.1590 -1.1875
14595TIP3   OH265275   5.441   2.535  10.677  0.5199 -0.4571 -0.2877
14595TIP3    H165276   5.389   2.609  10.646  2.3323  1.3047  0.6735
14595TIP3    H265277   5.520   2.574  10.713  0.0710 -2.5275  3.5481
14596TIP3   OH265278   2.805   4.653  12.458 -0.2167 -0.2705  0.0474
14596TIP3    H165279   2.824   4.731  12.510  1.0645  0.2433 -1.1567
14596TIP3    H265280   2.864   4.658  12.383 -0.6120 -2.0344 -0.4349
14597TIP3   OH265281   0.725   5.809   0.100 -0.3154 -0.0042  0.3325
14597TIP3    H165282   0.814   5.800   0.066 -0.5005  0.2746 -0.2389
14597TIP3    H265283   0.736   5.851   0.185  0.2442 -1.7377  1.1823
14598TIP3   OH265284   5.813   2.250  15.442 -0.3682 -0.2124  0.9686
14598TIP3    H165285   5.855   2.329  15.410  0.7759 -1.2247 -0.1521
14598TIP3    H265286   5.884   2.186  15.448 -1.3609 -1.3277  1.2435
14599TIP3   OH265287   4.044   3.783   2.926  0.0944  0.0505  0.3836
14599TIP3    H165288   4.091   3.717   2.876  1.0308 -0.7526  2.2514
14599TIP3    H265289   4.092   3.864   2.910  1.4375 -0.5332  1.3214
14600TIP3   OH265290   6.314   3.220   3.590  0.1665 -0.1986  0.2845
14600TIP3    H165291   6.391   3.235   3.645  2.0007  0.0054 -2.1514
14600TIP3    H265292   6.314   3.126   3.574  2.0043  0.1327 -2.3504
14601TIP3   OH265293   5.070   5.906   1.345  0.2448  0.1637 -0.1187
14601TIP3    H165294   5.054   5.987   1.298  0.8564 -0.4193 -1.3609
14601TIP3    H265295   5.016   5.913   1.424  0.4801  1.8673 -0.0901
14602TIP3   OH265296   6.590   1.481  14.782 -0.0457  0.3240 -0.0403
14602TIP3    H165297   6.557   1.565  14.751  1.4155  0.9407  0.0020
14602TIP3    H265298   6.587   1.424  14.705 -0.3999  0.6093 -0.2401
14603TIP3   OH265299   2.234   3.018  16.796 -0.0036  0.1195 -0.5496
14603TIP3    H165300   2.183   3.004  16.876  0.0366  0.1616 -0.5175
14603TIP3    H265301   2.173   3.062  16.737 -0.2835 -0.6325 -0.8285
14604TIP3   OH265302   1.009   3.259  16.835 -0.0114  0.7996 -0.7003
14604TIP3    H165303   0.946   3.332  16.842 -0.9963 -0.1405  1.0466
14604TIP3    H265304   0.957   3.181  16.853  1.4012 -0.1448 -0.5524
14605TIP3   OH265305   2.357   1.557  13.762 -0.1075 -0.1511 -0.2017
14605TIP3    H165306   2.305   1.586  13.837  0.5923  0.1944  0.1661
14605TIP3    H265307   2.324   1.470  13.742  0.3407 -0.6565  1.1346
14606TIP3   OH265308   2.823   0.208  12.196  0.7837 -0.2814 -0.3815
14606TIP3    H165309   2.796   0.184  12.107  0.9678  0.4168 -0.6260
14606TIP3    H265310   2.748   0.185  12.250  1.0918 -1.7861 -0.5434
14607TIP3   OH265311   6.419   3.042  15.867  0.6916  0.3154 -0.1400
14607TIP3    H165312   6.447   3.041  15.958 -0.5187  1.7038  0.2865
14607TIP3    H265313   6.345   2.982  15.863 -0.2877  1.4590  0.1891
14608TIP3   OH265314   4.660   6.661  15.006 -0.8072 -0.2151  0.0045
14608TIP3    H165315   4.630   6.727  15.069  0.6605  0.8740 -0.3885
14608TIP3    H265316   4.749   6.641  15.032 -0.3803 -0.2010 -1.3514
14609TIP3   OH265317   5.210   5.528   2.501  0.2084 -0.1522  0.2393
14609TIP3    H165318   5.164   5.504   2.581 -0.6025  1.7369  0.4128
14609TIP3    H265319   5.147   5.582   2.453  0.4429 -1.7144 -1.9921
14610TIP3   OH265320   1.165   2.285  13.987  0.1848 -0.5589 -0.1441
14610TIP3    H165321   1.130   2.220  14.047  0.5407  0.0071  0.7032
14610TIP3    H265322   1.181   2.362  14.042  0.9091 -0.1647 -0.8829
14611TIP3   OH265323   4.065   0.069   5.154 -0.0981 -0.1169  0.1096
14611TIP3    H165324   4.092  -0.020   5.177 -0.7646 -0.1049  1.0158
14611TIP3    H265325   4.145   0.120   5.155  0.3504 -0.7709 -0.7837
14612TIP3   OH265326   6.321   3.285   3.315 -0.7119  0.0352  0.1804
14612TIP3    H165327   6.235   3.326   3.302 -0.7822  0.3217  1.4460
14612TIP3    H265328   6.323   3.263   3.408 -0.6812 -2.8604 -0.3888
14613TIP3   OH265329   1.399   0.151   4.862 -0.8115  0.1873 -0.2019
14613TIP3    H165330   1.307   0.125   4.870 -0.2514 -1.3575  2.7657
14613TIP3    H265331   1.448   0.071   4.882  1.0754  1.9038  2.9472
14614TIP3   OH265332   0.279   4.311   1.054 -0.0383  0.2465  0.1707
14614TIP3    H165333   0.263   4.357   1.136 -1.2293 -0.1546  0.1726
14614TIP3    H265334   0.361   4.349   1.021 -0.5416  1.7480  0.5961
14615TIP3   OH265335   4.290   0.922  16.129 -0.4923  0.3633 -0.2828
14615TIP3    H165336   4.361   0.950  16.186 -1.6185  0.2425  1.2280
14615TIP3    H265337   4.334   0.891  16.049  1.4632 -2.7463  1.7788
14616TIP3   OH265338   3.753   2.750  14.367  0.1584  0.3178  0.1032
14616TIP3    H165339   3.662   2.779  14.359 -0.3464 -1.3309 -0.5847
14616TIP3    H265340   3.747   2.659  14.395  1.5719 -0.0894 -0.7871
14617TIP3   OH265341   4.127   1.551   5.749  0.1793 -0.0361 -0.3769
14617TIP3    H165342   4.211   1.586   5.781 -0.1789 -0.6697  1.3395
14617TIP3    H265343   4.127   1.460   5.778 -0.8039 -0.2427 -1.0047
14618TIP3   OH265344   2.252   3.250   5.197 -0.3801  0.1926  0.1224
14618TIP3    H165345   2.340   3.271   5.227 -0.6504  1.1504  0.2897
14618TIP3    H265346   2.264   3.207   5.113  0.2171  0.8583 -0.1376
14619TIP3   OH265347   0.354   4.470   4.464  0.3861  0.4964  0.2828
14619TIP3    H165348   0.417   4.501   4.529  1.2958 -0.2251 -0.2339
14619TIP3    H265349   0.387   4.384   4.438 -0.5476  0.3202 -0.3599
14620TIP3   OH265350   3.583   3.094  15.775 -0.1060 -0.6800 -0.3370
14620TIP3    H165351   3.504   3.121  15.821 -0.2810 -3.4472  1.2058
14620TIP3    H265352   3.552   3.034  15.707  0.5101 -0.0461 -1.1962
14621TIP3   OH265353   3.837   1.166   4.228  0.5815 -0.8952  0.3674
14621TIP3    H165354   3.762   1.142   4.175 -0.3469  0.5758  0.9552
14621TIP3    H265355   3.902   1.098   4.211 -0.1350 -1.1126 -1.6860
14622TIP3   OH265356   4.366   5.223   5.189  0.1365 -0.0289 -0.0037
14622TIP3    H165357   4.421   5.247   5.264  1.0208 -0.2023 -0.5827
14622TIP3    H265358   4.325   5.305   5.162 -1.2138 -0.1675  1.4402
14623TIP3   OH265359   3.748   4.347   0.309  0.4041 -0.3525 -0.1548
14623TIP3    H165360   3.763   4.421   0.251 -1.6023 -0.9302 -1.4929
14623TIP3    H265361   3.724   4.275   0.251  0.7952 -1.6547  1.2255
14624TIP3   OH265362   6.090   0.319  12.147 -0.2181  0.0325  0.5352
14624TIP3    H165363   6.068   0.228  12.128 -0.7725  0.3186 -0.1963
14624TIP3    H265364   6.049   0.370  12.077  0.3958  0.8178  0.7277
14625TIP3   OH265365   0.483   2.929  17.046  0.1453  0.2084 -0.6774
14625TIP3    H165366   0.504   2.845  17.004 -0.8128 -0.0206 -0.7385
14625TIP3    H265367   0.412   2.965  16.992 -1.7288 -0.4978  1.1692
14626TIP3   OH265368   2.679   0.056   0.709  0.4692  0.2124 -0.4089
14626TIP3    H165369   2.584   0.055   0.718  0.4027 -1.1612 -1.1105
14626TIP3    H265370   2.702   0.149   0.711 -1.0632  0.6850 -2.0683
14627TIP3   OH265371   0.975   5.791   2.452  0.3809 -0.0967  0.6179
14627TIP3    H165372   0.945   5.876   2.485 -1.7803 -0.6398  0.2102
14627TIP3    H265373   1.034   5.812   2.380 -0.1668  1.0612  0.4975
14628TIP3   OH265374   1.267   2.393   3.903  1.0610 -0.2338  0.1701
14628TIP3    H165375   1.360   2.394   3.924  0.9744 -0.9462  0.6181
14628TIP3    H265376   1.223   2.424   3.982  0.9447  0.6693 -0.2390
14629TIP3   OH265377   0.419   6.387   2.165  0.1914  0.4415 -0.0493
14629TIP3    H165378   0.383   6.300   2.180  1.4503  0.5314  5.8446
14629TIP3    H265379   0.342   6.445   2.164 -0.4380 -0.2820  2.0443
14630TIP3   OH265380   0.699   5.020   2.030 -0.1804 -0.2299 -0.1467
14630TIP3    H165381   0.729   5.111   2.032 -1.4272  0.2451 -1.3898
14630TIP3    H265382   0.690   5.000   1.936  0.0139 -1.6127  0.1148
14631TIP3   OH265383   4.264   2.777  16.852  0.5332  0.0657  0.3901
14631TIP3    H165384   4.301   2.689  16.859  1.1055  0.4130  2.1436
14631TIP3    H265385   4.170   2.765  16.866  0.0457 -0.6449 -2.7443
14632TIP3   OH265386   1.026   3.978  16.433 -0.2188 -0.4496  0.0033
14632TIP3    H165387   1.062   4.061  16.400  0.9952 -0.6899  0.6685
14632TIP3    H265388   0.950   3.962  16.378  0.4742  0.2801 -1.2206
14633TIP3   OH265389   4.351   4.671   6.257  0.5770 -0.2125  0.6185
14633TIP3    H165390   4.445   4.673   6.241  0.3275  1.1697 -1.0398
14633TIP3    H265391   4.321   4.758   6.230 -1.3451 -1.0364 -0.0717
14634TIP3   OH265392   0.829   6.797  14.596  0.1977 -0.8338 -0.1378
14634TIP3    H165393   0.855   6.747  14.519 -0.5647 -2.9451  0.8972
14634TIP3    H265394   0.752   6.751  14.630 -2.3746  2.6592 -0.6683
14635TIP3   OH265395   1.378   6.298  12.275  0.4073  0.0167  0.3790
14635TIP3    H165396   1.385   6.330  12.185  2.5265 -0.6166  0.2549
14635TIP3    H265397   1.417   6.367  12.328  2.1462 -0.9417  0.4293
14636TIP3   OH265398   5.347   1.082   2.676 -0.0093 -0.2905 -0.6939
14636TIP3    H165399   5.275   1.028   2.709 -0.4651  0.2254 -0.8340
14636TIP3    H265400   5.335   1.167   2.718 -0.2331  0.1900 -1.6959
14637TIP3   OH265401   0.375   2.301   3.817  0.1729  0.0008  0.0110
14637TIP3    H165402   0.422   2.273   3.895  0.2329 -1.2055 -0.4410
14637TIP3    H265403   0.439   2.351   3.767  0.0999  0.8758  0.7729
14638TIP3   OH265404   2.271   4.571  15.783 -0.0098 -0.0039  0.3172
14638TIP3    H165405   2.182   4.567  15.817 -0.2803  1.1590 -0.1665
14638TIP3    H265406   2.262   4.621  15.701  1.0465 -0.0745  0.1505
14639TIP3   OH265407   3.566   0.694  15.508 -0.7566  0.2940 -0.2092
14639TIP3    H165408   3.478   0.708  15.473 -0.4864 -1.1388 -1.5818
14639TIP3    H265409   3.587   0.775  15.553 -2.9863  0.4701  0.6290
14640TIP3   OH265410   5.741   0.000   1.854  0.9627  0.1367 -0.3055
14640TIP3    H165411   5.668   0.020   1.912  0.3409  1.1529 -1.3851
14640TIP3    H265412   5.737  -0.094   1.840  0.8572 -0.0494  0.9255
14641TIP3   OH265413   6.526   4.925  16.105  0.1932  0.2703 -0.1948
14641TIP3    H165414   6.606   4.971  16.079 -0.1819  0.6705 -0.6609
14641TIP3    H265415   6.556   4.856  16.163  0.9110  0.2297 -0.6067
14642TIP3   OH265416   3.519   3.055   5.154 -0.3631  0.9820  0.1334
14642TIP3    H165417   3.528   3.144   5.122  1.0298  1.1566  0.9481
14642TIP3    H265418   3.606   3.031   5.186 -0.9239 -0.3320  0.7813
14643TIP3   OH265419   5.587   2.407  10.389 -0.2321 -0.2758  0.3403
14643TIP3    H165420   5.516   2.449  10.437 -1.4419  1.0348 -2.3297
14643TIP3    H265421   5.555   2.318  10.372 -0.1000 -0.5141  1.3132
14644TIP3   OH265422   4.311   4.148   0.206 -0.8056  0.2462  0.2841
14644TIP3    H165423   4.241   4.083   0.201 -1.2711  0.6575  1.1804
14644TIP3    H265424   4.302   4.199   0.126 -0.6012 -0.6065 -0.3014
14645TIP3   OH265425   6.549   5.181   1.927 -0.7132 -0.3206  0.1554
14645TIP3    H165426   6.567   5.274   1.943 -0.3886 -0.7016  2.2350
14645TIP3    H265427   6.457   5.179   1.900 -0.7876  0.5770  0.2989
14646TIP3   OH265428   5.552   5.463  13.459 -0.1538 -0.1877  0.3209
14646TIP3    H165429   5.644   5.480  13.439  0.0467 -2.2073 -0.7214
14646TIP3    H265430   5.505   5.500  13.384 -0.2677  1.2912  1.0919
14647TIP3   OH265431   3.297   0.695   2.199  0.5597  0.0774  0.3747
14647TIP3    H165432   3.302   0.744   2.281  2.0017 -2.2017  1.7532
14647TIP3    H265433   3.230   0.629   2.215  1.7986 -1.2534  0.2844
14648TIP3   OH265434   2.254   5.620   0.687 -0.1242  0.5442 -0.3345
14648TIP3    H165435   2.253   5.714   0.665 -2.2271  0.8457  0.7818
14648TIP3    H265436   2.293   5.617   0.774 -0.2730  0.4137 -0.2727
14649TIP3   OH265437   3.186   1.372   1.284 -0.3333  0.1983 -0.5995
14649TIP3    H165438   3.229   1.433   1.224  1.7301 -1.7833 -1.2789
14649TIP3    H265439   3.228   1.388   1.369  2.6119 -2.2292 -1.4013
14650TIP3   OH265440   3.031   5.620   0.173 -0.3517 -0.0660 -0.2158
14650TIP3    H165441   3.039   5.715   0.166  0.2210 -0.0768  0.2228
14650TIP3    H265442   3.085   5.586   0.101 -0.9710 -0.0546 -0.6902
14651TIP3   OH265443   3.288   5.183   1.471  0.2726  0.0425 -0.1293
14651TIP3    H165444   3.226   5.250   1.499  2.5565  1.8136  0.9961
14651TIP3    H265445   3.300   5.199   1.378 -0.0404  0.4654 -0.0988
14652TIP3   OH265446   6.745   3.473  13.972 -0.9347  0.3765  0.3146
14652TIP3    H165447   6.656   3.458  14.003 -0.6041  0.0740  1.1530
14652TIP3    H265448   6.736   3.542  13.906 -1.7354  0.6367  0.6827
14653TIP3   OH265449   4.871   1.177   2.878 -0.1150 -1.0872 -0.1200
14653TIP3    H165450   4.933   1.105   2.871  2.2162  0.7331  0.2834
14653TIP3    H265451   4.824   1.160   2.960  1.5999 -1.3099  0.8599
14654TIP3   OH265452   1.367   4.174  12.041  0.0042  0.0746  0.3034
14654TIP3    H165453   1.320   4.098  12.007 -0.0179  0.3506 -0.3120
14654TIP3    H265454   1.361   4.167  12.136 -1.1235 -0.0034  0.2401
14655TIP3   OH265455   4.319   3.282   4.357  0.2241 -0.1753  0.4035
14655TIP3    H165456   4.301   3.210   4.297  0.6867  0.0951 -0.0766
14655TIP3    H265457   4.341   3.356   4.299  2.8140 -0.4752  0.9083
14656TIP3   OH265458   4.326   6.675   2.345  0.3071 -0.0386 -0.3805
14656TIP3    H165459   4.339   6.767   2.321 -1.5765 -0.0250 -1.5781
14656TIP3    H265460   4.279   6.678   2.428  1.2410  0.0400  0.1559
14657TIP3   OH265461   6.774   4.666  14.695  0.0076  0.3833 -0.2629
14657TIP3    H165462   6.720   4.587  14.687  1.4543 -0.9451  1.9823
14657TIP3    H265463   6.809   4.680  14.607  0.4015 -2.0247 -0.5707
14658TIP3   OH265464   4.415   1.751   2.594  0.3536  0.2158  0.1438
14658TIP3    H165465   4.476   1.712   2.532  1.9478  1.4895  0.8351
14658TIP3    H265466   4.368   1.817   2.544  0.6093  0.2524 -0.0469
14659TIP3   OH265467   1.223   6.454   0.741 -0.2717 -0.3929  0.2158
14659TIP3    H165468   1.159   6.510   0.698 -0.3874  0.0323  0.9186
14659TIP3    H265469   1.248   6.502   0.820  0.8379 -0.6020  0.0176
14660TIP3   OH265470   0.728   5.014   1.726 -0.9373 -0.0221 -0.1820
14660TIP3    H165471   0.651   5.071   1.727 -0.4313  0.6983 -1.1981
14660TIP3    H265472   0.799   5.070   1.697  0.1362 -0.5084  1.3542
14661TIP3   OH265473   5.557   0.203   0.253  0.2717  0.7867 -0.0800
14661TIP3    H165474   5.616   0.131   0.229 -0.8598 -0.5463  0.9476
14661TIP3    H265475   5.470   0.171   0.228 -0.6346  0.4665  3.0656
14662TIP3   OH265476   6.747   5.477   6.055 -0.6802 -0.7726  0.0798
14662TIP3    H165477   6.673   5.423   6.027 -1.5467  1.1662 -1.6754
14662TIP3    H265478   6.707   5.555   6.095  0.3648  0.2485 -0.7780
14663TIP3   OH265479   6.320   5.762   3.658 -0.0873 -0.5125  0.0712
14663TIP3    H165480   6.296   5.707   3.732 -0.7762 -0.6829 -0.2615
14663TIP3    H265481   6.353   5.701   3.592  0.1540 -0.4061  0.0924
14664TIP3   OH265482   3.134   5.248   4.943 -0.3681 -0.4451  0.9567
14664TIP3    H165483   3.106   5.220   4.856  1.0670 -0.2732  0.4148
14664TIP3    H265484   3.229   5.256   4.937 -0.2099 -0.5940  2.5939
14665TIP3   OH265485   0.395   1.098   2.237 -0.3121  0.1127  0.0263
14665TIP3    H165486   0.474   1.139   2.272 -0.3876  0.3030 -0.0264
14665TIP3    H265487   0.426   1.016   2.198 -0.3423 -0.4739  1.2086
14666TIP3   OH265488   2.696   6.642   0.616  0.1796 -0.1013  0.1291
14666TIP3    H165489   2.707   6.737   0.614 -0.0520 -0.0561  0.8067
14666TIP3    H265490   2.727   6.616   0.703 -1.0650 -0.4791  0.4700
14667TIP3   OH265491   1.929   2.575  16.382  0.6735  0.3566 -0.3444
14667TIP3    H165492   1.836   2.578  16.407  0.5742 -1.4636 -0.3609
14667TIP3    H265493   1.975   2.615  16.456 -0.1443  1.9811 -0.6591
14668TIP3   OH265494   1.548   1.701   1.844  0.3511  0.3228  0.8093
14668TIP3    H165495   1.491   1.691   1.921  1.2448  0.2556  1.4726
14668TIP3    H265496   1.488   1.722   1.772 -0.6515 -1.0376  1.2173
14669TIP3   OH265497   2.509   2.217  11.925  0.6067  0.0605 -0.1366
14669TIP3    H165498   2.603   2.233  11.934  0.6270 -0.8645  1.9003
14669TIP3    H265499   2.502   2.157  11.851  1.4775  1.0844 -1.0937
14670TIP3   OH265500   0.859   1.703   0.650  0.7042 -0.1766  0.0324
14670TIP3    H165501   0.786   1.705   0.588  0.1256 -0.3195  0.6951
14670TIP3    H265502   0.937   1.692   0.596  0.2779  0.4443 -0.7199
14671TIP3   OH265503   5.908   4.743   1.109 -0.2022  0.6591 -0.4481
14671TIP3    H165504   5.914   4.779   1.197  2.3021 -0.4039 -0.1165
14671TIP3    H265505   5.818   4.763   1.081 -1.3701  0.2150  2.6591
14672TIP3   OH265506   4.561   0.594   1.124  0.0487 -0.4571  1.4150
14672TIP3    H165507   4.621   0.519   1.127  0.4547 -0.2714 -0.6732
14672TIP3    H265508   4.589   0.644   1.048 -0.0669  1.9835  2.8768
14673TIP3   OH265509   4.251   1.961   5.880  0.7639  0.0922  0.0704
14673TIP3    H165510   4.280   1.979   5.790 -0.2667  0.0776 -0.2741
14673TIP3    H265511   4.319   2.001   5.935  1.3996  0.1164 -0.7050
14674TIP3   OH265512   4.005   6.207   3.002 -0.1376 -0.4032 -0.0373
14674TIP3    H165513   3.925   6.257   2.985  0.9970  1.5880  0.2030
14674TIP3    H265514   4.050   6.203   2.918  0.2694 -0.0904  0.1584
14675TIP3   OH265515   1.490   1.269  16.848  0.1597 -0.1069  0.3766
14675TIP3    H165516   1.492   1.360  16.818 -1.0682 -0.6114 -1.4338
14675TIP3    H265517   1.563   1.228  16.802  0.2249 -0.2096  0.5716
14676TIP3   OH265518   3.574   1.955  14.880  0.2644  0.6074 -0.7002
14676TIP3    H165519   3.641   2.023  14.886  0.4933  0.5172 -2.0526
14676TIP3    H265520   3.618   1.876  14.911  0.0895  0.9907  0.5824
14677TIP3   OH265521   2.174   6.139  13.284 -0.1247  0.8410 -0.3239
14677TIP3    H165522   2.092   6.167  13.243 -0.4958 -0.0441 -0.2158
14677TIP3    H265523   2.205   6.068  13.228  0.6663  1.2836 -0.4598
14678TIP3   OH265524   1.608   3.006  10.340  0.3774 -0.4903  0.4308
14678TIP3    H165525   1.522   3.033  10.309  0.5671 -1.6603 -1.2369
14678TIP3    H265526   1.655   3.088  10.355 -0.6010  0.1428  0.1556
14679TIP3   OH265527   3.872   4.762   6.781  0.2013 -0.3792  0.1594
14679TIP3    H165528   3.890   4.668   6.779  1.9108 -0.0927 -0.3830
14679TIP3    H265529   3.959   4.803   6.775 -0.5654  1.2371 -0.7650
14680TIP3   OH265530   0.945   2.597   5.187  0.8161  0.6157  0.1329
14680TIP3    H165531   0.853   2.592   5.211  1.0283 -0.9447  0.7850
14680TIP3    H265532   0.947   2.577   5.094  0.3166  3.0145 -0.4450
14681TIP3   OH265533   1.921   0.184   4.743 -0.0592 -0.1466  0.4399
14681TIP3    H165534   2.001   0.186   4.691  0.4676 -0.2516  1.2289
14681TIP3    H265535   1.858   0.236   4.692  0.7056  0.5046  0.1291
14682TIP3   OH265536   5.139   4.411  16.722  0.0513  0.1524  0.0634
14682TIP3    H165537   5.073   4.371  16.778  0.1850 -0.0198  0.0971
14682TIP3    H265538   5.218   4.359  16.737 -0.3624 -1.0154 -1.6411
14683TIP3   OH265539   2.364   5.638  16.693  0.3965  0.9152 -0.9322
14683TIP3    H165540   2.391   5.592  16.614 -1.0401  0.3362 -1.1100
14683TIP3    H265541   2.269   5.641  16.688  0.3169  1.5030  0.4302
14684TIP3   OH265542   5.100   4.726  15.309  0.2341 -0.2719  0.3232
14684TIP3    H165543   5.060   4.697  15.228 -0.3751  1.7798 -0.1879
14684TIP3    H265544   5.080   4.820  15.313  2.3447  0.1957  1.6187
14685TIP3   OH265545   3.526   0.321  11.474  0.2754 -0.3619 -0.0276
14685TIP3    H165546   3.582   0.264  11.421 -0.1148 -0.3144 -0.4908
14685TIP3    H265547   3.442   0.275  11.479 -0.6757  1.0249 -2.0152
14686TIP3   OH265548   4.452   3.819   6.022  0.2174  0.6603 -0.2960
14686TIP3    H165549   4.391   3.746   6.009  0.5926  0.4597 -0.9809
14686TIP3    H265550   4.398   3.889   6.058 -0.7988  1.0684 -2.4809
14687TIP3   OH265551   2.566   4.793   6.279  0.1045 -0.0627  0.1054
14687TIP3    H165552   2.572   4.887   6.293 -1.0194 -0.2154  1.8800
14687TIP3    H265553   2.475   4.778   6.252  0.6863 -0.4973 -1.7769
14688TIP3   OH265554   5.219   5.342  14.813 -0.4924  0.1512 -0.0099
14688TIP3    H165555   5.166   5.376  14.741  1.5604  1.8113 -0.8194
14688TIP3    H265556   5.234   5.417  14.871  0.4082 -0.4370  0.5486
14689TIP3   OH265557   6.478   0.885   5.095  0.3150  0.6981 -0.0408
14689TIP3    H165558   6.546   0.953   5.097  0.0067  1.0116 -0.2012
14689TIP3    H265559   6.403   0.924   5.141  0.4442  0.1312  0.6874
14690TIP3   OH265560   3.005   4.100  14.505  0.3145 -0.0342  0.5119
14690TIP3    H165561   3.049   4.077  14.422 -0.5128 -0.9956  0.3192
14690TIP3    H265562   2.953   4.023  14.526 -2.1804  1.4643  0.1454
14691TIP3   OH265563   3.055   2.219  16.678 -0.2964  0.6436  0.2008
14691TIP3    H165564   3.019   2.307  16.687  0.2423  0.7381  1.8215
14691TIP3    H265565   3.005   2.166  16.741 -1.2386 -0.4417 -1.3864
14692TIP3   OH265566   5.430   3.352   1.019  0.2157 -0.3388  0.5388
14692TIP3    H165567   5.481   3.431   1.033  1.8044 -1.5283  1.7681
14692TIP3    H265568   5.347   3.383   0.982  1.1513  1.7868  0.0985
14693TIP3   OH265569   6.757   1.542  11.889  0.1018  0.3975 -0.2576
14693TIP3    H165570   6.701   1.480  11.842 -0.3418  0.9998 -0.5447
14693TIP3    H265571   6.778   1.498  11.971 -0.7879  0.1511 -0.1490
14694TIP3   OH265572   1.083   6.844  16.265  0.6034  0.3834 -0.1850
14694TIP3    H165573   1.111   6.848  16.173 -1.8108 -0.3676 -1.0317
14694TIP3    H265574   1.065   6.935  16.289  1.3872  0.5995 -0.3876
14695TIP3   OH265575   6.383   3.031   3.866 -0.2665  0.1844 -0.5042
14695TIP3    H165576   6.452   2.965   3.856 -0.6356 -0.5152  1.0950
14695TIP3    H265577   6.430   3.113   3.882  0.2628 -0.5066  1.8340
14696TIP3   OH265578   2.239   3.559   4.598 -0.4541 -0.4811  0.5181
14696TIP3    H165579   2.147   3.576   4.620 -0.6590  0.6580 -1.0678
14696TIP3    H265580   2.237   3.528   4.508  0.7100 -0.5762  0.5142
14697TIP3   OH265581   5.355   1.963  11.838  0.4548 -0.0482  0.3099
14697TIP3    H165582   5.267   1.927  11.827  1.0200 -0.8006 -2.6740
14697TIP3    H265583   5.411   1.887  11.853  0.6831  0.4060  1.9766
14698TIP3   OH265584   0.270   5.270   3.238 -0.7018  0.3507  0.4260
14698TIP3    H165585   0.333   5.198   3.229 -1.1164  0.1263 -0.8576
14698TIP3    H265586   0.208   5.239   3.305  0.8632  0.8491  2.2149
14699TIP3   OH265587   3.506   2.885   4.110  0.2447 -0.3811  0.9297
14699TIP3    H165588   3.589   2.928   4.089 -0.1254 -0.3251 -0.5435
14699TIP3    H265589   3.504   2.808   4.053 -1.7386  0.8767 -0.8909
14700TIP3   OH265590   3.045   3.252   0.942 -0.1802 -0.1509 -0.1936
14700TIP3    H165591   3.106   3.322   0.965  0.9621 -0.7898 -1.1891
14700TIP3    H265592   3.024   3.267   0.850  1.9569 -2.4275 -1.1298
14701TIP3   OH265593   0.638   5.866  15.269  0.2317  0.9195 -0.6771
14701TIP3    H165594   0.651   5.961  15.263  1.5347  0.7754 -0.3893
14701TIP3    H265595   0.581   5.854  15.345  1.0813  1.4046  0.0529
14702TIP3   OH265596   3.039   0.869  16.949 -0.2582 -0.0255 -0.1638
14702TIP3    H165597   3.003   0.799  17.003  0.2504  0.5392  0.9332
14702TIP3    H265598   3.113   0.903  16.999  0.1977  0.5554 -1.1906
14703TIP3   OH265599   3.093   1.078  16.043 -0.0427 -0.0244  0.3855
14703TIP3    H165600   3.147   1.095  16.120 -1.1789  0.6443  1.0656
14703TIP3    H265601   3.130   1.135  15.975 -0.7173  1.5011  1.2407
14704TIP3   OH265602   1.147   6.704  16.813 -0.5829 -0.1788  0.6335
14704TIP3    H165603   1.150   6.800  16.814 -0.0647 -0.1739 -0.3413
14704TIP3    H265604   1.181   6.680  16.727  0.8153 -1.2756  1.4508
14705TIP3   OH265605   3.168   5.355  11.402 -0.0083 -0.0245  0.0055
14705TIP3    H165606   3.216   5.338  11.321  0.7219  1.2113  0.1428
14705TIP3    H265607   3.113   5.431  11.382 -1.1548 -0.7834  0.1673
14706TIP3   OH265608   6.567   4.305   4.258 -0.1982 -0.0022 -0.4586
14706TIP3    H165609   6.608   4.358   4.326 -1.1564  0.8674 -0.5310
14706TIP3    H265610   6.619   4.224   4.255  0.0758  0.1018  1.0369
14707TIP3   OH265611   1.465   1.838  10.982  0.4442  0.3298 -0.5012
14707TIP3    H165612   1.375   1.836  11.014  0.4431  1.4039 -0.3980
14707TIP3    H265613   1.457   1.861  10.889  0.5867 -0.2037 -0.6504
14708TIP3   OH265614   1.256   6.668   5.338 -0.2156  0.2209  0.0218
14708TIP3    H165615   1.250   6.725   5.414  0.6256  1.2874 -0.6896
14708TIP3    H265616   1.289   6.585   5.372 -0.0279  0.6281  0.8437
14709TIP3   OH265617   4.587   1.517   5.686  0.2499 -0.0758 -0.7661
14709TIP3    H165618   4.578   1.446   5.749 -0.7306  0.9334  0.2826
14709TIP3    H265619   4.551   1.482   5.605 -0.2655 -0.7687 -0.2513
14710TIP3   OH265620   2.168   6.442   0.752 -0.2706 -0.6400 -0.1788
14710TIP3    H165621   2.094   6.487   0.792 -0.8042 -1.5775 -0.0828
14710TIP3    H265622   2.231   6.512   0.733 -1.8158  0.4411 -1.7309
14711TIP3   OH265623   2.565   0.424   1.742  0.5683  0.0660  0.0262
14711TIP3    H165624   2.530   0.419   1.831 -1.2730  1.2073 -0.5750
14711TIP3    H265625   2.499   0.381   1.688  2.9522 -3.2080 -0.5752
14712TIP3   OH265626   6.837   6.727   4.499  0.4087 -0.4372 -0.0642
14712TIP3    H165627   6.846   6.771   4.584  0.8684  0.5765 -0.6322
14712TIP3    H265628   6.864   6.637   4.517 -0.4040 -0.4840  1.0758
14713TIP3   OH265629   3.078   3.067  13.609  0.0792  0.2198 -0.0998
14713TIP3    H165630   3.035   2.995  13.656 -1.4490  1.3298  0.2562
14713TIP3    H265631   3.043   3.061  13.520 -0.3977  0.7887  0.0466
14714TIP3   OH265632   0.198   5.305   0.340  0.7257  0.4774 -0.0553
14714TIP3    H165633   0.272   5.365   0.336  1.3947 -0.3559 -2.9844
14714TIP3    H265634   0.238   5.220   0.361  0.1499  0.5377  1.3755
14715TIP3   OH265635   1.491   4.166  13.061  0.9283  0.1494  0.0207
14715TIP3    H165636   1.539   4.086  13.038  0.3030 -0.1418 -0.2931
14715TIP3    H265637   1.489   4.217  12.980 -0.2833 -0.3622 -0.2971
14716TIP3   OH265638   5.875   2.421  16.958 -0.5107  0.2742 -0.8460
14716TIP3    H165639   5.805   2.432  17.022 -1.3925  0.4092 -1.7980
14716TIP3    H265640   5.835   2.446  16.874 -0.0394 -1.8829 -1.7945
14717TIP3   OH265641   3.039   2.952   0.452 -0.2533  0.2019  0.3035
14717TIP3    H165642   2.976   3.012   0.491 -1.2742  0.2176 -1.2975
14717TIP3    H265643   3.044   2.879   0.514 -1.7547  0.2751  0.5535
14718TIP3   OH265644   1.490   2.737   1.303  0.0893  0.2279 -0.5703
14718TIP3    H165645   1.446   2.799   1.245 -0.1815 -0.1813 -0.8004
14718TIP3    H265646   1.572   2.717   1.258 -0.2349 -0.2868 -0.9394
14719TIP3   OH265647   0.811   6.529  13.948 -0.2571 -0.1239 -0.1595
14719TIP3    H165648   0.744   6.547  13.882 -0.7716  0.0305  0.3914
14719TIP3    H265649   0.872   6.602  13.940 -0.6153  0.1900 -0.1000
14720TIP3   OH265650   5.272   6.105   2.337 -0.2982 -0.0647 -0.3406
14720TIP3    H165651   5.236   6.017   2.345  0.0920 -0.4772 -2.5412
14720TIP3    H265652   5.233   6.141   2.258  0.5775  1.2347 -0.2317
14721TIP3   OH265653   3.214   4.121   3.949 -0.0772  0.5454 -0.1483
14721TIP3    H165654   3.136   4.127   4.004  0.8931  0.8387  1.2627
14721TIP3    H265655   3.192   4.168   3.869 -1.1797  1.0317  0.4236
14722TIP3   OH265656   5.056   5.039  14.988 -0.2041 -0.6110 -0.3594
14722TIP3    H165657   5.014   5.113  15.031 -0.3613 -0.9513  0.0829
14722TIP3    H265658   5.150   5.058  14.993 -0.2650 -0.2228 -0.6572
14723TIP3   OH265659   6.520   4.668  14.091 -0.0642  0.1231  0.0426
14723TIP3    H165660   6.599   4.627  14.127 -0.6526 -0.2406  0.9402
14723TIP3    H265661   6.551   4.750  14.052  0.7184  0.0867  0.5742
14724TIP3   OH265662   5.415   3.056   5.695 -0.0531 -0.0376  0.3435
14724TIP3    H165663   5.491   3.097   5.736 -1.0372  0.0996  2.1805
14724TIP3    H265664   5.357   3.037   5.769 -1.2500 -1.2836 -0.8774
14725TIP3   OH265665   2.975   1.307   0.855 -0.1591  0.4896 -0.1521
14725TIP3    H165666   2.892   1.266   0.829 -0.1642  0.3253  0.1125
14725TIP3    H265667   3.011   1.342   0.774  0.4982 -1.1906 -0.6271
14726TIP3   OH265668   3.364   2.313   4.883 -0.2780 -0.3297  0.0073
14726TIP3    H165669   3.366   2.400   4.843  1.0384 -1.0900 -1.7330
14726TIP3    H265670   3.357   2.253   4.808 -0.6174 -1.7486  1.1327
14727TIP3   OH265671   4.659   4.378  14.877 -0.1649 -0.1658  0.0259
14727TIP3    H165672   4.599   4.342  14.811  0.7871 -0.6262 -0.6067
14727TIP3    H265673   4.728   4.420  14.827 -0.4227  1.1949  0.7560
14728TIP3   OH265674   2.783   0.737  13.125  0.1359 -0.0021  0.2952
14728TIP3    H165675   2.836   0.758  13.201  0.3626 -0.2196  0.1997
14728TIP3    H265676   2.752   0.648  13.141  2.1345 -0.9946 -0.9305
14729TIP3   OH265677   4.338   5.500  13.469 -0.1696  0.1852  0.1249
14729TIP3    H165678   4.336   5.419  13.419 -1.5772  1.0869 -1.3549
14729TIP3    H265679   4.267   5.490  13.533 -0.2558  0.1999  0.0315
14730TIP3   OH265680   0.907   4.032  12.007 -0.8332 -0.3928  0.4353
14730TIP3    H165681   0.849   3.989  11.944 -0.6806  0.4229 -0.2785
14730TIP3    H265682   0.849   4.084  12.062 -0.6993  1.9900 -1.5038
14731TIP3   OH265683   5.311   6.815   2.197 -0.0302 -0.2881  0.4499
14731TIP3    H165684   5.388   6.783   2.245  0.5429 -0.7319 -0.7158
14731TIP3    H265685   5.260   6.736   2.180 -0.1117 -0.1693  0.1393
14732TIP3   OH265686   2.494   1.321   5.517  0.4786  0.6248 -0.5062
14732TIP3    H165687   2.565   1.280   5.467  0.9989 -0.3367  0.9246
14732TIP3    H265688   2.525   1.410   5.533  0.9288  0.5118 -0.7204
14733TIP3   OH265689   1.452   5.725   4.068  0.3364  0.5020 -0.4411
14733TIP3    H165690   1.421   5.663   4.002  1.2162 -0.6455  0.1816
14733TIP3    H265691   1.437   5.811   4.029  0.0493 -0.1217 -1.7732
14734TIP3   OH265692   2.748   5.822   0.366 -0.5532 -0.1124  0.2328
14734TIP3    H165693   2.834   5.795   0.334 -0.1399 -0.4065  1.5053
14734TIP3    H265694   2.688   5.800   0.296  0.2404 -1.1808 -0.1339
14735TIP3   OH265695   3.345   3.547   1.762 -0.3010 -0.4723  1.1472
14735TIP3    H165696   3.263   3.521   1.804 -1.1885  1.0669  0.4601
14735TIP3    H265697   3.409   3.550   1.833 -0.4286 -3.0860  1.4790
14736TIP3   OH265698   3.082   5.300  14.050  0.6681 -0.2233 -0.3092
14736TIP3    H165699   3.142   5.262  14.115  1.2890  0.5372 -0.4167
14736TIP3    H265700   3.080   5.236  13.979  2.1589  0.1646 -0.7527
14737TIP3   OH265701   0.747   4.809  15.457  0.9185  0.0860 -0.2474
14737TIP3    H165702   0.789   4.723  15.453  1.3292  0.2287  0.8335
14737TIP3    H265703   0.653   4.790  15.456  1.0096 -0.3631 -0.2463
14738TIP3   OH265704   4.714   5.968  11.855  0.6155  0.1757  0.1035
14738TIP3    H165705   4.651   6.022  11.808  0.5149  0.3166  0.3998
14738TIP3    H265706   4.663   5.924  11.922  0.6846 -0.3419 -0.1749
14739TIP3   OH265707   6.191   1.028   3.135 -0.4959  0.8098 -0.2493
14739TIP3    H165708   6.127   0.962   3.160 -0.6852  0.5200 -1.4495
14739TIP3    H265709   6.225   1.061   3.219  0.2489 -1.4172  0.4049
14740TIP3   OH265710   3.398   0.666   0.899 -0.2353 -0.2381 -0.5207
14740TIP3    H165711   3.403   0.672   0.994  1.5546 -0.8273 -0.5374
14740TIP3    H265712   3.315   0.622   0.882  0.4422 -2.1668  0.8866
14741TIP3   OH265713   2.652   5.842  14.981 -0.2839  0.4370  0.7714
14741TIP3    H165714   2.636   5.910  14.917  0.0845 -2.0971 -2.2603
14741TIP3    H265715   2.569   5.834  15.029 -1.3046  1.0374 -0.8206
14742TIP3   OH265716   4.540   1.229  15.324  0.0567 -0.0525  0.3042
14742TIP3    H165717   4.457   1.189  15.350 -0.5869  2.1295  1.8954
14742TIP3    H265718   4.560   1.291  15.394  3.1789 -0.6439  0.0870
14743TIP3   OH265719   1.681   6.409  12.798  0.2329  0.0704 -0.0757
14743TIP3    H165720   1.667   6.327  12.750  0.3394  0.7103 -1.2342
14743TIP3    H265721   1.738   6.461  12.741  0.0112  1.0247  0.5526
14744TIP3   OH265722   4.388   6.759   3.673 -0.3193 -0.2772  0.3918
14744TIP3    H165723   4.328   6.744   3.600 -1.3406 -0.0600  1.1586
14744TIP3    H265724   4.437   6.677   3.681 -0.5071 -0.4585 -0.2530
14745TIP3   OH265725   0.021   1.561   3.641  0.4739 -0.1765 -0.2192
14745TIP3    H165726   0.012   1.522   3.554 -1.3045 -2.7807  0.9857
14745TIP3    H265727  -0.066   1.595   3.661  0.6395 -0.3273  0.8271
14746TIP3   OH265728   1.586   0.667   1.069 -0.7344 -0.2497  0.6920
14746TIP3    H165729   1.497   0.675   1.035 -1.6383 -1.8702  2.5350
14746TIP3    H265730   1.608   0.574   1.059  0.7722  0.1203  0.2632
14747TIP3   OH265731   5.475   5.643  12.775 -0.2116  0.5996  0.3153
14747TIP3    H165732   5.488   5.583  12.702  0.4064 -0.4328  1.2275
14747TIP3    H265733   5.520   5.723  12.750 -0.0544  0.2810 -0.4447
14748TIP3   OH265734   5.415   5.811   4.210  0.0672 -0.5432 -0.0695
14748TIP3    H165735   5.367   5.871   4.266  0.7990 -0.0237  0.0210
14748TIP3    H265736   5.506   5.820   4.238 -0.0349 -3.4947  1.6665
14749TIP3   OH265737   2.807   1.781   0.704 -0.0797 -0.1110  0.8922
14749TIP3    H165738   2.792   1.816   0.616 -1.4405 -0.2200  1.0504
14749TIP3    H265739   2.743   1.826   0.758 -0.1835 -1.0481  1.5671
14750TIP3   OH265740   3.249   2.694  16.244  0.2910  0.2079 -0.0257
14750TIP3    H165741   3.230   2.739  16.326 -2.0560 -0.5947 -0.0564
14750TIP3    H265742   3.279   2.763  16.184 -4.1532  2.1078 -0.4199
14751TIP3   OH265743   1.430   0.874   4.684  0.0052  0.4222 -0.6608
14751TIP3    H165744   1.492   0.872   4.757 -0.4071 -2.5218 -0.2941
14751TIP3    H265745   1.357   0.928   4.717  0.5353  0.4811  0.4760
14752TIP3   OH265746   6.330   5.026  16.600 -0.5304  0.0863 -0.3979
14752TIP3    H165747   6.259   5.086  16.622  0.0427  0.5614  0.1984
14752TIP3    H265748   6.287   4.942  16.585 -1.5580  0.9456 -2.8466
14753TIP3   OH265749   0.776   2.867  15.068  0.2460  0.0748  0.0373
14753TIP3    H165750   0.695   2.876  15.118 -0.2112  0.2196 -0.7077
14753TIP3    H265751   0.841   2.917  15.117 -0.1354  0.0299  0.5969
14754TIP3   OH265752   0.542   3.507  12.322  0.0520  0.5777  0.5113
14754TIP3    H165753   0.626   3.463  12.310 -1.1752 -1.9018  0.4611
14754TIP3    H265754   0.493   3.452  12.383 -2.3789  0.6315 -1.2150
14755TIP3   OH265755   6.196   3.919   5.866  0.5691 -0.3981  0.2211
14755TIP3    H165756   6.124   3.856   5.870  1.6050 -1.6052  1.1214
14755TIP3    H265757   6.255   3.892   5.938 -0.0371  3.0377  2.2160
14756TIP3   OH265758   2.626   3.747  13.418  0.3347  0.4998  0.1289
14756TIP3    H165759   2.600   3.725  13.507  2.4018 -1.6169  0.2851
14756TIP3    H265760   2.558   3.707  13.363 -0.2192  0.6456  0.6966
14757TIP3   OH265761   1.777   3.066   4.483  0.0628  0.1131 -0.4555
14757TIP3    H165762   1.753   2.992   4.539  0.4278  0.9159  0.8235
14757TIP3    H265763   1.870   3.079   4.499 -0.5829  3.0464  2.2645
14758TIP3   OH265764   5.316   2.858  14.398 -0.2930  0.0472 -0.3000
14758TIP3    H165765   5.340   2.891  14.485 -0.0013  0.4276 -0.5222
14758TIP3    H265766   5.332   2.763  14.403  0.5360  0.1875 -0.2023
14759TIP3   OH265767   3.591   2.667   5.613 -0.0856  0.2906 -0.3836
14759TIP3    H165768   3.499   2.683   5.590 -0.6485 -0.5175  1.1530
14759TIP3    H265769   3.611   2.582   5.574 -0.4515 -0.1991  0.4721
14760TIP3   OH265770   5.455   6.683  12.301 -0.0544 -0.0534  0.1834
14760TIP3    H165771   5.368   6.649  12.324 -0.5047  1.2350  0.4291
14760TIP3    H265772   5.515   6.629  12.352 -0.8275  0.2696  1.4760
14761TIP3   OH265773   5.323   0.118  15.781  0.9280 -0.2186  0.0980
14761TIP3    H165774   5.243   0.102  15.732  0.8706 -3.9432  1.1322
14761TIP3    H265775   5.390   0.066  15.737  1.8111 -0.3762  1.5571
14762TIP3   OH265776   1.801   0.935   1.748 -0.6455  0.4152 -0.1891
14762TIP3    H165777   1.725   0.983   1.715 -0.3809  0.9065 -0.0916
14762TIP3    H265778   1.875   0.994   1.732 -0.2250 -0.2399 -0.6855
14763TIP3   OH265779   4.739   3.891  13.891  0.1043  0.2554 -0.0272
14763TIP3    H165780   4.657   3.936  13.873  0.2147  0.6162  0.3501
14763TIP3    H265781   4.806   3.943  13.846 -0.2329 -2.1949 -3.7972
14764TIP3   OH265782   3.871   6.849   6.634  0.2355  0.5424 -0.2170
14764TIP3    H165783   3.808   6.902   6.585 -1.6418 -1.1222  0.2834
14764TIP3    H265784   3.850   6.759   6.611  2.5722 -0.0792 -0.1318
14765TIP3   OH265785   0.826   5.427   0.275 -0.5364  0.0843 -0.5343
14765TIP3    H165786   0.888   5.453   0.207  0.0041  0.8665  0.2307
14765TIP3    H265787   0.740   5.440   0.236 -0.2379 -0.6131 -1.4655
14766TIP3   OH265788   0.175   6.644  11.966 -0.3993 -0.6073 -0.1283
14766TIP3    H165789   0.226   6.724  11.948  0.9661 -1.1009  1.3049
14766TIP3    H265790   0.112   6.670  12.032  0.5646 -0.8432  0.9270
14767TIP3   OH265791   0.833   4.948   1.334  0.3314 -0.2024  0.2689
14767TIP3    H165792   0.810   5.040   1.322 -0.0687 -0.2058  0.9706
14767TIP3    H265793   0.920   4.949   1.374  0.2678 -0.1245  0.4049
14768TIP3   OH265794   2.923   3.642  12.901  0.3112  0.0591 -0.2896
14768TIP3    H165795   3.001   3.587  12.904 -0.0470 -0.4889 -0.8412
14768TIP3    H265796   2.943   3.716  12.958  1.7475  0.6010 -1.4604
14769TIP3   OH265797   3.404   4.441   1.479  0.0404 -0.0824  0.3990
14769TIP3    H165798   3.362   4.516   1.521 -0.9511 -1.6880  2.4760
14769TIP3    H265799   3.497   4.449   1.503 -0.3105 -0.2918  1.9393
14770TIP3   OH265800   4.990   5.356   5.368  0.3759 -0.7346  0.1094
14770TIP3    H165801   4.957   5.270   5.395 -2.2739  1.0637  3.3855
14770TIP3    H265802   5.069   5.369   5.422  0.3131 -0.7993  0.2176
14771TIP3   OH265803   4.978   6.699  12.065 -0.4130  0.5972 -0.1374
14771TIP3    H165804   4.905   6.671  12.121 -0.7146 -0.2763 -0.9321
14771TIP3    H265805   4.940   6.704  11.977  0.3760  0.5780 -0.4859
14772TIP3   OH265806   1.287   3.604   3.240  0.0472 -0.0828  0.2812
14772TIP3    H165807   1.295   3.619   3.334 -0.0495  0.4310  0.2115
14772TIP3    H265808   1.350   3.535   3.221  0.6103  0.3351  0.5982
14773TIP3   OH265809   0.193   2.120  13.106  0.0496  0.1177  0.0300
14773TIP3    H165810   0.200   2.179  13.031  1.7050  0.0139  0.0567
14773TIP3    H265811   0.281   2.121  13.145 -0.8033  0.2440  2.0362
14774TIP3   OH265812   5.575   4.023   3.552 -0.0847 -0.4346 -0.4105
14774TIP3    H165813   5.605   3.975   3.474  0.7960  0.5036 -0.6685
14774TIP3    H265814   5.654   4.066   3.585 -0.5736 -0.3382  0.6682
14775TIP3   OH265815   4.025   5.398   4.685 -0.2428  0.3015  0.7100
14775TIP3    H165816   3.949   5.451   4.661 -0.7977 -1.3323 -1.3189
14775TIP3    H265817   3.989   5.313   4.708  0.8833 -0.1248  0.9506
14776TIP3   OH265818   4.733   0.953  11.650 -0.1510 -0.1893 -0.0393
14776TIP3    H165819   4.778   0.868  11.647  0.9584  0.3954 -3.0251
14776TIP3    H265820   4.803   1.017  11.657 -0.6495  0.6141 -1.8627
14777TIP3   OH265821   6.335   6.406   5.691 -0.3956  0.0564  0.9386
14777TIP3    H165822   6.333   6.373   5.601 -1.6993 -0.4337  1.1178
14777TIP3    H265823   6.360   6.331   5.744 -0.7604  0.0336  1.0851
14778TIP3   OH265824   4.057   3.078  11.246 -0.5005 -0.3102 -0.4453
14778TIP3    H165825   4.110   3.111  11.318  0.3940 -0.8776 -0.8364
14778TIP3    H265826   4.063   3.146  11.179 -0.9679  0.0098 -0.1737
14779TIP3   OH265827   6.839   0.348   3.011 -0.0821 -0.3443  0.0906
14779TIP3    H165828   6.748   0.363   2.985 -0.2974 -1.0420  0.4342
14779TIP3    H265829   6.855   0.256   2.991  0.0701 -0.6298  1.4297
14780TIP3   OH265830   2.213   0.603   5.574 -0.2055  0.4459  0.4220
14780TIP3    H165831   2.218   0.698   5.567  0.3551  0.2779 -2.4501
14780TIP3    H265832   2.305   0.575   5.582 -0.1912  0.0698 -0.8580
14781TIP3   OH265833   0.435   0.021  15.979  0.1943 -0.1414 -0.2434
14781TIP3    H165834   0.398   0.078  16.046  0.4131 -0.2953  0.0103
14781TIP3    H265835   0.428   0.071  15.898 -0.8517 -0.2900 -0.2565
14782TIP3   OH265836   3.926   1.886  14.025  0.7069 -0.3246  0.6230
14782TIP3    H165837   3.901   1.810  14.079  0.0216  0.0763  0.8856
14782TIP3    H265838   4.009   1.915  14.063 -0.0936  0.3698  1.9513
14783TIP3   OH265839   4.596   3.765   0.681 -0.2793 -0.6384  0.3569
14783TIP3    H165840   4.645   3.804   0.609  0.6034 -3.4480 -0.7312
14783TIP3    H265841   4.528   3.829   0.701  0.4597  0.9793 -1.8634
14784TIP3   OH265842   6.363   2.106  13.359  0.8072  0.8082  0.4799
14784TIP3    H165843   6.390   2.059  13.438  0.0824  0.1429  0.3423
14784TIP3    H265844   6.283   2.151  13.385 -0.7633 -1.2577 -0.4590
14785TIP3   OH265845   4.304   5.763   0.013 -0.2973  0.0553  0.4212
14785TIP3    H165846   4.347   5.845  -0.013  0.8461 -0.7763 -0.4407
14785TIP3    H265847   4.365   5.722   0.074 -0.1058 -0.8568 -0.3480
14786TIP3   OH265848   0.373   6.040   1.310 -0.3885  0.2264  0.0974
14786TIP3    H165849   0.322   6.101   1.363 -0.7890 -0.0537  0.0338
14786TIP3    H265850   0.437   6.003   1.371 -1.0655 -0.3452  0.4667
14787TIP3   OH265851   3.210   0.202  14.017  0.4769  0.5047  0.0213
14787TIP3    H165852   3.157   0.267  14.064  1.0547  2.8166 -2.2888
14787TIP3    H265853   3.172   0.118  14.041 -1.5388  1.8113  1.7127
14788TIP3   OH265854   1.463   3.651  14.153  0.0531  0.2807  0.0681
14788TIP3    H165855   1.392   3.702  14.114 -2.1862 -1.7980  1.1544
14788TIP3    H265856   1.491   3.592  14.082  0.4210  0.7935 -0.2241
14789TIP3   OH265857   2.538   1.010  16.662 -0.4694  0.1902 -0.4664
14789TIP3    H165858   2.554   0.917  16.676  1.2006  0.7648  2.4184
14789TIP3    H265859   2.526   1.019  16.568  0.8805 -2.7264 -1.0250
14790TIP3   OH265860   5.410   6.128   3.742  0.1657 -0.0594  0.4226
14790TIP3    H165861   5.338   6.068   3.722  0.3996 -0.1294 -0.2375
14790TIP3    H265862   5.459   6.084   3.812 -0.6879  0.2042  1.2071
14791TIP3   OH265863   0.023   0.508   0.936  0.6503  0.3826 -0.2060
14791TIP3    H165864   0.098   0.504   0.877  1.2139  0.7760  0.4614
14791TIP3    H265865  -0.048   0.464   0.889  1.5291 -0.7585 -0.5014
14792TIP3   OH265866   5.917   2.142  12.268 -0.0781  0.1462 -0.1998
14792TIP3    H165867   5.838   2.195  12.261 -0.3199 -0.3003 -1.0177
14792TIP3    H265868   5.918   2.112  12.359 -0.2377  1.0822  0.1165
14793TIP3   OH265869   5.997   3.586  14.343 -0.2256  0.4983 -0.1921
14793TIP3    H165870   5.947   3.648  14.289 -0.4749  0.4731  0.0055
14793TIP3    H265871   5.930   3.532  14.385  0.0019 -0.4820 -1.0297
14794TIP3   OH265872   5.618   0.964   1.998 -0.6113 -0.1482  0.0998
14794TIP3    H165873   5.636   0.994   1.909 -1.1059 -1.8627 -0.6208
14794TIP3    H265874   5.657   1.030   2.054 -0.1815  0.9118 -1.3937
14795TIP3   OH265875   2.493   5.334  12.192  0.6547 -0.0539  0.3498
14795TIP3    H165876   2.400   5.310  12.188  0.6549 -0.4279  1.8565
14795TIP3    H265877   2.499   5.395  12.266  1.2901  1.6867 -1.0599
14796TIP3   OH265878   4.733   2.562   5.839  0.0228  0.0413 -0.4090
14796TIP3    H165879   4.752   2.656   5.846  1.2968 -0.2431  0.1554
14796TIP3    H265880   4.669   2.546   5.908  0.0790  0.4186 -0.2656
14797TIP3   OH265881   3.775   6.200   3.519 -0.1003  0.0089 -0.0483
14797TIP3    H165882   3.681   6.190   3.500 -0.2057  0.0763  0.4345
14797TIP3    H265883   3.818   6.178   3.436 -0.6602  2.9276 -1.2678
14798TIP3   OH265884   3.741   0.495  15.600 -0.2268  0.1268 -0.0523
14798TIP3    H165885   3.687   0.567  15.568 -2.3076 -0.6810  1.4123
14798TIP3    H265886   3.788   0.531  15.675 -1.4812 -0.0519  0.8545
14799TIP3   OH265887   5.544   1.662  13.637 -0.3174 -0.3255 -0.2986
14799TIP3    H165888   5.603   1.610  13.583  0.7940  0.7241 -0.1264
14799TIP3    H265889   5.585   1.662  13.724 -0.6477  0.2853 -0.1388
14800TIP3   OH265890   3.587   5.046  12.807 -0.2028 -0.3481 -0.3035
14800TIP3    H165891   3.633   5.031  12.889 -0.7491 -0.3496  0.0048
14800TIP3    H265892   3.652   5.089  12.751  0.0060  0.1527  0.3120
14801TIP3   OH265893   0.502   1.694  13.885  0.0270 -0.0268  0.4411
14801TIP3    H165894   0.506   1.603  13.855  0.0596  0.0596  0.1857
14801TIP3    H265895   0.515   1.688  13.980 -0.7113 -0.3532  0.5270
14802TIP3   OH265896   2.693   6.296  14.602  0.1852 -0.4107  0.3556
14802TIP3    H165897   2.724   6.244  14.677 -0.7249 -1.8751 -0.2412
14802TIP3    H265898   2.614   6.339  14.634  0.9521  0.6567  0.8583
14803TIP3   OH265899   1.308   1.820  14.912 -0.2083  0.0187  0.2725
14803TIP3    H165900   1.347   1.819  14.999 -0.1090  0.2806  0.2320
14803TIP3    H265901   1.258   1.738  14.907  1.9494 -1.3386 -0.4206
14804TIP3   OH265902   2.458   6.324   1.948 -0.6267 -0.3366  0.6846
14804TIP3    H165903   2.388   6.314   1.884 -0.0105 -1.8801  0.2074
14804TIP3    H265904   2.475   6.419   1.951 -0.7494 -0.2175 -1.3335
14805TIP3   OH265905   2.772   0.131   5.044 -0.7365  0.2882  0.1336
14805TIP3    H165906   2.812   0.217   5.049 -0.8408  0.3057  0.8122
14805TIP3    H265907   2.729   0.120   5.129 -1.7037  0.0443 -0.3805
14806TIP3   OH265908   6.537   0.252  11.752 -0.0194  0.0792  0.7670
14806TIP3    H165909   6.528   0.191  11.826 -0.5381 -0.6711  0.1073
14806TIP3    H265910   6.623   0.292  11.764  0.0106 -0.2245  1.6338
14807TIP3   OH265911   1.826   0.744  11.768  0.0228 -0.1895  0.1722
14807TIP3    H165912   1.795   0.655  11.750  0.0713 -0.3406  0.8088
14807TIP3    H265913   1.920   0.742  11.747 -0.4499  0.4424 -2.3930
14808TIP3   OH265914   0.087   1.507  14.391 -0.3643 -0.1987 -0.0475
14808TIP3    H165915   0.162   1.558  14.360 -1.1930  1.6701  0.8508
14808TIP3    H265916   0.018   1.572  14.405 -1.1240 -1.4074  2.3023
14809TIP3   OH265917   3.773   1.753  14.827 -0.3996  0.3898 -0.3291
14809TIP3    H165918   3.763   1.713  14.741 -0.0616 -2.0856  0.6931
14809TIP3    H265919   3.867   1.760  14.841 -0.4473  0.6164 -0.0962
14810TIP3   OH265920   0.686   2.566  14.921 -0.1558 -0.0083  0.4017
14810TIP3    H165921   0.660   2.589  15.009  1.0081 -0.7585  0.9709
14810TIP3    H265922   0.782   2.574  14.921 -0.1283 -0.0610 -0.7780
14811TIP3   OH265923   3.938   5.815   4.695 -0.3786  0.0139  0.8894
14811TIP3    H165924   3.974   5.774   4.773  2.3987  0.6370  0.0476
14811TIP3    H265925   4.015   5.836   4.641 -2.0871  0.8631 -1.3846
14812TIP3   OH265926   3.890   3.843   5.404  0.0043  0.2422 -0.1137
14812TIP3    H165927   3.825   3.772   5.408 -0.4605  0.6948  0.5813
14812TIP3    H265928   3.842   3.917   5.366 -0.2264  0.9133  1.4091
14813TIP3   OH265929   0.296   1.677   0.868  0.3229 -0.4902  0.1188
14813TIP3    H165930   0.312   1.744   0.934  3.0932  0.5344 -1.4194
14813TIP3    H265931   0.276   1.598   0.918 -0.1198  0.8034  2.0689
14814TIP3   OH265932   4.743   5.479  14.599 -0.2621 -0.4120  0.1921
14814TIP3    H165933   4.744   5.421  14.522  0.3024  0.0472 -0.1580
14814TIP3    H265934   4.704   5.560  14.567  1.0381  0.1835  0.0754
14815TIP3   OH265935   2.495   5.044   5.551 -0.0302 -0.7184 -0.0394
14815TIP3    H165936   2.543   4.990   5.613  0.3169 -0.1015  0.2370
14815TIP3    H265937   2.563   5.093   5.504 -0.3908  0.4049  0.5813
14816TIP3   OH265938   4.716   3.849   5.987 -0.1595 -0.3783  0.0563
14816TIP3    H165939   4.621   3.842   5.999 -0.1689  1.3459  1.3363
14816TIP3    H265940   4.739   3.770   5.938 -2.2367 -0.8605 -0.2608
14817TIP3   OH265941   3.661   1.936  12.394  0.0870  0.1798  0.1066
14817TIP3    H165942   3.640   1.850  12.431  0.9751 -0.6337 -1.1948
14817TIP3    H265943   3.608   1.940  12.314 -0.1110  0.9476  0.2725
14818TIP3   OH265944   2.825   0.237  13.218 -0.7466 -0.2115  0.4276
14818TIP3    H165945   2.753   0.189  13.258 -1.3128 -0.2913 -0.6471
14818TIP3    H265946   2.811   0.227  13.124 -0.6596  1.7273  0.1669
14819TIP3   OH265947   1.184   2.831  16.433  0.3098  0.4236  0.1392
14819TIP3    H165948   1.134   2.891  16.377  0.7492 -0.1383 -0.8632
14819TIP3    H265949   1.270   2.871  16.440  0.6708 -0.1759 -0.7068
14820TIP3   OH265950   1.480   6.542   6.309 -0.9446  0.0758  0.4202
14820TIP3    H165951   1.435   6.527   6.392 -1.7066  2.6555  0.5468
14820TIP3    H265952   1.435   6.485   6.247 -1.5715 -0.5228  1.3959
14821TIP3   OH265953   0.853   1.077  11.323  0.0586 -0.4393  0.8568
14821TIP3    H165954   0.923   1.012  11.318 -0.1274 -0.5745 -1.5287
14821TIP3    H265955   0.888   1.153  11.277 -0.5666  0.3174  1.5954
14822TIP3   OH265956   5.710   1.427   0.930 -0.1325  0.3550 -0.3462
14822TIP3    H165957   5.704   1.444   0.836  0.6984  0.9337 -0.3028
14822TIP3    H265958   5.759   1.345   0.937  0.2046  0.5512 -0.4046
14823TIP3   OH265959   1.527   5.004  15.673  0.0595 -0.1653  0.4522
14823TIP3    H165960   1.507   4.932  15.614  0.2211 -1.4463  1.8958
14823TIP3    H265961   1.446   5.017  15.724  1.1100 -1.8957  2.7462
14824TIP3   OH265962   1.933   0.087  15.763 -0.1038 -0.3882  0.2459
14824TIP3    H165963   1.973   0.142  15.695 -1.2111 -0.9794 -0.9369
14824TIP3    H265964   1.887   0.019  15.714 -1.6996 -0.3128  1.5572
14825TIP3   OH265965   0.874   1.244   5.038  0.2458 -0.0241  0.3342
14825TIP3    H165966   0.795   1.204   5.000  0.8006 -2.0089  1.1410
14825TIP3    H265967   0.844   1.329   5.071 -1.2455 -0.1610 -0.5737
14826TIP3   OH265968   6.688   5.384  15.423 -0.0099 -0.6825  0.0931
14826TIP3    H165969   6.773   5.341  15.430  1.4299  2.0381  1.1665
14826TIP3    H265970   6.669   5.416  15.511 -0.9982  0.7088 -0.5683
14827TIP3   OH265971   4.060   6.403   6.472 -0.0807 -0.0964  0.9475
14827TIP3    H165972   4.123   6.404   6.544  1.8378  0.7962 -0.6677
14827TIP3    H265973   4.076   6.321   6.426 -0.3301 -0.0179  0.7160
14828TIP3   OH265974   3.868   0.410   3.067 -0.3815  0.4857 -0.4652
14828TIP3    H165975   3.849   0.335   3.123 -1.2228  0.7292 -0.4174
14828TIP3    H265976   3.862   0.376   2.978 -1.4529  0.6368 -0.4651
14829TIP3   OH265977   2.977   3.320   5.199  0.0376  0.0604  0.9234
14829TIP3    H165978   2.977   3.295   5.107 -1.8443  2.3012  0.2479
14829TIP3    H265979   2.904   3.271   5.237  0.1210 -0.0175  0.9843
14830TIP3   OH265980   4.261   4.344  17.109  0.4322 -0.4375  0.3871
14830TIP3    H165981   4.275   4.415  17.046 -0.3909 -0.0055  0.6827
14830TIP3    H265982   4.166   4.332  17.112  0.5533 -1.6164  0.2758
14831TIP3   OH265983   2.782   4.489   3.014 -0.2740  0.2385  0.7794
14831TIP3    H165984   2.726   4.505   3.090  0.3138 -1.4485  1.6100
14831TIP3    H265985   2.868   4.470   3.051 -0.6363 -3.7283  0.0021
14832TIP3   OH265986   2.901   4.330  16.353  0.7452 -0.4298  0.3283
14832TIP3    H165987   2.820   4.371  16.322  0.8256 -1.0474 -0.7371
14832TIP3    H265988   2.879   4.298  16.441 -0.6107 -1.8069 -0.4680
14833TIP3   OH265989   2.793   3.460   5.505  0.0784  0.0957  0.9702
14833TIP3    H165990   2.752   3.391   5.557  1.0357 -0.3285  1.1829
14833TIP3    H265991   2.847   3.509   5.567  2.4122 -1.3191  0.2209
14834TIP3   OH265992   4.193   0.371  14.037  0.1225  0.4044  0.5322
14834TIP3    H165993   4.200   0.285  13.994  0.8372  0.5076  0.4283
14834TIP3    H265994   4.197   0.351  14.130 -4.9409 -0.1990  0.8819
14835TIP3   OH265995   0.585   0.294   2.420 -0.2853 -0.0641  0.4803
14835TIP3    H165996   0.674   0.327   2.410 -0.6633  0.6272 -0.8124
14835TIP3    H265997   0.529   0.367   2.393 -1.1863 -1.1385 -0.6855
14836TIP3   OH265998   5.764   4.896  15.309  0.0385 -0.4950  0.0461
14836TIP3    H165999   5.765   4.818  15.254  1.5436 -1.9614  2.0063
14836TIP3    H266000   5.829   4.878  15.378 -0.8266  1.7481  1.5739
14837TIP3   OH266001   1.262   6.584   3.474 -0.0595  0.0244 -0.1306
14837TIP3    H166002   1.244   6.624   3.388 -1.4618 -1.0869 -0.3788
14837TIP3    H266003   1.256   6.657   3.535  1.2257  0.8924 -0.9678
14838TIP3   OH266004   0.104   3.704   4.701  0.2996 -0.0963 -0.5439
14838TIP3    H166005   0.170   3.684   4.769 -0.8654 -1.0029  0.3571
14838TIP3    H266006   0.031   3.742   4.750 -1.0192 -1.7910 -1.1121
14839TIP3   OH266007   6.206   5.917   0.402 -0.2213 -0.0721  0.0616
14839TIP3    H166008   6.291   5.897   0.441 -0.5438  0.0950  0.8837
14839TIP3    H266009   6.225   5.975   0.329  0.4882 -1.1840 -0.6598
14840TIP3   OH266010   3.158   3.397  12.625 -0.1646  0.1194  0.1603
14840TIP3    H166011   3.239   3.383  12.576 -0.4038  0.9336 -0.4951
14840TIP3    H266012   3.163   3.335  12.698  0.3473 -0.8898 -0.7025
14841TIP3   OH266013   6.344   4.069  15.985  0.5751 -0.0103  0.7774
14841TIP3    H166014   6.308   4.088  15.898 -0.5147  0.3653  1.2981
14841TIP3    H266015   6.275   4.093  16.046  1.4002 -0.0815  1.7745
14842TIP3   OH266016   3.516   4.960   3.240 -1.0296 -0.1506  0.4483
14842TIP3    H166017   3.461   4.920   3.308  0.0851 -1.9579  0.3624
14842TIP3    H266018   3.556   5.035   3.284 -0.1873 -1.3917  1.9003
14843TIP3   OH266019   6.293   0.952   4.454  0.0565  0.6914  0.4034
14843TIP3    H166020   6.357   0.993   4.511  0.0867 -0.1484  0.9824
14843TIP3    H266021   6.320   0.978   4.365  0.9382  0.6952  0.6668
14844TIP3   OH266022   0.707   4.786   2.509 -0.4865  0.4752  0.7741
14844TIP3    H166023   0.721   4.823   2.422  1.6106  0.4612  1.0477
14844TIP3    H266024   0.644   4.715   2.496  1.5908 -1.1612 -1.2273
14845TIP3   OH266025   1.893   3.797   0.257  0.7895 -0.1029 -0.7364
14845TIP3    H166026   1.913   3.745   0.180  0.1299 -0.8623 -0.4071
14845TIP3    H266027   1.802   3.825   0.246  0.5371 -0.6118 -0.0224
14846TIP3   OH266028   5.150   3.495  16.268  0.1235  0.4015 -0.1796
14846TIP3    H166029   5.054   3.491  16.266  0.1051  0.8033 -0.0509
14846TIP3    H266030   5.177   3.442  16.192 -0.1156 -2.2386  1.4489
14847TIP3   OH266031   6.802   0.965   3.117  0.0556 -0.0488 -0.9140
14847TIP3    H166032   6.741   0.894   3.137  0.7096 -0.1259  0.9158
14847TIP3    H266033   6.796   0.975   3.022 -2.5202 -0.3010 -0.8444
14848TIP3   OH266034   3.528   0.593  13.554 -0.3545  0.0311  0.9577
14848TIP3    H166035   3.546   0.617  13.646 -1.0519  1.9244  0.6572
14848TIP3    H266036   3.599   0.634  13.505 -1.0454  0.7074  0.4970
14849TIP3   OH266037   0.448   6.537   1.790  0.1970 -0.1176 -0.3650
14849TIP3    H166038   0.521   6.476   1.781  0.4410  0.1102  0.0640
14849TIP3    H266039   0.470   6.591   1.866  0.5011  1.2237 -1.3582
14850TIP3   OH266040   0.060   5.279   2.118  0.3161 -0.0571 -0.0637
14850TIP3    H166041   0.082   5.237   2.035 -0.2805 -2.0573  0.7242
14850TIP3    H266042  -0.019   5.330   2.100  0.4793 -0.0630 -0.8271
14851TIP3   OH266043   5.921   4.115   5.897 -0.4971  0.2973  0.4842
14851TIP3    H166044   5.839   4.115   5.945 -0.1756  3.2466  1.2051
14851TIP3    H266045   5.895   4.103   5.805 -1.5108 -0.7888  0.8940
14852TIP3   OH266046   1.334   5.059  15.863  0.7652 -0.1796  0.3542
14852TIP3    H166047   1.351   4.968  15.886 -0.7602 -0.5609  0.0556
14852TIP3    H266048   1.383   5.110  15.928  2.5161 -1.1769 -0.1248
14853TIP3   OH266049   4.512   6.664   4.310  0.2531  0.5072  0.2165
14853TIP3    H166050   4.541   6.749   4.345  0.4457  0.3783  0.3717
14853TIP3    H266051   4.593   6.616   4.295  0.2025  0.7043 -0.7801
14854TIP3   OH266052   0.885   3.903  13.466 -0.0946  0.4698  0.2618
14854TIP3    H166053   0.962   3.882  13.518 -0.4422 -3.1846 -0.4465
14854TIP3    H266054   0.902   3.865  13.380 -2.9886 -1.3821  0.3790
14855TIP3   OH266055   5.982   5.896  16.349 -0.6607  0.1292 -0.8125
14855TIP3    H166056   6.014   5.849  16.272  0.5920 -0.6897  0.1740
14855TIP3    H266057   6.015   5.846  16.424 -0.6983  1.6546  0.2780
14856TIP3   OH266058   4.690   3.764   5.357 -0.2114 -0.2471  0.4750
14856TIP3    H166059   4.642   3.809   5.287 -0.3531 -1.0113  0.0664
14856TIP3    H266060   4.639   3.685   5.374 -0.2860  0.0255  1.5935
14857TIP3   OH266061   2.522   0.763   6.411  0.2631 -0.4774 -0.0885
14857TIP3    H166062   2.557   0.743   6.498  0.2657 -1.6050 -0.3317
14857TIP3    H266063   2.580   0.717   6.350  0.8268  1.0645 -0.7718
14858TIP3   OH266064   5.649   0.481  16.897 -0.1041 -0.2210 -0.4909
14858TIP3    H166065   5.696   0.537  16.958 -1.2459  1.6459 -1.2264
14858TIP3    H266066   5.619   0.407  16.950  1.4233 -0.1544  0.5208
14859TIP3   OH266067   0.228   5.486  16.035 -0.2538  0.0104  0.3374
14859TIP3    H166068   0.203   5.431  16.110 -1.6112 -1.9140 -1.4083
14859TIP3    H266069   0.272   5.561  16.074 -0.3407 -1.2109  3.0198
14860TIP3   OH266070   4.773   2.034  11.247  0.0714  0.3205 -0.6231
14860TIP3    H166071   4.785   2.110  11.189  0.1528  0.1506 -0.8310
14860TIP3    H266072   4.722   1.972  11.195  1.9229 -0.7001 -1.2979
14861TIP3   OH266073   3.005   3.041   2.128 -0.2557  0.1008  0.1949
14861TIP3    H166074   2.935   2.997   2.080 -0.4441  1.0177 -0.3887
14861TIP3    H266075   2.971   3.129   2.146  0.9053  0.7111 -0.4880
14862TIP3   OH266076   2.495   0.439  14.810 -0.6583  0.5362  0.0104
14862TIP3    H166077   2.537   0.453  14.895 -0.5585 -0.9144  0.2197
14862TIP3    H266078   2.568   0.430  14.749 -0.7297  1.7206 -0.2861
14863TIP3   OH266079   4.403   3.845  13.471  0.2351  0.5211 -0.0691
14863TIP3    H166080   4.481   3.892  13.441  1.5528 -1.5563 -0.1310
14863TIP3    H266081   4.367   3.805  13.392  0.7374 -0.7714  0.3322
14864TIP3   OH266082   6.036   6.444   3.244  0.9969 -0.0916  0.0591
14864TIP3    H166083   6.063   6.521   3.195 -0.1363 -0.3149 -0.9680
14864TIP3    H266084   5.958   6.471   3.291  0.0504 -0.8178 -1.0207
14865TIP3   OH266085   1.322   6.145  11.389  0.3298  0.2780  0.9702
14865TIP3    H166086   1.351   6.236  11.377 -1.5453  0.8606  0.4554
14865TIP3    H266087   1.390   6.092  11.347 -0.2544  1.6655 -2.0140
14866TIP3   OH266088   4.462   6.282  14.849  0.7248  0.4525  0.3405
14866TIP3    H166089   4.452   6.205  14.906 -0.1206  1.0707  1.0634
14866TIP3    H266090   4.387   6.277  14.790  0.8935  0.5166  0.1196
14867TIP3   OH266091   3.742   2.455  16.521 -0.0685 -0.0477 -0.0923
14867TIP3    H166092   3.726   2.503  16.440  0.2297 -1.8601 -1.2753
14867TIP3    H266093   3.805   2.386  16.497 -1.9746 -2.3154  0.9766
14868TIP3   OH266094   1.808   0.462   0.136  0.3261 -0.1192 -0.1078
14868TIP3    H166095   1.823   0.391   0.199 -0.2746 -0.6494 -0.5384
14868TIP3    H266096   1.744   0.425   0.074 -0.1148  0.8547 -0.2482
14869TIP3   OH266097   3.151   2.046  10.750 -0.7060  0.2394  0.2327
14869TIP3    H166098   3.065   2.059  10.791 -0.5264 -1.6942  1.3739
14869TIP3    H266099   3.164   1.951  10.754  1.7738  0.5461  0.7198
14870TIP3   OH266100   6.853   0.518   3.757  0.1731  0.5251 -0.0659
14870TIP3    H166101   6.858   0.507   3.852  0.8337 -0.3625 -0.1870
14870TIP3    H266102   6.900   0.599   3.739  1.1214  0.0666  0.2684
14871TIP3   OH266103   2.709   5.823  14.157 -0.0118  0.2802 -0.1120
14871TIP3    H166104   2.776   5.826  14.225 -0.6371  0.8192  0.4911
14871TIP3    H266105   2.696   5.729  14.140 -1.3285  0.0317  2.0023
14872TIP3   OH266106   3.292   1.233  15.873  0.1834 -0.3283  0.2621
14872TIP3    H166107   3.353   1.161  15.859  0.6892 -0.1382  1.3769
14872TIP3    H266108   3.346   1.312  15.873  0.1297 -0.2447  2.3095
14873TIP3   OH266109   3.393   0.690   4.374 -0.6117 -0.5692 -0.1909
14873TIP3    H166110   3.342   0.631   4.319 -1.9931 -0.7899  1.2375
14873TIP3    H266111   3.436   0.633   4.437 -1.5060 -0.1327  0.8478
14874TIP3   OH266112   3.314   6.118   3.615  0.3937 -0.1875  0.5081
14874TIP3    H166113   3.241   6.056   3.604  0.1644  0.2540 -0.5534
14874TIP3    H266114   3.275   6.193   3.659  0.2026  0.0475 -0.0578
14875TIP3   OH266115   5.912   3.756   2.993  0.1697 -0.2917 -0.0652
14875TIP3    H166116   5.864   3.771   2.911  0.8785 -0.4351 -0.5166
14875TIP3    H266117   5.922   3.843   3.031  1.0105 -0.0387 -0.8158
14876TIP3   OH266118   1.102   4.149   3.766  0.2177 -0.4019  0.4335
14876TIP3    H166119   1.130   4.196   3.687  1.0969  0.7857  1.4288
14876TIP3    H266120   1.119   4.057   3.745 -0.3720 -0.1975 -1.0754
14877TIP3   OH266121   1.056   5.772  14.511 -0.5239  0.0103  0.2739
14877TIP3    H166122   1.050   5.678  14.529 -1.1657 -0.0457 -0.2109
14877TIP3    H266123   0.979   5.792  14.458  0.2950  0.5531 -0.7470
14878TIP3   OH266124   1.119   5.514   2.867  0.7554  0.3276 -0.3153
14878TIP3    H166125   1.158   5.581   2.811  1.1669  0.6925  0.3805
14878TIP3    H266126   1.150   5.537   2.955 -0.0678 -0.0814  0.0905
14879TIP3   OH266127   3.488   3.093   2.389  0.4274  0.1797  0.9306
14879TIP3    H166128   3.533   3.017   2.351  1.8432  0.9358  1.0376
14879TIP3    H266129   3.407   3.100   2.338 -0.2000 -1.9231  1.5187
14880TIP3   OH266130   1.422   6.847   3.697 -0.0939 -0.2540 -0.6315
14880TIP3    H166131   1.464   6.787   3.635 -0.6097 -0.8673 -0.3863
14880TIP3    H266132   1.397   6.793   3.771 -1.8107 -0.0106 -0.9957
14881TIP3   OH266133   0.725   2.491   1.139 -0.4933 -0.0717  0.0332
14881TIP3    H166134   0.647   2.500   1.085 -0.1364 -0.2248 -0.5143
14881TIP3    H266135   0.711   2.411   1.188 -0.2065 -0.6871 -0.8685
14882TIP3   OH266136   3.193   0.430   1.377  0.0945 -0.8442  0.1926
14882TIP3    H166137   3.136   0.507   1.374 -0.3216 -1.1339  0.4745
14882TIP3    H266138   3.234   0.434   1.463 -0.6401 -1.4265  0.5873
14883TIP3   OH266139   1.433   0.523   5.719  0.3067 -0.0930 -0.7092
14883TIP3    H166140   1.355   0.500   5.770  0.8372 -2.2426 -0.7392
14883TIP3    H266141   1.462   0.439   5.682  2.4144  0.7155 -1.0079
14884TIP3   OH266142   1.502   3.191   2.205 -0.1156 -0.0253  0.2048
14884TIP3    H166143   1.408   3.179   2.190 -0.2284  0.1077  0.7541
14884TIP3    H266144   1.514   3.171   2.298  0.5864 -1.0975 -0.0933
14885TIP3   OH266145   5.766   5.324   3.949  0.4009  0.0300 -0.0358
14885TIP3    H166146   5.714   5.244   3.946  0.6007 -0.0931 -0.2262
14885TIP3    H266147   5.717   5.386   3.896  0.4370 -0.0793 -0.1962
14886TIP3   OH266148   4.697   5.713   5.292 -0.2857 -0.0309  0.3169
14886TIP3    H166149   4.712   5.782   5.356 -1.7291  0.0330  0.6138
14886TIP3    H266150   4.751   5.737   5.217  0.3336  0.6372  0.9639
14887TIP3   OH266151   2.840   3.314   6.127  0.2074 -0.0022  0.4487
14887TIP3    H166152   2.836   3.219   6.136 -1.2751 -0.0527 -0.4724
14887TIP3    H266153   2.928   3.337   6.155  1.1539 -1.8233 -0.8534
14888TIP3   OH266154   0.338   5.144   2.925  0.0268  0.2778  0.1005
14888TIP3    H166155   0.293   5.087   2.863 -0.2736 -0.0963  0.6519
14888TIP3    H266156   0.428   5.110   2.928  0.5392  1.3965 -1.4507
14889TIP3   OH266157   5.284   3.667  13.364 -0.1748  0.3463  0.2516
14889TIP3    H166158   5.371   3.655  13.400  0.4944 -0.0464 -1.4106
14889TIP3    H266159   5.236   3.588  13.389  0.2288  0.1394  0.3800
14890TIP3   OH266160   4.780   4.628  15.729 -0.0870 -0.2734 -0.5819
14890TIP3    H166161   4.800   4.712  15.769 -0.7760 -0.4020  0.0718
14890TIP3    H266162   4.854   4.609  15.672 -0.0035  0.8469 -0.8539
14891TIP3   OH266163   0.546   6.479   1.322 -0.5806 -0.4261  0.4647
14891TIP3    H166164   0.516   6.568   1.338 -0.7099 -0.5794  1.0965
14891TIP3    H266165   0.558   6.474   1.227 -1.0758  0.0987  0.3733
14892TIP3   OH266166   0.717   2.315   3.227  0.1494  0.2333 -0.0651
14892TIP3    H166167   0.808   2.307   3.253 -0.2815  0.6503  1.6984
14892TIP3    H266168   0.675   2.236   3.261 -0.2547  0.3343 -0.3187
14893TIP3   OH266169   6.387   5.742  12.214  0.5111  0.1705  0.0374
14893TIP3    H166170   6.352   5.828  12.190  0.9678  0.1115 -0.8869
14893TIP3    H266171   6.463   5.730  12.157  0.0189 -1.1668 -0.3769
14894TIP3   OH266172   4.575   2.804  15.809 -0.3788 -0.2248 -0.0905
14894TIP3    H166173   4.480   2.807  15.802 -0.4635 -0.5207  0.8098
14894TIP3    H266174   4.606   2.798  15.719 -1.1384  1.4808 -0.5090
14895TIP3   OH266175   4.488   1.564   4.148  0.0242  0.3413  0.5742
14895TIP3    H166176   4.528   1.481   4.175 -1.3439 -0.6071 -0.2026
14895TIP3    H266177   4.400   1.562   4.185 -0.9264  0.2504 -1.5376
14896TIP3   OH266178   2.065   3.704   0.052 -0.3196 -0.0887 -0.0612
14896TIP3    H166179   2.086   3.727  -0.038 -1.4762  0.6723 -0.1593
14896TIP3    H266180   2.113   3.623   0.069  1.6802  0.9249 -0.6205
14897TIP3   OH266181   1.512   4.242  16.678 -0.2758  0.6430 -0.2150
14897TIP3    H166182   1.420   4.217  16.672  0.2415 -1.3552 -0.5864
14897TIP3    H266183   1.515   4.331  16.645 -2.1301  0.9211  0.2301
14898TIP3   OH266184   4.673   1.251  13.769 -0.3382  0.2348 -0.4462
14898TIP3    H166185   4.764   1.223  13.757 -0.1740 -0.5077  1.8851
14898TIP3    H266186   4.628   1.222  13.690  1.0710 -1.2623 -0.7569
14899TIP3   OH266187   5.262   1.048   5.670 -0.3316  0.1882 -0.0655
14899TIP3    H166188   5.299   0.960   5.665 -0.6461 -0.0629  1.4631
14899TIP3    H266189   5.309   1.091   5.741  0.2430  1.4983 -1.1883
14900TIP3   OH266190   1.600   2.170   2.962  0.1637 -0.5615 -0.5695
14900TIP3    H166191   1.516   2.148   2.921 -0.0351 -0.5049 -0.2039
14900TIP3    H266192   1.627   2.089   3.005 -0.5366 -0.1363  0.7239
14901TIP3   OH266193   2.716   4.149  16.894  0.3129 -0.8553  0.8188
14901TIP3    H166194   2.685   4.131  16.983 -0.3858 -1.8373  0.3909
14901TIP3    H266195   2.642   4.126  16.838  0.1091  1.3701  0.0663
14902TIP3   OH266196   5.353   0.193  10.888  0.4205 -0.3123 -0.4129
14902TIP3    H166197   5.429   0.143  10.915  0.7221 -0.2092 -1.0451
14902TIP3    H266198   5.386   0.282  10.874 -0.2355  0.2307  1.3123
14903TIP3   OH266199   1.866   4.854   0.024 -0.5080 -0.2818 -0.4014
14903TIP3    H166200   1.842   4.883   0.112  1.0660 -2.7356  0.9453
14903TIP3    H266201   1.785   4.822  -0.014 -2.0005  3.9172 -1.3765
14904TIP3   OH266202   4.005   2.649   4.135 -0.7271 -0.0517  0.0026
14904TIP3    H166203   4.025   2.742   4.129  0.5517 -0.2652  0.6254
14904TIP3    H266204   3.912   2.646   4.157 -1.0727  1.0363 -1.1840
14905TIP3   OH266205   3.399   2.119  12.500 -0.3766  0.0618 -0.7078
14905TIP3    H166206   3.410   2.028  12.525 -0.1024 -0.0481 -1.1976
14905TIP3    H266207   3.452   2.128  12.420 -1.9307  0.1550 -1.7846
14906TIP3   OH266208   2.699   3.320   0.258  0.2277 -0.4738  0.1395
14906TIP3    H166209   2.667   3.356   0.175  0.7463  1.4424  0.7136
14906TIP3    H266210   2.698   3.225   0.245 -0.2676 -0.2438 -1.8389
14907TIP3   OH266211   5.345   5.560   6.761  0.1437 -0.4315 -0.3405
14907TIP3    H166212   5.399   5.497   6.712  0.2397 -1.4632  1.0459
14907TIP3    H266213   5.401   5.590   6.832 -0.6798 -0.5485  0.3706
14908TIP3   OH266214   4.599   0.602  14.177 -0.3809  0.6445  0.2925
14908TIP3    H166215   4.561   0.680  14.137  2.6941  3.4635  2.2515
14908TIP3    H266216   4.576   0.609  14.270 -0.6765 -1.2639  0.4020
14909TIP3   OH266217   1.173   5.138   3.141 -0.5149  0.3797 -0.0552
14909TIP3    H166218   1.165   5.047   3.168 -0.6979 -0.1322 -1.7553
14909TIP3    H266219   1.237   5.137   3.070  2.2646  2.0957  2.2062
14910TIP3   OH266220   1.785   4.901  15.898  0.6331  0.3308 -0.3665
14910TIP3    H166221   1.740   4.974  15.856 -1.0967 -0.1998  0.4477
14910TIP3    H266222   1.848   4.871  15.833  0.4481  1.6968 -1.2153
14911TIP3   OH266223   2.072   0.525  13.034  0.3521  0.5075  0.5202
14911TIP3    H166224   2.028   0.464  12.975 -0.9934 -0.0655  2.0195
14911TIP3    H266225   2.041   0.611  13.007  0.7695  0.3648 -0.4195
14912TIP3   OH266226   4.962   6.140   3.471  0.1091  0.3140 -0.0007
14912TIP3    H166227   4.981   6.232   3.494 -0.6132  0.4106  0.2262
14912TIP3    H266228   4.871   6.141   3.441  0.1542 -0.3025 -0.1652
14913TIP3   OH266229   3.751   0.843   6.395  0.0600  0.1684 -0.1924
14913TIP3    H166230   3.831   0.801   6.363 -0.4182  0.0681 -1.3237
14913TIP3    H266231   3.753   0.931   6.358 -0.1987  0.2744  0.0417
14914TIP3   OH266232   2.658   4.839  11.571  0.1762  0.2159  0.1158
14914TIP3    H166233   2.685   4.773  11.636  0.4194  0.0867 -0.1153
14914TIP3    H266234   2.577   4.875  11.607  0.5787  0.5095  0.7503
14915TIP3   OH266235   0.087   6.419   1.976  0.5884  0.4586 -0.1954
14915TIP3    H166236   0.135   6.456   2.050  1.3636  0.8503 -0.8799
14915TIP3    H266237  -0.003   6.410   2.008  1.4137 -1.9928  1.7313
14916TIP3   OH266238   6.792   1.257  11.004 -0.0742  0.2495 -0.9066
14916TIP3    H166239   6.870   1.211  11.035  0.1337  1.1246 -0.1245
14916TIP3    H266240   6.804   1.261  10.909  0.1603 -0.8359 -0.9391
14917TIP3   OH266241   3.959   5.118  11.021  0.4983 -0.4579  0.6664
14917TIP3    H166242   3.949   5.175  10.945  1.5074 -1.4211 -0.2202
14917TIP3    H266243   4.045   5.077  11.009 -0.5304 -2.8044  0.8203
14918TIP3   OH266244   4.608   6.347  14.280 -0.1938  0.5919 -0.1557
14918TIP3    H166245   4.562   6.264  14.264  2.9380 -1.3081 -0.1710
14918TIP3    H266246   4.592   6.366  14.372 -1.4608  0.3263 -0.3050
14919TIP3   OH266247   4.315   6.304   3.689  0.1756  0.3548 -0.0414
14919TIP3    H166248   4.227   6.292   3.723  0.6037  0.2925  1.0853
14919TIP3    H266249   4.303   6.313   3.594 -1.1881  1.8516  0.2274
14920TIP3   OH266250   5.115   4.834   6.107 -0.2900  0.2033 -0.1038
14920TIP3    H166251   5.089   4.763   6.166  0.0991 -0.3817 -0.6192
14920TIP3    H266252   5.033   4.872   6.077 -0.5573 -0.9780 -0.9534
14921TIP3   OH266253   2.765   1.114   1.338  0.7074 -0.1130 -0.3803
14921TIP3    H166254   2.682   1.161   1.342  1.3261  0.9455  0.8621
14921TIP3    H266255   2.752   1.037   1.394  0.8396  0.5420  0.5644
14922TIP3   OH266256   5.517   1.135  15.603  0.3980  0.1242  0.1513
14922TIP3    H166257   5.517   1.195  15.678 -1.1052  1.7418 -1.0455
14922TIP3    H266258   5.449   1.070  15.624 -1.0222  1.3868 -0.3435
14923TIP3   OH266259   5.838   1.661  14.436 -0.3663 -0.1677  0.2920
14923TIP3    H166260   5.828   1.589  14.498  0.5255  0.3737  1.0975
14923TIP3    H266261   5.849   1.619  14.351 -1.4196 -0.9315  0.5077
14924TIP3   OH266262   6.024   4.905   0.884 -0.1796  0.1677 -0.6171
14924TIP3    H166263   6.028   4.994   0.919 -0.8373  0.3947 -1.1217
14924TIP3    H266264   6.002   4.851   0.960  1.8949  0.1823  0.0824
14925TIP3   OH266265   1.225   1.870   3.999  0.4821  1.0831 -0.5340
14925TIP3    H166266   1.194   1.903   3.915 -1.2730 -1.8906 -1.1776
14925TIP3    H266267   1.250   1.780   3.983  0.7845  0.6270  1.9816
14926TIP3   OH266268   2.620   4.770  15.504  0.2479 -0.0912  0.0980
14926TIP3    H166269   2.530   4.802  15.512  0.0179 -1.0916  2.2508
14926TIP3    H266270   2.662   4.797  15.585  1.1526 -1.7644  0.2284
14927TIP3   OH266271   1.099   1.935  15.759  0.5047 -0.0261  0.1418
14927TIP3    H166272   1.012   1.896  15.757  1.5393 -2.4566 -0.2853
14927TIP3    H266273   1.115   1.954  15.851 -0.1755 -0.2801  0.3142
14928TIP3   OH266274   6.224   6.345  13.246  0.2269  0.1632 -0.1314
14928TIP3    H166275   6.311   6.341  13.208 -0.4001 -3.1339 -1.5560
14928TIP3    H266276   6.168   6.378  13.176 -0.0900 -0.5333 -0.2145
14929TIP3   OH266277   4.734   2.822   0.025  0.1045 -0.6295  0.2390
14929TIP3    H166278   4.692   2.779  -0.049  1.0619 -0.8888 -0.1584
14929TIP3    H266279   4.822   2.786   0.028  1.3826  2.1449 -0.8501
14930TIP3   OH266280   5.082   3.160  13.958 -0.2024  0.2211 -0.3909
14930TIP3    H166281   5.011   3.224  13.957  0.2786  0.7780 -1.3520
14930TIP3    H266282   5.062   3.102  14.030 -0.5347  1.6080  0.6770
14931TIP3   OH266283   4.713   6.162  15.067  0.2526  0.5397 -0.2253
14931TIP3    H166284   4.728   6.207  15.150 -0.1312  1.5030 -0.6575
14931TIP3    H266285   4.795   6.116  15.049 -0.0232 -0.5837  1.2094
14932TIP3   OH266286   4.345   2.187  11.337 -0.3359 -0.0093  0.2125
14932TIP3    H166287   4.381   2.253  11.396  1.0341 -1.4706  1.1135
14932TIP3    H266288   4.406   2.185  11.263  0.3189 -1.0378  0.7492
14933TIP3   OH266289   4.371   5.129   2.878  0.4870 -0.2711  0.2996
14933TIP3    H166290   4.330   5.111   2.962  1.3512 -0.1920  0.7497
14933TIP3    H266291   4.298   5.149   2.819 -0.0387  1.7869  1.5512
14934TIP3   OH266292   5.949   0.028   1.113  0.1591 -0.2558  0.3049
14934TIP3    H166293   5.956  -0.021   1.196  0.4815 -1.1706 -0.2480
14934TIP3    H266294   5.970  -0.037   1.046 -1.2240  0.1765 -0.5785
14935TIP3   OH266295   3.120   6.423   2.028  0.1734 -0.1071 -0.4937
14935TIP3    H166296   3.093   6.458   1.943 -0.5803  1.5319  0.3709
14935TIP3    H266297   3.178   6.350   2.007  1.2115  1.1924 -2.4149
14936TIP3   OH266298   1.586   1.113  14.186 -0.0736  0.0574 -0.4158
14936TIP3    H166299   1.548   1.047  14.244 -1.3084  1.0599 -0.0592
14936TIP3    H266300   1.680   1.109  14.205 -0.3524 -0.2291  1.0409
14937TIP3   OH266301   4.927   2.587  11.228  0.6229 -0.0274  0.0594
14937TIP3    H166302   4.865   2.658  11.247  1.0820  0.6423 -0.9049
14937TIP3    H266303   4.885   2.537  11.159  1.2300  0.5389 -0.7305
14938TIP3   OH266304   2.839   0.635  16.387  0.5309  0.1189 -0.6105
14938TIP3    H166305   2.890   0.587  16.321 -0.6255  2.8135 -3.8083
14938TIP3    H266306   2.888   0.717  16.399 -1.2225  1.3070 -1.1792
14939TIP3   OH266307   1.942   1.744   0.215  0.2254  0.0448 -0.6714
14939TIP3    H166308   1.918   1.657   0.186 -0.5675  0.4075 -1.1318
14939TIP3    H266309   1.935   1.741   0.311 -2.4300  0.3106 -0.7733
14940TIP3   OH266310   6.401   1.252   0.246 -0.0783 -0.0613  0.2843
14940TIP3    H166311   6.353   1.272   0.326 -0.5677  2.6587 -0.5942
14940TIP3    H266312   6.360   1.172   0.213 -0.2404 -0.9216  2.4035
14941TIP3   OH266313   0.800   4.537  14.722  0.2058 -0.5433  0.0769
14941TIP3    H166314   0.805   4.442  14.731  2.1000 -0.6139 -1.2076
14941TIP3    H266315   0.807   4.570  14.812  1.5768 -1.5768  0.3780
14942TIP3   OH266316   1.737   1.263   5.573  0.0642 -0.3009 -0.1364
14942TIP3    H166317   1.817   1.246   5.624  1.1022 -0.6531 -1.7955
14942TIP3    H266318   1.679   1.307   5.634  1.0276 -1.2026  1.5052
14943TIP3   OH266319   1.653   0.430  16.001 -0.2409 -0.5457 -0.3522
14943TIP3    H166320   1.621   0.495  15.938 -0.1712 -0.9712 -0.8325
14943TIP3    H266321   1.685   0.358  15.947 -0.5971 -1.1126  0.1773
14944TIP3   OH266322   2.471   3.736   3.543  0.0952  0.2506  0.4570
14944TIP3    H166323   2.393   3.736   3.486 -0.2591 -3.4252  0.6864
14944TIP3    H266324   2.437   3.756   3.630 -0.2261  0.7807  0.2155
14945TIP3   OH266325   1.015   1.042   6.566  0.6910 -0.0043 -0.2822
14945TIP3    H166326   0.972   0.973   6.618  2.3331 -0.1000  1.0156
14945TIP3    H266327   0.963   1.120   6.583 -0.5176 -0.6524 -0.8517
14946TIP3   OH266328   4.256   4.482   5.827  0.9527  0.1242 -0.3992
14946TIP3    H166329   4.194   4.505   5.896  0.4501  0.3363 -0.9092
14946TIP3    H266330   4.331   4.540   5.841  0.1225  1.4208 -1.0669
14947TIP3   OH266331   2.447   4.151  17.025 -0.0494  0.5131 -0.0946
14947TIP3    H166332   2.375   4.205  17.059 -0.0176  1.1909 -1.0448
14947TIP3    H266333   2.433   4.150  16.930  1.9884  1.8670 -0.4726
14948TIP3   OH266334   1.905   3.410   5.089 -0.1237 -0.4241 -0.0821
14948TIP3    H166335   1.921   3.479   5.025 -0.6742 -0.1888  0.0258
14948TIP3    H266336   1.915   3.328   5.040  1.4549 -0.3077 -0.0036
14949TIP3   OH266337   6.405   1.913   1.260 -0.2819  0.0790  0.0328
14949TIP3    H166338   6.471   1.893   1.193 -0.4859  0.2560 -0.2225
14949TIP3    H266339   6.342   1.969   1.215  0.1552  1.1157  0.6728
14950TIP3   OH266340   6.028   3.121  12.225  0.0730 -0.0821 -0.4110
14950TIP3    H166341   6.077   3.072  12.291 -0.2224  0.7405  0.4377
14950TIP3    H266342   5.998   3.054  12.163  1.2033 -0.7417 -0.2793
14951TIP3   OH266343   4.500   4.160   3.182 -0.6957 -0.2334 -0.7930
14951TIP3    H166344   4.417   4.202   3.162 -0.0240  0.9950 -1.1513
14951TIP3    H266345   4.477   4.078   3.224 -2.0944  0.8913  0.7634
14952TIP3   OH266346   1.252   1.684  12.609  0.1101  0.1540 -0.4538
14952TIP3    H166347   1.331   1.693  12.557 -0.9585 -0.1177 -2.1883
14952TIP3    H266348   1.268   1.608  12.665  1.5568  0.8867  0.1839
14953TIP3   OH266349   1.513   5.957  12.512  0.3668  0.2760  0.1763
14953TIP3    H166350   1.530   5.946  12.419 -0.9633 -1.5810  0.0863
14953TIP3    H266351   1.418   5.947  12.520  0.4140  0.7704  1.6982
14954TIP3   OH266352   2.452   3.824  15.700  0.3566 -0.4298 -0.4025
14954TIP3    H166353   2.422   3.752  15.644  1.1160 -0.2183 -1.0868
14954TIP3    H266354   2.435   3.903  15.649  2.8300 -0.3342 -1.2106
14955TIP3   OH266355   4.311   5.632   1.233  0.3481  0.1815 -0.2634
14955TIP3    H166356   4.367   5.707   1.215 -1.6457  1.3585 -2.0258
14955TIP3    H266357   4.223   5.670   1.244 -0.9388 -1.9371 -2.3715
14956TIP3   OH266358   6.047   2.377   2.735  0.5486  0.0803  0.2206
14956TIP3    H166359   6.023   2.410   2.649 -2.8232 -2.1866  0.0745
14956TIP3    H266360   5.996   2.430   2.796  0.7148 -0.1753  0.5826
14957TIP3   OH266361   0.838   6.090  15.435 -0.0527  0.3971  0.2210
14957TIP3    H166362   0.816   6.015  15.490 -2.7486  0.8592 -0.0670
14957TIP3    H266363   0.920   6.066  15.393 -0.7392 -2.3310  0.2544
14958TIP3   OH266364   2.932   6.407  15.664 -0.0566  0.1065 -0.6445
14958TIP3    H166365   2.979   6.481  15.702  1.7601 -1.4963  0.4125
14958TIP3    H266366   2.853   6.400  15.716 -1.3181  2.4683 -2.0447
14959TIP3   OH266367   3.566   2.533   2.918 -0.7637 -0.2246 -0.0812
14959TIP3    H166368   3.502   2.477   2.875 -1.3164 -0.8227  1.4321
14959TIP3    H266369   3.648   2.514   2.873 -1.4862 -0.0812 -1.4847
14960TIP3   OH266370   5.511   5.276  14.332 -0.3028  0.6816 -0.6310
14960TIP3    H166371   5.483   5.338  14.399 -1.2670 -0.4457  0.0448
14960TIP3    H266372   5.440   5.212  14.327  1.4223 -1.4205  0.0408
14961TIP3   OH266373   0.508   5.599   5.662 -0.1581  0.1228 -0.1777
14961TIP3    H166374   0.459   5.582   5.581 -0.4322 -0.9874  0.2135
14961TIP3    H266375   0.599   5.612   5.632 -0.5157  1.3398 -0.8138
14962TIP3   OH266376   0.798   3.943   2.427 -0.1507  0.4365 -0.0430
14962TIP3    H166377   0.745   3.869   2.456  1.2022 -0.1478  1.0961
14962TIP3    H266378   0.819   3.991   2.507  0.8261  0.7764 -0.4848
14963TIP3   OH266379   5.896   0.220   2.377 -0.7517  0.2862  0.0087
14963TIP3    H166380   5.820   0.182   2.422 -1.1814 -0.1941 -1.0834
14963TIP3    H266381   5.861   0.298   2.335  0.0796  1.8577  2.0517
14964TIP3   OH266382   4.055   2.938   6.459 -0.3166  0.2022  0.1987
14964TIP3    H166383   4.062   2.844   6.446 -2.1020  0.0294  0.3041
14964TIP3    H266384   3.970   2.951   6.503  0.3780  1.7595  1.2060
14965TIP3   OH266385   3.076   5.002   6.459  0.4233 -0.0522  0.0725
14965TIP3    H166386   3.126   5.081   6.479 -1.6253  2.2045 -2.7991
14965TIP3    H266387   3.142   4.940   6.427  1.9300  0.9890  1.0191
14966TIP3   OH266388   5.249   4.168  16.434 -0.4618  0.0968 -0.3817
14966TIP3    H166389   5.251   4.262  16.453  1.0574 -0.2641  1.5933
14966TIP3    H266390   5.195   4.130  16.504  0.3747 -0.6513 -0.1132
14967TIP3   OH266391   2.278   1.337   0.095  0.0169 -0.0535 -0.3347
14967TIP3    H166392   2.257   1.255   0.140  1.2924  0.0075  0.4181
14967TIP3    H266393   2.370   1.328   0.071  1.0600  2.2171  2.2775
14968TIP3   OH266394   0.955   2.298   3.374 -0.1249 -0.3430  0.5882
14968TIP3    H166395   1.036   2.348   3.367  0.0217 -0.6601 -0.0371
14968TIP3    H266396   0.950   2.275   3.467  0.9765 -1.0763  0.5003
14969TIP3   OH266397   0.583   4.977   5.350  0.5668 -0.5094  0.2818
14969TIP3    H166398   0.605   4.885   5.363 -0.9313 -1.0113 -0.4595
14969TIP3    H266399   0.543   4.980   5.263 -1.7103  0.3597  1.2687
14970TIP3   OH266400   4.538   2.667  14.756 -0.3420  1.1941 -0.1132
14970TIP3    H166401   4.471   2.603  14.734  0.6979  0.3153 -0.7733
14970TIP3    H266402   4.495   2.752  14.742 -1.7365  0.6871  0.7921
14971TIP3   OH266403   2.578   1.702   3.111 -0.6739 -0.7416 -0.1221
14971TIP3    H166404   2.627   1.695   3.030 -1.0446 -1.0830 -0.3179
14971TIP3    H266405   2.612   1.632   3.166 -1.3336 -1.3484 -0.4703
14972TIP3   OH266406   2.055   0.749  12.190  0.1464 -0.5010  0.4374
14972TIP3    H166407   2.011   0.726  12.272  0.4174 -1.4551  0.3252
14972TIP3    H266408   2.032   0.678  12.130 -0.2231  0.2980 -0.3848
14973TIP3   OH266409   2.026   6.471   5.485 -0.0257 -0.4503 -0.0677
14973TIP3    H166410   2.019   6.508   5.574  0.2895  1.1030 -0.6585
14973TIP3    H266411   2.092   6.402   5.494 -0.2371 -0.5395  0.9774
14974TIP3   OH266412   5.094   2.542   4.659 -0.3687 -0.3340  0.4772
14974TIP3    H166413   5.018   2.594   4.633 -1.1659 -0.8797  1.6470
14974TIP3    H266414   5.163   2.606   4.677 -0.0837  0.1206 -1.8784
14975TIP3   OH266415   3.277   0.887   0.792  0.5024 -0.4505  0.1775
14975TIP3    H166416   3.200   0.836   0.817 -0.1044  0.5429  0.4321
14975TIP3    H266417   3.310   0.922   0.875  1.8297 -1.6636  0.1803
14976TIP3   OH266418   5.266   2.517   3.391  0.1398 -0.4359 -0.2547
14976TIP3    H166419   5.293   2.542   3.480  1.2252 -0.2681 -0.6186
14976TIP3    H266420   5.313   2.436   3.374 -0.0532 -0.4562 -0.6854
14977TIP3   OH266421   4.137   2.611   3.900  0.1502  0.2680 -0.0461
14977TIP3    H166422   4.106   2.615   3.991  1.1937  0.6400  0.3073
14977TIP3    H266423   4.110   2.524   3.870 -0.3844  0.2167  0.5523
14978TIP3   OH266424   0.074   6.709  10.608 -0.0722  0.5317 -0.3123
14978TIP3    H166425   0.164   6.741  10.605  0.5281 -0.6487  2.2961
14978TIP3    H266426   0.081   6.617  10.583 -0.2741  0.0457  1.3145
14979TIP3   OH266427   2.407   0.533  15.387  0.1704  0.8317 -0.0531
14979TIP3    H166428   2.390   0.469  15.318  1.3913  0.7752 -0.3206
14979TIP3    H266429   2.455   0.485  15.454  1.2629  1.4885 -0.3375
14980TIP3   OH266430   6.559   5.019  14.570  0.3940  0.4282  0.4832
14980TIP3    H166431   6.548   5.107  14.606 -0.9631  0.2292  0.6124
14980TIP3    H266432   6.568   4.962  14.647 -0.0343  0.2995  0.4397
14981TIP3   OH266433   2.193   6.749   3.970 -0.8450  0.1012  0.2778
14981TIP3    H166434   2.152   6.715   3.890  0.5134 -0.9384 -0.0222
14981TIP3    H266435   2.150   6.701   4.040 -1.4140  0.3584  0.1126
14982TIP3   OH266436   1.762   0.403   4.580  0.1533 -0.5280 -0.2265
14982TIP3    H166437   1.839   0.418   4.525 -0.7170 -0.0332 -1.3586
14982TIP3    H266438   1.697   0.365   4.520 -0.4327 -1.0815  0.7382
14983TIP3   OH266439   0.668   3.089   1.877 -0.5227  0.1951 -0.4662
14983TIP3    H166440   0.672   2.996   1.902 -0.3269  0.1266 -0.7425
14983TIP3    H266441   0.598   3.125   1.931 -0.8168 -0.1900 -0.5803
14984TIP3   OH266442   5.551   3.408   4.497  0.1963 -0.4066  0.3133
14984TIP3    H166443   5.615   3.474   4.470 -0.9550  0.6093 -0.0760
14984TIP3    H266444   5.532   3.429   4.589  2.4489 -2.4720  1.3708
14985TIP3   OH266445   4.133   5.796  14.865  0.1602  0.3371 -0.4754
14985TIP3    H166446   4.044   5.788  14.830  0.2967  2.0836 -1.3636
14985TIP3    H266447   4.121   5.809  14.959 -0.4648 -0.2874 -0.4592
14986TIP3   OH266448   6.760   4.596   2.018  0.4313 -0.7584  0.5716
14986TIP3    H166449   6.682   4.638   2.055 -0.6619 -0.8629 -1.4912
14986TIP3    H266450   6.752   4.504   2.046 -0.9266 -1.0614 -0.6823
14987TIP3   OH266451   5.914   2.605  15.963 -0.3139  0.4853  0.1185
14987TIP3    H166452   5.859   2.605  15.884 -0.3357 -0.3188  0.1220
14987TIP3    H266453   5.997   2.643  15.934 -0.0776 -0.4484 -0.4850
14988TIP3   OH266454   0.072   1.176  12.083 -0.3291  0.1979  0.3450
14988TIP3    H166455   0.069   1.169  11.988  0.1976 -0.6153  0.3755
14988TIP3    H266456   0.131   1.250  12.101 -0.7677  0.6252  0.0448
14989TIP3   OH266457   2.411   0.991  15.156 -0.1168  0.3944  0.3559
14989TIP3    H166458   2.448   0.975  15.243 -1.5466  1.2865  1.1555
14989TIP3    H266459   2.406   0.904  15.116 -1.1157 -0.2698  1.8566
14990TIP3   OH266460   5.304   5.248  12.480  0.4022  0.1280  0.1549
14990TIP3    H166461   5.311   5.156  12.506  1.5435  0.7813  2.3252
14990TIP3    H266462   5.284   5.295  12.560  1.7596  2.0125 -0.5332
14991TIP3   OH266463   4.930   3.897  16.471  0.1447  0.0617  0.4276
14991TIP3    H166464   4.972   3.857  16.395 -0.1417  1.1241 -0.3139
14991TIP3    H266465   4.848   3.848  16.482 -0.7490  1.0923 -1.1641
14992TIP3   OH266466   4.100   5.589  15.383 -0.1254  0.5625 -0.4310
14992TIP3    H166467   4.145   5.523  15.437  1.6142  0.0166 -2.4213
14992TIP3    H266468   4.023   5.543  15.349 -0.6154  0.5595  0.6418
14993TIP3   OH266469   6.838   6.083  11.635 -0.4132 -0.4489  0.1976
14993TIP3    H166470   6.851   6.017  11.703 -1.3645  1.4382  2.3824
14993TIP3    H266471   6.764   6.051  11.583  1.1576 -2.5555 -0.8781
14994TIP3   OH266472   3.819   4.161   3.316 -0.6397  1.0909  0.0135
14994TIP3    H166473   3.806   4.197   3.228 -2.0469  3.2178  0.9935
14994TIP3    H266474   3.774   4.223   3.374  2.0815  1.0320  2.4720
14995TIP3   OH266475   2.172   6.773   2.490 -0.4713  0.4294  0.3010
14995TIP3    H166476   2.206   6.840   2.431 -2.1386  0.4583 -0.6834
14995TIP3    H266477   2.135   6.706   2.431 -1.2340 -0.0494  1.2927
14996TIP3   OH266478   3.979   5.966  14.097  0.6428  0.4121 -0.6372
14996TIP3    H166479   4.048   5.903  14.115  1.8968  1.4875 -1.4704
14996TIP3    H266480   3.996   6.038  14.159  1.3317  1.4228 -1.9341
14997TIP3   OH266481   0.861   4.773  14.602 -0.2058  0.3527  0.0489
14997TIP3    H166482   0.951   4.753  14.627  0.7965 -2.2929 -4.4563
14997TIP3    H266483   0.809   4.708  14.648  0.3641  0.6809  1.2147
14998TIP3   OH266484   4.969   2.847   1.470  0.1730  0.0429  0.4189
14998TIP3    H166485   5.015   2.923   1.505  0.8718 -0.0270 -0.3372
14998TIP3    H266486   5.038   2.786   1.444 -0.3564 -0.3613 -0.0638
14999TIP3   OH266487   2.870   3.514  13.711 -0.8006  0.3912  0.0568
14999TIP3    H166488   2.860   3.560  13.628 -0.6784 -1.6917 -1.1867
14999TIP3    H266489   2.957   3.473  13.706 -1.6258 -1.4936  0.2439
15000TIP3   OH266490   5.718   1.230  11.806  0.0678 -0.2067  0.5355
15000TIP3    H166491   5.749   1.196  11.722 -0.3502  0.5200  0.0779
15000TIP3    H266492   5.627   1.202  11.811  0.2917 -0.8705  1.0936
15001TIP3   OH266493   4.054   5.797   5.609 -0.0549  0.2076 -0.3962
15001TIP3    H166494   4.052   5.751   5.525 -0.5811  0.2436 -0.4058
15001TIP3    H266495   4.064   5.727   5.674 -0.4192  0.1125 -0.4405
15002TIP3   OH266496   0.774   3.030   3.718 -0.5357  0.4880  0.3458
15002TIP3    H166497   0.743   3.119   3.732 -0.0382  0.5438  1.1256
15002TIP3    H266498   0.720   2.977   3.777 -2.2640 -0.0356 -1.5687
15003TIP3   OH266499   6.344   6.775   3.023 -0.0467  0.1472 -0.6368
15003TIP3    H166500   6.378   6.710   2.961  0.1005  0.7332 -1.1799
15003TIP3    H266501   6.250   6.779   3.004 -0.7410 -2.3413  1.6584
15004TIP3   OH266502   5.125   5.604   4.655 -0.1442  0.2189 -0.1632
15004TIP3    H166503   5.066   5.670   4.618 -2.6157 -0.2419  2.6396
15004TIP3    H266504   5.210   5.649   4.662 -1.6063  3.0252  1.2096
15005TIP3   OH266505   3.479   4.843   4.586  0.1923 -0.2267 -0.2814
15005TIP3    H166506   3.471   4.917   4.646 -0.3868 -0.3764 -0.1719
15005TIP3    H266507   3.571   4.845   4.558  0.3911  0.0343  0.3643
15006TIP3   OH266508   3.570   5.042  13.742  0.2003 -0.0007 -0.3620
15006TIP3    H166509   3.585   5.066  13.833  0.0604  3.1500 -1.0488
15006TIP3    H266510   3.558   5.126  13.697 -0.3275 -1.4718 -3.1853
15007TIP3   OH266511   6.228   1.050  12.096 -0.2043  0.0622 -0.0067
15007TIP3    H166512   6.240   1.118  12.030 -2.7751 -0.4596 -1.1913
15007TIP3    H266513   6.314   1.012  12.108  0.4296  0.2854 -3.0458
15008TIP3   OH266514   4.887   6.405   2.411 -0.0611 -0.1558  0.3197
15008TIP3    H166515   4.800   6.367   2.404 -0.3189  0.3618  0.6651
15008TIP3    H266516   4.941   6.334   2.446 -0.4993 -0.2620  0.7946
15009TIP3   OH266517   0.445   1.029  14.915  0.0738 -0.3083 -0.5315
15009TIP3    H166518   0.356   0.992  14.916  0.4594 -1.2936  1.7732
15009TIP3    H266519   0.503   0.953  14.913  0.8623  0.2056  1.0659
15010TIP3   OH266520   5.683   3.222   3.981  0.0231  0.2094  0.2573
15010TIP3    H166521   5.734   3.272   4.045  0.7095  0.3391 -0.3737
15010TIP3    H266522   5.730   3.139   3.973 -0.7102 -0.2633  0.7678
15011TIP3   OH266523   6.586   0.187  16.881 -0.2376 -0.2804  0.6460
15011TIP3    H166524   6.622   0.121  16.822  1.7073  1.0786  0.2242
15011TIP3    H266525   6.508   0.146  16.917 -0.8769 -1.5814 -1.9911
15012TIP3   OH266526   5.757   1.070   3.703  0.0611 -0.5518  1.0035
15012TIP3    H166527   5.737   1.080   3.610  0.7963  2.0520  1.0651
15012TIP3    H266528   5.671   1.058   3.744 -0.4450  0.0895  0.1736
15013TIP3   OH266529   6.458   6.148   1.962  0.0532  0.1632  0.2034
15013TIP3    H166530   6.376   6.169   1.918  0.2430  0.3543 -0.0601
15013TIP3    H266531   6.463   6.052   1.957  0.1479  0.1920 -0.3292
15014TIP3   OH266532   4.243   3.760  14.388  0.1178 -0.3001  0.1957
15014TIP3    H166533   4.181   3.699  14.349  0.5039  0.3214 -1.4912
15014TIP3    H266534   4.191   3.813  14.449 -0.8857 -0.1908 -0.7447
15015TIP3   OH266535   4.848   1.047   1.345 -0.3749 -0.2799  0.4470
15015TIP3    H166536   4.817   1.117   1.288  1.2563  0.6419  0.6264
15015TIP3    H266537   4.870   0.975   1.285 -0.5200 -0.0315  0.0984
15016TIP3   OH266538   1.421   6.040   6.025 -0.1837 -0.8962 -0.1808
15016TIP3    H166539   1.464   6.109   5.974 -0.5028  0.5973  1.5077
15016TIP3    H266540   1.455   6.051   6.114 -2.6559 -0.8633  0.8152
15017TIP3   OH266541   0.488   1.312   1.986 -0.3884 -0.1123 -0.2222
15017TIP3    H166542   0.546   1.236   1.987 -0.9383 -0.5403 -0.4437
15017TIP3    H266543   0.513   1.362   2.064  0.5456 -0.0747 -0.5291
15018TIP3   OH266544   1.074   1.122   3.103 -0.3684  0.5737 -0.9927
15018TIP3    H166545   1.121   1.158   3.028 -1.6626  0.7694 -1.7228
15018TIP3    H266546   1.090   1.028   3.099  0.6167  0.7155 -0.7568
15019TIP3   OH266547   1.101   0.067   4.526 -0.7899 -0.2641 -0.1645
15019TIP3    H166548   1.067   0.062   4.615  1.5627 -1.2946  0.7601
15019TIP3    H266549   1.130  -0.022   4.506 -1.8164 -0.2048 -2.2537
15020TIP3   OH266550   2.030   2.301  13.322 -0.1547 -0.6269 -0.2509
15020TIP3    H166551   1.959   2.257  13.275  0.2257 -1.0569 -0.4205
15020TIP3    H266552   2.005   2.394  13.320  0.0868 -0.5718 -1.6929
15021TIP3   OH266553   1.070   2.110  15.545 -0.2641  0.8323  0.4465
15021TIP3    H166554   1.094   2.044  15.610 -1.2517 -0.4131 -0.3877
15021TIP3    H266555   1.013   2.063  15.484  0.5072  1.9968 -1.2344
15022TIP3   OH266556   6.513   4.005   3.188 -0.3665  0.3860  0.6257
15022TIP3    H166557   6.481   3.944   3.122  0.8353  1.8545 -1.4326
15022TIP3    H266558   6.559   3.951   3.252  1.9227 -0.8236 -1.8715
15023TIP3   OH266559   4.372   4.092  11.633  0.1953 -1.0257 -0.0389
15023TIP3    H166560   4.424   4.060  11.559  1.0418 -0.7364  0.4288
15023TIP3    H266561   4.284   4.059  11.615  0.2201 -0.3694 -1.5470
15024TIP3   OH266562   4.864   2.214  15.825 -0.3161 -0.2989 -0.0961
15024TIP3    H166563   4.887   2.226  15.917  0.4269 -1.1767 -0.1494
15024TIP3    H266564   4.774   2.181  15.827 -0.3550 -0.1697  0.3109
15025TIP3   OH266565   3.804   5.190  14.535  0.3103 -0.1420 -0.4669
15025TIP3    H166566   3.819   5.283  14.518 -0.4745 -0.0345 -0.6016
15025TIP3    H266567   3.737   5.165  14.472  2.9755 -1.6974 -2.9535
15026TIP3   OH266568   4.000   1.692  13.169 -0.3401 -0.0916 -0.3918
15026TIP3    H166569   3.992   1.765  13.107  0.5203  0.0810 -0.3103
15026TIP3    H266570   3.944   1.623  13.132 -0.6708  0.3833 -0.7944
15027TIP3   OH266571   2.158   0.318   3.062  0.6524  0.2713 -0.0685
15027TIP3    H166572   2.067   0.348   3.061  0.9014  1.0663 -0.3127
15027TIP3    H266573   2.194   0.350   2.979  0.9033 -0.8662 -0.4054
15028TIP3   OH266574   5.316   3.968  12.352  0.2431 -0.2327 -0.6513
15028TIP3    H166575   5.256   3.904  12.388 -0.0492 -0.2830 -1.2200
15028TIP3    H266576   5.403   3.931  12.367  0.2424  0.4616  1.4001
15029TIP3   OH266577   3.134   4.548   5.526  0.0905 -0.0831  0.4180
15029TIP3    H166578   3.102   4.551   5.616 -0.9399 -0.6085  0.0900
15029TIP3    H266579   3.070   4.494   5.480  0.4308  0.4369 -0.7012
15030TIP3   OH266580   4.679   3.617   5.101  0.2842  0.2722  0.6298
15030TIP3    H166581   4.765   3.637   5.140  0.2424 -1.5275  1.7576
15030TIP3    H266582   4.619   3.676   5.146  0.7780  0.8336  0.5691
15031TIP3   OH266583   3.645   1.052   1.689 -0.5881  0.3196 -0.0703
15031TIP3    H166584   3.615   1.006   1.767 -0.0992  0.0234 -0.0530
15031TIP3    H266585   3.569   1.053   1.631 -0.4313 -1.0744 -0.3355
15032TIP3   OH266586   0.876   5.656  12.615 -0.2483  0.5779 -0.4996
15032TIP3    H166587   0.921   5.720  12.671 -0.7137 -0.4153  1.0849
15032TIP3    H266588   0.890   5.572  12.659  0.4126 -0.4631 -2.5623
15033TIP3   OH266589   1.057   5.689   1.581 -0.1010 -0.5560 -0.1125
15033TIP3    H166590   1.006   5.654   1.654 -1.4158  0.2041 -0.6334
15033TIP3    H266591   1.101   5.612   1.544 -0.5042 -1.1613  0.6263
15034TIP3   OH266592   5.185   6.310  15.323  0.5292  0.5422 -0.0098
15034TIP3    H166593   5.099   6.280  15.295  1.4644 -1.9761 -0.4184
15034TIP3    H266594   5.201   6.263  15.405  2.2732 -0.5919 -0.9361
15035TIP3   OH266595   0.153   3.842   2.315 -0.2930 -0.1341  0.0476
15035TIP3    H166596   0.210   3.769   2.341 -0.4581 -0.0177  0.7328
15035TIP3    H266597   0.136   3.826   2.222  1.4908  0.2581 -0.3713
15036TIP3   OH266598   4.309   3.926  13.709  0.0786  0.7696 -0.0606
15036TIP3    H166599   4.344   3.880  13.633  2.0818  1.9175  0.1067
15036TIP3    H266600   4.296   4.016  13.678 -0.0650  1.0070  0.6695
15037TIP3   OH266601   4.028   5.035   5.859 -0.3996 -0.2049  0.2655
15037TIP3    H166602   4.099   5.079   5.906  0.8476 -1.3568 -0.4734
15037TIP3    H266603   4.026   4.947   5.895 -1.7260 -0.0910  0.5247
15038TIP3   OH266604   0.389   6.267   5.221  0.1027 -0.0920  0.4163
15038TIP3    H166605   0.382   6.218   5.303  0.2289  0.0412  0.5088
15038TIP3    H266606   0.352   6.353   5.242 -1.0313 -0.4597 -0.0167
15039TIP3   OH266607   6.620   5.444   4.418  0.0812 -0.5013  0.0576
15039TIP3    H166608   6.658   5.503   4.353  1.7955 -3.2280 -1.6093
15039TIP3    H266609   6.606   5.499   4.495 -1.2884  2.7276 -2.2654
15040TIP3   OH266610   6.415   5.225   3.642  0.2453 -0.2427 -0.8734
15040TIP3    H166611   6.453   5.264   3.564 -0.3615  0.8549 -0.6399
15040TIP3    H266612   6.399   5.133   3.618  1.3102 -0.2613 -1.5673
15041TIP3   OH266613   6.171   0.242   5.664  0.3683 -0.2760  0.1930
15041TIP3    H166614   6.092   0.187   5.668  0.6858 -0.6709  1.8737
15041TIP3    H266615   6.144   0.326   5.701  0.1030  0.4863 -1.6140
15042TIP3   OH266616   1.887   5.004  11.889  0.1626  0.4222  0.4890
15042TIP3    H166617   1.879   5.094  11.857 -0.7017 -0.5488 -2.3120
15042TIP3    H266618   1.796   4.979  11.909  0.3633  0.0602  0.9514
15043TIP3   OH266619   2.270   2.527  12.673  0.5543 -0.2423  0.0675
15043TIP3    H166620   2.255   2.592  12.742  0.4041 -0.8443  0.6036
15043TIP3    H266621   2.358   2.495  12.688 -0.5274 -2.6492  1.9438
15044TIP3   OH266622   6.551   2.383  12.583  0.6048  0.1330  0.1347
15044TIP3    H166623   6.557   2.387  12.678 -0.3529  2.7661  0.1657
15044TIP3    H266624   6.641   2.371  12.553  1.2113  1.4631  1.3451
15045TIP3   OH266625   5.811   6.300   5.656 -0.1987 -0.5896 -0.3674
15045TIP3    H166626   5.787   6.358   5.729  1.1448 -1.1827  0.5859
15045TIP3    H266627   5.903   6.320   5.639 -0.5910 -0.1786 -2.2157
15046TIP3   OH266628   2.200   2.348   2.477  0.2773 -0.7185 -0.3843
15046TIP3    H166629   2.154   2.297   2.410 -0.6261  0.3438 -0.6064
15046TIP3    H266630   2.264   2.399   2.428  0.5199 -0.9187 -0.2773
15047TIP3   OH266631   4.367   0.115  16.110 -0.1458 -0.1131  0.2649
15047TIP3    H166632   4.326   0.138  16.194 -0.0676  2.3648 -0.2808
15047TIP3    H266633   4.458   0.144  16.119  0.2963 -1.3527 -0.1159
15048TIP3   OH266634   0.880   2.328   4.145  0.0221 -0.0939 -0.5160
15048TIP3    H166635   0.925   2.245   4.130  3.0774  1.0228  1.4570
15048TIP3    H266636   0.823   2.312   4.219 -0.1177 -0.6536 -0.7422
15049TIP3   OH266637   3.442   6.370   4.623 -0.2196  0.0099 -0.0176
15049TIP3    H166638   3.484   6.418   4.694 -0.1117 -1.1065  0.6968
15049TIP3    H266639   3.502   6.299   4.603 -1.4183 -1.2117  0.5623
15050TIP3   OH266640   3.984   0.670   3.155 -0.3326  0.5029 -0.1886
15050TIP3    H166641   3.892   0.696   3.159 -0.7421 -0.9852  0.9274
15050TIP3    H266642   3.982   0.575   3.142  1.0965  0.7738 -3.2798
15051TIP3   OH266643   4.513   0.409  14.995  0.2811 -0.8973  0.1641
15051TIP3    H166644   4.448   0.381  14.931  0.1502 -0.8562  0.2792
15051TIP3    H266645   4.585   0.346  14.985 -0.1751 -1.5253  0.6804
15052TIP3   OH266646   1.774   3.181   0.586  0.4817 -0.5209  0.3336
15052TIP3    H166647   1.810   3.093   0.580 -0.2609 -0.7652 -0.7175
15052TIP3    H266648   1.711   3.187   0.514  0.8095  0.9976  0.1373
15053TIP3   OH266649   5.268   3.385  12.732 -0.5641  0.4468  0.1040
15053TIP3    H166650   5.360   3.368  12.714 -0.5477  0.1483  0.4547
15053TIP3    H266651   5.220   3.324  12.675 -0.4987 -1.2805  1.7703
15054TIP3   OH266652   4.427   6.030  13.394 -0.0653  0.3515 -0.0272
15054TIP3    H166653   4.469   6.060  13.475  3.3258 -0.5790 -1.2718
15054TIP3    H266654   4.365   5.963  13.423  0.8396  0.2612  1.8230
15055TIP3   OH266655   0.703   2.361  16.281 -0.5652 -0.0256 -0.1682
15055TIP3    H166656   0.749   2.372  16.197 -1.3097  0.0534 -0.5733
15055TIP3    H266657   0.771   2.329  16.341 -0.0116 -0.0453 -0.7886
15056TIP3   OH266658   2.323   0.098  12.230 -0.2330  0.0617 -0.0339
15056TIP3    H166659   2.355   0.166  12.170 -0.4762  0.0901 -0.1342
15056TIP3    H266660   2.387   0.027  12.221 -0.4623 -0.0816 -0.6024
15057TIP3   OH266661   3.008   3.064  16.295 -0.2325 -0.1346  0.8560
15057TIP3    H166662   3.074   3.069  16.226  0.4109 -1.4786  1.3418
15057TIP3    H266663   2.977   2.974  16.292 -3.4193  0.8729 -0.5650
15058TIP3   OH266664   3.297   1.718  11.592  0.1461 -0.1442 -0.4165
15058TIP3    H166665   3.265   1.628  11.591 -0.0514 -0.1706  2.1667
15058TIP3    H266666   3.310   1.738  11.685  0.7942  2.2892 -0.9606
15059TIP3   OH266667   3.393   4.408   4.687  0.0681  0.0115 -0.0066
15059TIP3    H166668   3.464   4.343   4.693  0.7614  0.8761  2.3864
15059TIP3    H266669   3.324   4.373   4.743  0.4623  1.2787  1.3423
15060TIP3   OH266670   0.329   5.211   1.650  0.0707 -0.4197 -0.6011
15060TIP3    H166671   0.333   5.214   1.554 -0.2115  3.1033 -0.6449
15060TIP3    H266672   0.267   5.280   1.673  0.9593 -0.4322  2.1708
15061TIP3   OH266673   0.013   0.109   0.400 -0.4055 -0.2480  0.1092
15061TIP3    H166674   0.082   0.049   0.371 -0.2342  0.0675 -0.1398
15061TIP3    H266675   0.032   0.124   0.493 -0.3012 -0.3811  0.1103
15062TIP3   OH266676   0.147   6.197   6.229  0.4355 -0.0063  0.0113
15062TIP3    H166677   0.159   6.126   6.292  1.1664 -1.7141 -1.9488
15062TIP3    H266678   0.204   6.267   6.260 -0.7104  0.0302  2.2899
15063TIP3   OH266679   0.252   0.975   1.115 -0.0997  0.1083 -0.3272
15063TIP3    H166680   0.202   0.894   1.099 -0.2447 -0.2065  1.4872
15063TIP3    H266681   0.344   0.947   1.111 -0.1437 -0.0834 -0.0447
15064TIP3   OH266682   4.398   6.048   0.020 -0.4151 -0.2497 -0.1632
15064TIP3    H166683   4.315   6.085   0.050 -0.4890 -1.3231  1.0296
15064TIP3    H266684   4.463   6.082   0.081  0.1162  0.9452 -1.3605
15065TIP3   OH266685   1.933   3.950  13.187  0.0410  0.0947  0.1772
15065TIP3    H166686   1.936   4.003  13.108  0.2050 -0.3847 -0.1451
15065TIP3    H266687   1.995   3.879  13.171  1.3226  0.8900  1.4109
15066TIP3   OH266688   0.444   3.449   0.518 -0.6208 -0.4136 -0.0969
15066TIP3    H166689   0.477   3.538   0.529 -0.1909 -0.7149  1.2769
15066TIP3    H266690   0.386   3.435   0.592  0.7825 -1.8952  0.7889
15067TIP3   OH266691   1.982   5.443   2.217 -0.1444  0.1929 -0.4810
15067TIP3    H166692   1.964   5.349   2.222 -0.3839  0.2442 -0.3575
15067TIP3    H266693   2.057   5.456   2.275 -0.6183  0.2038  0.1439
15068TIP3   OH266694   3.560   2.800   3.289  0.1322  0.2210  0.6112
15068TIP3    H166695   3.551   2.877   3.233 -1.3635 -0.4895 -0.1931
15068TIP3    H266696   3.492   2.740   3.258 -0.7114 -0.2545  3.1273
15069TIP3   OH266697   6.728   0.601  13.013  0.0793 -0.0504  0.8193
15069TIP3    H166698   6.675   0.664  12.964 -1.9747 -0.7784  1.9919
15069TIP3    H266699   6.775   0.552  12.946 -1.3499  0.0973 -0.3520
15070TIP3   OH266700   5.724   0.824   1.288 -0.0683 -0.3044  0.0090
15070TIP3    H166701   5.814   0.847   1.312  0.8094 -1.8329 -1.5541
15070TIP3    H266702   5.670   0.889   1.332  1.7609  0.3650  1.4072
15071TIP3   OH266703   5.648   5.865  14.822  0.3830 -0.3625 -0.2174
15071TIP3    H166704   5.561   5.903  14.810  0.2052 -0.4777  0.5866
15071TIP3    H266705   5.683   5.911  14.899  0.7058 -0.8801 -0.0516
15072TIP3   OH266706   5.484   6.616   2.385  0.1037  0.1504 -0.1060
15072TIP3    H166707   5.405   6.585   2.427 -0.0811  0.5355 -0.1642
15072TIP3    H266708   5.547   6.627   2.457 -0.3888  1.3629  0.1620
15073TIP3   OH266709   0.183   2.719   4.085 -0.3501 -0.0600  0.4560
15073TIP3    H166710   0.165   2.807   4.052 -1.0058 -0.2194  0.3840
15073TIP3    H266711   0.238   2.680   4.018 -0.2380  0.2162  0.3832
15074TIP3   OH266712   1.738   0.060  16.177  0.8881  0.6955  0.2140
15074TIP3    H166713   1.771   0.088  16.262 -1.5089  1.9736  0.8328
15074TIP3    H266714   1.655   0.108  16.167 -0.2178 -1.4190 -1.6419
15075TIP3   OH266715   4.047   4.382   2.161  0.3575 -0.6543  0.2738
15075TIP3    H166716   4.098   4.339   2.230  0.3235  1.0117  1.3900
15075TIP3    H266717   3.970   4.417   2.206  0.2388  0.3103 -0.6387
15076TIP3   OH266718   2.492   5.947  12.203 -0.2048  0.3081 -0.0252
15076TIP3    H166719   2.465   6.025  12.155 -0.2398  0.7240  0.6700
15076TIP3    H266720   2.444   5.951  12.285 -0.5736 -0.6975 -0.1761
15077TIP3   OH266721   0.935   5.131   4.997 -0.1878  0.5535  0.2958
15077TIP3    H166722   0.962   5.078   4.922 -0.4733  1.4519 -0.4611
15077TIP3    H266723   0.851   5.095   5.024 -0.3277  0.5519 -0.1400
15078TIP3   OH266724   5.054   0.262   0.661  0.5681 -0.6188  0.0439
15078TIP3    H166725   5.105   0.273   0.581 -0.2335 -2.0164 -0.6989
15078TIP3    H266726   4.997   0.186   0.643  0.2646 -0.8660  1.8761
15079TIP3   OH266727   1.494   4.087   2.748  0.2467  0.0952  0.2590
15079TIP3    H166728   1.571   4.067   2.695  0.8038  0.0439  1.0594
15079TIP3    H266729   1.489   4.015   2.811 -2.4690 -1.7953 -1.8544
15080TIP3   OH266730   0.155   5.820  16.406 -0.1906 -0.2915 -0.5604
15080TIP3    H166731   0.249   5.810  16.387 -0.0875 -0.0912 -0.1695
15080TIP3    H266732   0.118   5.735  16.385  0.2197 -0.6316  0.0686
15081TIP3   OH266733   0.395   4.892   3.408  0.5056 -0.1097  0.0708
15081TIP3    H166734   0.350   4.923   3.486 -0.9080 -0.7373 -0.4669
15081TIP3    H266735   0.405   4.970   3.353  0.7356  0.1628  0.4884
15082TIP3   OH266736   4.964   6.390  14.633 -0.4381 -0.0956 -0.1745
15082TIP3    H166737   4.904   6.353  14.699 -1.1133 -0.8510 -1.1786
15082TIP3    H266738   5.011   6.314  14.599  0.3121  0.3632 -0.1741
15083TIP3   OH266739   0.233   4.067  15.793  0.1026  0.0515  0.5643
15083TIP3    H166740   0.226   3.976  15.824 -0.7657  0.4589  1.6222
15083TIP3    H266741   0.272   4.114  15.866 -1.4847  0.9354  0.8813
15084TIP3   OH266742   3.979   6.160  16.555 -0.1324 -0.1261 -0.0604
15084TIP3    H166743   4.056   6.102  16.560 -0.3130 -0.4459 -0.7700
15084TIP3    H266744   3.906   6.100  16.540 -0.7518  0.0397  2.0158
15085TIP3   OH266745   2.805   4.505   0.678 -0.0450 -0.4128  0.2113
15085TIP3    H166746   2.776   4.589   0.641  0.6634 -0.3549 -0.2302
15085TIP3    H266747   2.756   4.439   0.630  2.0695 -0.4389 -2.0849
15086TIP3   OH266748   2.795   0.309   1.099 -0.1374  0.3223  0.0246
15086TIP3    H166749   2.888   0.314   1.122  0.0328  0.9029 -0.7605
15086TIP3    H266750   2.749   0.337   1.179  0.3141 -0.9222  0.7473
15087TIP3   OH266751   6.233   0.109  15.235  0.0723  0.0804 -0.1126
15087TIP3    H166752   6.315   0.153  15.259  0.2927 -0.3570 -0.0493
15087TIP3    H266753   6.234   0.108  15.139 -0.9752  2.1399 -0.1947
15088TIP3   OH266754   2.532   4.318   5.142  0.0862  0.4133 -0.0492
15088TIP3    H166755   2.514   4.375   5.217 -0.6168  0.3620 -0.1712
15088TIP3    H266756   2.551   4.233   5.181  0.6251  0.6050  0.1097
15089TIP3   OH266757   2.038   5.842   3.669  0.2187  0.0416  0.0553
15089TIP3    H166758   2.013   5.903   3.600 -0.9657  0.6827  1.0163
15089TIP3    H266759   2.070   5.898   3.740  1.3097 -0.5997  0.0916
15090TIP3   OH266760   4.180   1.360   0.753 -0.0511 -0.3308  0.5220
15090TIP3    H166761   4.195   1.375   0.846  0.4445 -0.1724  0.4206
15090TIP3    H266762   4.267   1.368   0.713 -0.4005  0.5268 -0.0841
15091TIP3   OH266763   0.139   0.644   9.891 -0.2117  0.2393 -0.1365
15091TIP3    H166764   0.117   0.617   9.980  0.0612  0.5822  0.0396
15091TIP3    H266765   0.096   0.729   9.880 -1.8260 -0.6454 -1.0007
15092TIP3   OH266766   6.639   5.558  16.452  0.0171  0.2288 -0.4397
15092TIP3    H166767   6.621   5.652  16.458  1.5370  0.4959  0.5037
15092TIP3    H266768   6.592   5.519  16.526  0.7825  0.4949  0.1952
15093TIP3   OH266769   0.300   5.249  16.902  0.1443  0.4295  0.3629
15093TIP3    H166770   0.269   5.204  16.981 -0.1567 -0.4027 -0.2133
15093TIP3    H266771   0.229   5.309  16.879 -0.9554 -1.2221 -0.7538
15094TIP3   OH266772   2.179   0.223   4.291 -0.2819 -0.2466  0.6589
15094TIP3    H166773   2.160   0.285   4.221 -0.5687 -0.2436  0.7396
15094TIP3    H266774   2.096   0.177   4.306  0.0559 -1.0138  0.2383
15095TIP3   OH266775   2.340   5.261   5.528 -0.3683 -0.4983 -0.0995
15095TIP3    H166776   2.292   5.228   5.452 -0.7219 -0.0661 -0.0734
15095TIP3    H266777   2.422   5.213   5.528  0.1295  0.2953 -1.4163
15096TIP3   OH266778   2.979   6.101  15.034 -0.0898 -0.3981 -0.3077
15096TIP3    H166779   2.886   6.086  15.054  0.4423 -3.4401  0.3448
15096TIP3    H266780   3.026   6.048  15.098  1.9790 -1.8832 -2.8753
15097TIP3   OH266781   4.601   0.134   5.003  0.3278  0.2556 -0.2423
15097TIP3    H166782   4.689   0.171   4.991 -0.0881  0.8918 -1.4874
15097TIP3    H266783   4.567   0.178   5.081 -0.0306  2.3425 -1.4942
15098TIP3   OH266784   3.421   2.927   3.777 -0.0385 -0.2185  0.4937
15098TIP3    H166785   3.332   2.889   3.780  0.0612 -0.5886 -0.5780
15098TIP3    H266786   3.478   2.851   3.764  0.2922  0.1469 -0.2744
15099TIP3   OH266787   2.858   2.007   1.659 -0.0764  0.1170  0.1554
15099TIP3    H166788   2.947   2.026   1.627  0.4095  2.7113  2.6293
15099TIP3    H266789   2.870   1.940   1.726 -0.3292 -0.9935 -0.8622
15100TIP3   OH266790   4.286   3.223   2.924  0.0296  0.0522  0.7164
15100TIP3    H166791   4.344   3.158   2.963  1.0715  0.4357 -0.1392
15100TIP3    H266792   4.324   3.307   2.949  0.1732  0.3041 -0.3143
15101TIP3   OH266793   3.141   5.602   4.949 -0.2606 -0.0152  0.0911
15101TIP3    H166794   3.203   5.562   4.889  1.0798  0.1643  1.2796
15101TIP3    H266795   3.069   5.540   4.956  2.1498 -2.7995  2.5963
15102TIP3   OH266796   2.775   3.712   2.596  0.0112  0.3461  0.3279
15102TIP3    H166797   2.792   3.756   2.513  0.0061  1.5537  0.9319
15102TIP3    H266798   2.861   3.687   2.629 -0.0792 -1.5111 -0.7172
15103TIP3   OH266799   2.786   2.833   4.527 -0.2164 -0.1643 -0.6802
15103TIP3    H166800   2.815   2.920   4.556  0.2231 -0.8594  1.0311
15103TIP3    H266801   2.827   2.772   4.587 -1.8539 -1.4767 -0.8260
15104TIP3   OH266802   2.770   5.670  13.309 -0.4988 -0.5415  0.1172
15104TIP3    H166803   2.766   5.605  13.240  0.2525 -0.1745 -0.2776
15104TIP3    H266804   2.806   5.748  13.267 -0.0559 -0.3085  0.9076
15105TIP3   OH266805   5.932   6.597  14.262  0.0551  0.8515 -0.4759
15105TIP3    H166806   5.986   6.661  14.216 -1.0713  1.0906 -1.5058
15105TIP3    H266807   5.865   6.571  14.198  0.2034 -1.0174  0.0516
15106TIP3   OH266808   6.245   4.559  16.861 -0.0696 -0.2684 -0.4080
15106TIP3    H166809   6.221   4.612  16.785  0.0791 -0.9064 -0.9133
15106TIP3    H266810   6.212   4.472  16.840  1.6119 -0.8921 -0.5985
15107TIP3   OH266811   6.495   5.655  15.702  0.3701 -0.4367  0.4490
15107TIP3    H166812   6.473   5.602  15.778 -2.8040 -2.0402 -1.3677
15107TIP3    H266813   6.495   5.593  15.629  2.5300  1.1438 -1.0448
15108TIP3   OH266814   5.878   1.065  12.767  0.1333 -0.0727  0.1488
15108TIP3    H166815   5.921   1.134  12.819 -0.6058 -0.3945  1.2261
15108TIP3    H266816   5.806   1.111  12.723  0.2754  0.0524  0.0471
15109TIP3   OH266817   3.953   0.305  10.428 -0.0060 -0.1172  0.1144
15109TIP3    H166818   4.043   0.291  10.459 -0.5452 -1.2006  1.3458
15109TIP3    H266819   3.920   0.216  10.411 -1.4796  0.0623  1.7118
15110TIP3   OH266820   5.293   6.809   1.231  0.3543 -0.1842  0.3624
15110TIP3    H166821   5.198   6.819   1.232  0.2584 -0.9698 -0.6137
15110TIP3    H266822   5.325   6.879   1.175  0.4286  0.5445  1.2823
15111TIP3   OH266823   3.148   6.830  11.427 -0.7795  0.2608 -0.3701
15111TIP3    H166824   3.059   6.814  11.395 -1.6612  0.5905  1.7350
15111TIP3    H266825   3.176   6.746  11.463 -1.2710  0.7511  1.2329
15112TIP3   OH266826   6.496   3.986   3.632 -0.2549 -0.3344  0.1035
15112TIP3    H166827   6.587   3.957   3.621  0.1936  0.7810  0.6674
15112TIP3    H266828   6.447   3.937   3.566  0.9206 -0.2152 -0.8906
15113TIP3   OH266829   5.947   0.374   3.169  0.9316  0.5849  0.1123
15113TIP3    H166830   6.003   0.375   3.246  1.0358  0.2068  0.0452
15113TIP3    H266831   5.903   0.289   3.173  1.2744  0.3685 -0.4820
15114TIP3   OH266832   6.771   3.187   0.038 -0.3945 -0.3143 -0.1203
15114TIP3    H166833   6.810   3.106   0.005  1.6514  0.2177  0.8453
15114TIP3    H266834   6.841   3.229   0.087 -1.2552  2.3252 -1.0264
15115TIP3   OH266835   0.587   1.208   0.160 -0.0552 -0.0921 -0.3837
15115TIP3    H166836   0.574   1.127   0.208 -0.9893 -0.3548 -1.0499
15115TIP3    H266837   0.663   1.249   0.202 -0.0258 -0.9470  0.4301
15116TIP3   OH266838   6.716   4.314   6.416 -0.1906 -0.4084  0.4481
15116TIP3    H166839   6.749   4.291   6.503  1.4589 -1.2283 -0.3544
15116TIP3    H266840   6.635   4.264   6.408  0.3071 -1.3354  1.0213
15117TIP3   OH266841   5.328   4.308  13.327  0.0878 -0.0835  0.0282
15117TIP3    H166842   5.356   4.216  13.323 -0.4373 -0.2008 -1.8624
15117TIP3    H266843   5.360   4.347  13.246  0.0425  1.3533  0.6631
15118TIP3   OH266844   0.743   4.806  12.167 -0.1643 -0.1012 -0.0590
15118TIP3    H166845   0.825   4.806  12.117 -0.3034  1.0701 -0.3319
15118TIP3    H266846   0.711   4.896  12.159 -2.2033 -0.8478 -1.1254
15119TIP3   OH266847   0.065   5.054  16.098 -0.3367 -0.1627  0.0836
15119TIP3    H166848   0.111   5.118  16.151 -0.3587 -0.4844  0.4989
15119TIP3    H266849   0.132   5.016  16.041  0.0638 -1.1147  1.1545
15120TIP3   OH266850   1.697   3.467   4.102  0.0658  0.5340  0.0216
15120TIP3    H166851   1.705   3.427   4.015 -1.3309 -0.6651  0.4162
15120TIP3    H266852   1.788   3.481   4.130  0.5595 -0.1981 -1.1111
15121TIP3   OH266853   1.158   0.393   5.839  0.0237 -0.2749  0.1946
15121TIP3    H166854   1.089   0.330   5.816 -0.5177  0.6219 -0.7405
15121TIP3    H266855   1.118   0.451   5.903  0.0346  0.0076 -0.0518
15122TIP3   OH266856   2.339   0.316   1.592  0.0251 -0.0875  0.0381
15122TIP3    H166857   2.326   0.226   1.562  0.4866  0.1365 -0.8682
15122TIP3    H266858   2.253   0.358   1.583 -0.2286 -0.4755  0.6165
15123TIP3   OH266859   4.688   6.453  14.818  0.0711 -0.2609 -0.1797
15123TIP3    H166860   4.607   6.403  14.808 -0.5196  0.1496  1.9775
15123TIP3    H266861   4.665   6.525  14.876  2.2241 -0.8765  1.6156
15124TIP3   OH266862   4.729   5.786   0.651 -0.0778 -0.0301  0.2084
15124TIP3    H166863   4.807   5.760   0.602  0.3134  1.8702 -0.2807
15124TIP3    H266864   4.676   5.834   0.588 -1.8377 -1.5643  0.4523
15125TIP3   OH266865   6.097   1.266   5.680  0.0643  0.6217 -0.2066
15125TIP3    H166866   6.170   1.271   5.618 -1.1752 -0.1608 -1.8123
15125TIP3    H266867   6.045   1.192   5.648 -0.0322 -0.5671  2.4773
15126TIP3   OH266868   3.206   6.225   2.987 -0.3670  0.0324 -0.6210
15126TIP3    H166869   3.242   6.313   2.980 -1.9009  0.7504  0.1730
15126TIP3    H266870   3.130   6.225   2.930 -0.9299 -0.4668  0.1093
15127TIP3   OH266871   5.881   5.793  16.008 -0.2994 -0.1645  0.3810
15127TIP3    H166872   5.835   5.738  16.071 -0.3304 -2.4068 -1.4518
15127TIP3    H266873   5.828   5.787  15.928  1.2782  0.1074 -0.7329
15128TIP3   OH266874   6.734   0.870   0.278 -0.2285  0.4119  0.1113
15128TIP3    H166875   6.826   0.877   0.250 -0.0927  0.8755  0.6541
15128TIP3    H266876   6.689   0.938   0.228 -0.3825 -0.1646 -0.5511
15129TIP3   OH266877   5.607   4.727   5.686 -0.6053 -0.7263 -0.2872
15129TIP3    H166878   5.526   4.776   5.705 -0.4169 -0.5477  0.0699
15129TIP3    H266879   5.655   4.784   5.625 -0.0438 -0.0985  0.7049
15130TIP3   OH266880   2.481   6.588  12.420 -0.2370 -0.5090  0.4336
15130TIP3    H166881   2.448   6.653  12.482  0.9029 -0.4522  1.0093
15130TIP3    H266882   2.557   6.630  12.379 -0.5180 -0.8380 -0.4474
15131TIP3   OH266883   1.199   4.378  13.440  0.1654  0.0985  0.6633
15131TIP3    H166884   1.143   4.336  13.375  0.2970 -1.5755  1.5770
15131TIP3    H266885   1.268   4.314  13.458  0.2370  0.5874  2.3116
15132TIP3   OH266886   4.198   1.744  13.833  0.2617  0.2317  0.2594
15132TIP3    H166887   4.191   1.819  13.892 -2.3548  1.5149 -1.5140
15132TIP3    H266888   4.148   1.675  13.875 -1.0186  0.9261 -0.0714
15133TIP3   OH266889   1.051   5.441  14.631 -0.1016  0.1325 -0.4844
15133TIP3    H166890   1.025   5.449  14.539 -0.5950 -1.7617 -0.5513
15133TIP3    H266891   1.026   5.352  14.656 -1.1832  1.0006  1.8813
15134TIP3   OH266892   6.774   1.297  14.216  0.7379 -0.0405  0.1097
15134TIP3    H166893   6.848   1.272  14.272  1.3221  0.6606 -0.3258
15134TIP3    H266894   6.728   1.363  14.268 -0.3293 -1.3721  0.9115
15135TIP3   OH266895   2.709   4.348  16.120  0.3341  0.1701 -0.1442
15135TIP3    H166896   2.709   4.443  16.105  0.8192  0.1962  0.0081
15135TIP3    H266897   2.696   4.310  16.033  1.4885  0.3554 -0.4251
15136TIP3   OH266898   1.961   4.936   3.793 -0.0409  0.7239 -0.1059
15136TIP3    H166899   1.991   4.884   3.868 -0.2066 -1.7038 -1.5985
15136TIP3    H266900   1.870   4.907   3.780  0.1951  0.5889 -1.6040
15137TIP3   OH266901   0.400   2.414   1.895  0.0962  0.1577  0.1123
15137TIP3    H166902   0.445   2.429   1.813 -0.7213  2.1183 -0.0231
15137TIP3    H266903   0.328   2.355   1.873  0.8890 -0.7098 -0.2090
15138TIP3   OH266904   4.895   3.151  12.987  0.7490 -0.1966 -0.0713
15138TIP3    H166905   4.986   3.125  12.997  0.6477 -0.8028 -0.7350
15138TIP3    H266906   4.848   3.100  13.053  0.5985 -1.4974 -1.1418
15139TIP3   OH266907   5.653   6.186   1.960 -0.1957 -0.4429  0.2328
15139TIP3    H166908   5.631   6.150   2.046  1.7321 -2.6920 -0.0987
15139TIP3    H266909   5.583   6.156   1.903  0.2500 -1.9125  0.4061
15140TIP3   OH266910   4.636   4.965   1.905 -0.5974 -0.3066  0.6087
15140TIP3    H166911   4.564   5.014   1.944 -1.9857  0.7573 -2.8938
15140TIP3    H266912   4.594   4.890   1.862  0.2631  0.3925 -1.5968
15141TIP3   OH266913   5.329   0.006   2.770 -0.0789  0.0451  0.3361
15141TIP3    H166914   5.361   0.038   2.854  0.9768  1.4259 -0.5604
15141TIP3    H266915   5.348   0.076   2.708  1.3008 -1.8310 -1.5151
15142TIP3   OH266916   5.287   3.222  13.608 -0.4319 -0.9670  0.0115
15142TIP3    H166917   5.303   3.157  13.676 -0.3815 -0.5671  0.3842
15142TIP3    H266918   5.372   3.236  13.567 -0.3913 -0.9572  0.0972
15143TIP3   OH266919   5.949   3.373   5.616  0.2430 -0.0648 -0.0956
15143TIP3    H166920   5.941   3.295   5.671 -0.0290 -0.0714 -0.1431
15143TIP3    H266921   5.957   3.445   5.678 -0.4901 -0.0253 -0.0375
15144TIP3   OH266922   3.654   3.299   3.747 -0.3463 -0.5788 -0.6458
15144TIP3    H166923   3.583   3.244   3.714  1.0840 -1.5077 -2.2821
15144TIP3    H266924   3.733   3.263   3.709  0.8490  1.5806 -0.3932
15145TIP3   OH266925   4.864   6.465  15.824 -0.0743  0.7354  0.3200
15145TIP3    H166926   4.958   6.482  15.812 -0.0329  1.0207  0.9930
15145TIP3    H266927   4.860   6.375  15.855 -0.0571  0.5693 -0.1579
15146TIP3   OH266928   4.305   5.670  11.860 -0.3515 -0.3287  0.6059
15146TIP3    H166929   4.284   5.606  11.929  1.5429 -0.2706  1.2947
15146TIP3    H266930   4.220   5.705  11.833 -1.1376  0.2693  3.5136
15147TIP3   OH266931   0.817   2.802  13.897 -0.1082  0.6208 -0.3009
15147TIP3    H166932   0.769   2.733  13.852 -0.6075  1.7800 -1.6067
15147TIP3    H266933   0.848   2.761  13.978 -0.0264 -1.2425 -1.2325
15148TIP3   OH266934   6.406   2.566  15.239 -0.0981 -0.5814 -0.4698
15148TIP3    H166935   6.377   2.657  15.244 -1.9053 -1.1819  0.5915
15148TIP3    H266936   6.397   2.543  15.146  1.1915  0.5468 -0.8982
15149TIP3   OH266937   6.432   5.512   0.330 -0.6447 -0.2661 -0.0018
15149TIP3    H166938   6.490   5.436   0.339 -0.1380  0.1566  0.3260
15149TIP3    H266939   6.402   5.508   0.239 -0.7067 -0.9220  0.0443
15150TIP3   OH266940   2.834   4.866  16.111 -0.2918 -0.7275  0.0895
15150TIP3    H166941   2.825   4.940  16.051 -1.7276  0.0582  1.2073
15150TIP3    H266942   2.751   4.819  16.103 -0.5733 -0.5293  1.5210
15151TIP3   OH266943   3.949   2.253   2.100  0.2532 -0.7639 -0.1872
15151TIP3    H166944   4.027   2.302   2.127 -0.5785  0.6337 -0.2347
15151TIP3    H266945   3.975   2.162   2.108  1.2066 -0.3664  1.8985
15152TIP3   OH266946   4.709   4.124  16.387  0.0959  0.3738 -0.3995
15152TIP3    H166947   4.781   4.073  16.349  0.0484 -1.1537  1.3973
15152TIP3    H266948   4.630   4.075  16.364 -0.0640  0.2719  0.3593
15153TIP3   OH266949   1.149   2.304   5.363 -0.3362 -0.4403  0.2200
15153TIP3    H166950   1.240   2.286   5.340 -0.3017 -0.3595  0.2902
15153TIP3    H266951   1.136   2.395   5.338 -0.6400 -0.6844 -0.5366
15154TIP3   OH266952   6.319   3.021  12.909 -0.0937  0.4052  0.2291
15154TIP3    H166953   6.367   2.998  12.830  2.3848  0.9905  1.4674
15154TIP3    H266954   6.373   2.988  12.981 -2.0060  0.3416  1.7306
15155TIP3   OH266955   4.347   5.814  14.045 -0.6173  0.4565 -0.2254
15155TIP3    H166956   4.424   5.800  14.100 -1.3005 -3.0621  0.0849
15155TIP3    H266957   4.363   5.759  13.968 -1.9673  1.2649 -1.1307
15156TIP3   OH266958   1.018   6.302   3.997  0.5939 -0.2242  0.2331
15156TIP3    H166959   0.928   6.328   4.012  0.3616 -0.5441 -0.5752
15156TIP3    H266960   1.053   6.368   3.937  0.2678 -1.2297 -1.1080
15157TIP3   OH266961   0.091   1.335   4.615  0.4991  0.0621 -0.2746
15157TIP3    H166962   0.045   1.406   4.660 -0.5645  0.7391 -2.3118
15157TIP3    H266963   0.128   1.376   4.538  1.3322 -1.2751 -0.6098
15158TIP3   OH266964   6.471   4.172   6.416  0.0181 -0.3911  0.1524
15158TIP3    H166965   6.408   4.101   6.413  1.0117 -1.2939  0.2625
15158TIP3    H266966   6.442   4.227   6.488 -1.3600 -0.0867 -0.5929
15159TIP3   OH266967   2.088   5.210  14.983 -0.3010 -0.2592 -0.2907
15159TIP3    H166968   2.058   5.292  14.944 -0.1137 -0.4315 -0.8011
15159TIP3    H266969   2.114   5.156  14.909  0.5991 -0.3815  0.1046
15160TIP3   OH266970   5.216   0.385   1.179 -0.0127 -0.4564 -0.2145
15160TIP3    H166971   5.208   0.322   1.250  1.0887 -0.8731 -0.4236
15160TIP3    H266972   5.237   0.331   1.102 -0.6121  0.0338 -0.7284
15161TIP3   OH266973   2.944   3.070   3.278  0.5753  0.3555  0.3830
15161TIP3    H166974   2.981   3.000   3.332 -0.2662  0.5042  1.1747
15161TIP3    H266975   2.984   3.057   3.192 -0.7149 -2.0555  0.0594
15162TIP3   OH266976   3.054   4.769   4.017  0.2560 -0.0007 -0.0567
15162TIP3    H166977   3.056   4.830   3.943 -0.3299  0.4392  0.2911
15162TIP3    H266978   3.051   4.682   3.975  0.4686  0.2224 -0.5464
15163TIP3   OH266979   0.117   2.365   4.277  0.1435  0.6249  0.2706
15163TIP3    H166980   0.181   2.397   4.214 -2.5011  1.2912 -2.3248
15163TIP3    H266981   0.069   2.443   4.306 -0.0070  0.0825  1.5829
15164TIP3   OH266982   6.841   4.147  16.484 -0.0822  0.3596  0.5090
15164TIP3    H166983   6.785   4.215  16.448  0.2624  0.5540  0.3347
15164TIP3    H266984   6.883   4.187  16.560  0.8636  0.6661 -0.1625
15165TIP3   OH266985   1.248   1.537  11.836 -0.4529 -0.1662  0.0704
15165TIP3    H166986   1.337   1.571  11.828 -0.0350 -1.2431 -0.0481
15165TIP3    H266987   1.253   1.476  11.910 -1.3770  0.6121  0.7976
15166TIP3   OH266988   0.514   6.051   0.316 -0.1406 -0.1006 -0.4133
15166TIP3    H166989   0.446   6.090   0.261  1.0955  1.6680 -0.7893
15166TIP3    H266990   0.508   6.098   0.399  0.3984 -0.1500 -0.3405
15167TIP3   OH266991   1.544   3.906   2.932  0.0527 -0.5661 -0.0541
15167TIP3    H166992   1.618   3.911   2.992  1.8314  0.2846 -2.1555
15167TIP3    H266993   1.530   3.812   2.918  1.9518 -0.7493 -0.9564
15168TIP3   OH266994   1.169   0.494  12.827 -0.7051  1.3332  0.3762
15168TIP3    H166995   1.093   0.551  12.822 -2.5926 -1.0463  0.0682
15168TIP3    H266996   1.217   0.512  12.746 -2.0229  1.4835 -0.4096
15169TIP3   OH266997   0.383   2.961   4.987 -0.2267 -0.3983  0.1338
15169TIP3    H166998   0.308   3.003   4.945 -1.2722 -0.1085  2.1745
15169TIP3    H266999   0.358   2.954   5.079  2.6246  0.5459  1.0759
15170TIP3   OH267000   2.949   3.963   3.752 -0.2012 -0.1667  0.4230
15170TIP3    H167001   2.985   3.998   3.671 -2.2264  0.2752 -0.3491
15170TIP3    H267002   2.946   3.868   3.737 -1.0261 -0.0462 -0.2351
15171TIP3   OH267003   3.591   6.833   3.433  0.4930  0.4024  0.2214
15171TIP3    H167004   3.521   6.783   3.391  0.2563 -0.1886  1.2911
15171TIP3    H267005   3.557   6.922   3.439 -0.3671  0.0268  1.1530
15172TIP3   OH267006   2.339   3.532  10.963  0.2149 -0.1515 -0.3407
15172TIP3    H167007   2.252   3.555  10.930  0.2541 -0.3893 -0.6199
15172TIP3    H267008   2.397   3.545  10.889  0.0865 -2.1435 -0.8642
15173TIP3   OH267009   0.250   5.617  13.001 -0.1409  0.4930  0.1196
15173TIP3    H167010   0.191   5.682  13.041  0.2069 -0.4397  2.3034
15173TIP3    H267011   0.316   5.601  13.068  0.1454 -1.6412 -0.6150
15174TIP3   OH267012   5.508   2.481   6.283 -0.2531  0.5628 -0.2914
15174TIP3    H167013   5.575   2.424   6.322 -0.5182  0.1825 -0.3873
15174TIP3    H267014   5.514   2.562   6.333  1.9927  1.4795 -1.8907
15175TIP3   OH267015   2.849   2.979  14.326 -0.0756 -0.5605  0.3527
15175TIP3    H167016   2.802   3.052  14.286  0.5644 -0.7611 -0.8163
15175TIP3    H267017   2.797   2.901  14.303 -0.2526 -0.5838  0.8050
15176TIP3   OH267018   0.103   3.290   1.821  0.0364  0.4037  0.1817
15176TIP3    H167019   0.031   3.236   1.853 -1.4727  1.0729 -1.8950
15176TIP3    H267020   0.143   3.237   1.752 -0.3596  1.2194 -0.6852
15177TIP3   OH267021   3.706   5.602   6.817  0.1478 -0.2786  0.0524
15177TIP3    H167022   3.799   5.577   6.817  0.4393  0.7572 -0.4398
15177TIP3    H267023   3.701   5.677   6.757 -1.1544 -0.8229 -0.5487
15178TIP3   OH267024   2.926   2.315  12.084  0.0346 -0.2064  0.2887
15178TIP3    H167025   2.887   2.375  12.147 -2.1545  0.5838 -1.6492
15178TIP3    H267026   2.914   2.228  12.122 -1.7479  0.1944  0.7565
15179TIP3   OH267027   4.405   6.666   3.123  0.5409 -0.6717 -0.1329
15179TIP3    H167028   4.371   6.625   3.043 -1.1793  2.3649 -1.0928
15179TIP3    H267029   4.495   6.634   3.129  0.2599 -2.1509 -2.4371
15180TIP3   OH267030   0.087   2.665   0.056 -0.1806 -0.0717  0.2070
15180TIP3    H167031   0.102   2.624   0.141 -0.0651  0.3810  0.4107
15180TIP3    H267032   0.005   2.714   0.068 -1.0943 -1.3760 -0.4617
15181TIP3   OH267033   6.201   0.976   1.494 -0.0140  0.5531 -0.7926
15181TIP3    H167034   6.265   1.032   1.450  0.0753  0.0190 -1.3526
15181TIP3    H267035   6.237   0.888   1.486 -0.3402  0.3655 -0.2441
15182TIP3   OH267036   3.112   2.475   2.694 -0.7794 -0.4126  0.1003
15182TIP3    H167037   3.062   2.506   2.770 -0.8337 -0.8048  0.2253
15182TIP3    H267038   3.161   2.552   2.665  0.4474 -0.6188  1.4959
15183TIP3   OH267039   6.279   1.829  10.559 -0.5818 -0.0410 -0.2095
15183TIP3    H167040   6.275   1.924  10.574 -1.9574  0.0035 -0.7100
15183TIP3    H267041   6.188   1.803  10.548 -0.1294 -1.1943 -1.5192
15184TIP3   OH267042   0.493   3.670   2.864 -0.0110  0.6503 -0.8746
15184TIP3    H167043   0.505   3.733   2.793  2.0905  0.9829 -0.2895
15184TIP3    H267044   0.502   3.722   2.944  0.0026 -0.1092 -0.3673
15185TIP3   OH267045   3.112   2.139   6.431 -0.0413 -0.4278  0.5799
15185TIP3    H167046   3.122   2.117   6.523 -4.1744 -0.2195  1.2710
15185TIP3    H267047   3.050   2.212   6.431  0.0890 -0.2102 -2.3571
15186TIP3   OH267048   4.881   1.481   5.243  0.1188 -0.2349 -0.3480
15186TIP3    H167049   4.931   1.455   5.166  0.0607  1.8243 -1.1540
15186TIP3    H267050   4.946   1.491   5.312  0.2808 -1.2725 -0.3344
15187TIP3   OH267051   3.100   0.060   3.722  0.1398 -0.1949 -0.5193
15187TIP3    H167052   3.085  -0.002   3.650  0.0078 -0.6441 -0.1097
15187TIP3    H267053   3.072   0.013   3.800 -0.0231  0.4113 -0.2077
15188TIP3   OH267054   2.632   5.835   1.525 -0.0798  0.9516  0.7394
15188TIP3    H167055   2.539   5.845   1.506  0.1758  0.7076 -0.7523
15188TIP3    H267056   2.676   5.885   1.456  0.9296 -0.3982  0.3810
15189TIP3   OH267057   0.115   2.018  16.164  0.2230 -0.0182  0.3005
15189TIP3    H167058   0.076   2.063  16.089 -0.9169  1.3717  1.6676
15189TIP3    H267059   0.049   2.023  16.233  0.7369 -2.3427  1.0769
15190TIP3   OH267060   4.832   1.175   2.341 -0.3853 -0.5356  0.1014
15190TIP3    H167061   4.887   1.201   2.414  0.6749 -1.7347 -0.2234
15190TIP3    H267062   4.802   1.087   2.364 -0.2626 -0.8147 -0.7474
15191TIP3   OH267063   0.650   1.561  11.990  0.1631 -0.2541 -0.3667
15191TIP3    H167064   0.637   1.573  12.084  1.1498 -3.3255  0.2746
15191TIP3    H267065   0.682   1.646  11.959 -1.2171  1.1710  1.8118
15192TIP3   OH267066   1.297   2.983  11.999 -0.2484 -0.3264  0.1277
15192TIP3    H167067   1.339   2.981  12.084  0.3179  0.1317 -0.1333
15192TIP3    H267068   1.312   2.896  11.962 -1.8973 -1.0865  1.1420
15193TIP3   OH267069   2.042   0.108   5.497 -0.0356  0.3874  0.7281
15193TIP3    H167070   2.073   0.185   5.449  2.3772 -0.8099  0.1624
15193TIP3    H267071   1.982   0.064   5.437  0.4246  0.6155  0.0896
15194TIP3   OH267072   4.611   5.578  16.798  0.0333 -0.4434 -0.3587
15194TIP3    H167073   4.587   5.493  16.834  2.0818 -0.2664  1.6883
15194TIP3    H267074   4.655   5.559  16.715  0.4009 -1.3793  0.0475
15195TIP3   OH267075   3.076   3.545   3.148  0.0558 -0.3549 -0.1283
15195TIP3    H167076   3.121   3.593   3.217 -1.1894 -1.1469  1.2907
15195TIP3    H267077   3.058   3.611   3.081  1.8365  0.2965 -0.0066
15196TIP3   OH267078   5.245   3.675  14.177  0.1468 -0.1701 -0.1647
15196TIP3    H167079   5.326   3.644  14.217 -0.3929 -0.4236  0.7564
15196TIP3    H267080   5.224   3.610  14.110  1.0706  0.2681 -0.8977
15197TIP3   OH267081   5.182   0.721   4.480 -0.1661 -0.1072 -0.4182
15197TIP3    H167082   5.152   0.646   4.531  1.7961 -1.1134 -0.6499
15197TIP3    H267083   5.221   0.683   4.401  0.6024  1.1629 -0.6804
15198TIP3   OH267084   6.853   0.559  10.664 -0.1434  0.3211  0.3246
15198TIP3    H167085   6.816   0.542  10.751 -0.5081  1.2052  0.3574
15198TIP3    H267086   6.945   0.533  10.671  0.2227  1.7626  1.4448
15199TIP3   OH267087   6.732   4.088   5.051  0.1898 -0.0380 -0.1712
15199TIP3    H167088   6.811   4.033   5.047  1.3846  1.5184  0.6366
15199TIP3    H267089   6.761   4.173   5.019 -0.6793  1.0457  1.7336
15200TIP3   OH267090   4.686   0.388   3.019  0.1980  0.1451 -0.1528
15200TIP3    H167091   4.667   0.332   3.094  0.0583  1.4230  0.7919
15200TIP3    H267092   4.646   0.343   2.945  3.1330 -2.8691 -0.1207
15201TIP3   OH267093   4.630   1.885  15.323 -0.0109  0.3585  0.4920
15201TIP3    H167094   4.600   1.799  15.353 -3.4340  0.5363 -1.9843
15201TIP3    H267095   4.711   1.866  15.275 -0.0976 -1.2962  0.9320
15202TIP3   OH267096   1.761   5.011   5.737  0.5998 -0.2780 -0.1547
15202TIP3    H167097   1.740   5.081   5.799  4.2207  0.1469  0.8273
15202TIP3    H267098   1.758   4.931   5.789 -1.0783 -0.5887 -0.6774
15203TIP3   OH267099   4.030   0.612  14.836 -0.1012 -0.1164 -0.4925
15203TIP3    H167100   3.991   0.694  14.804  0.8120  0.0476 -1.2505
15203TIP3    H267101   3.962   0.546  14.822  0.1115  0.0260 -2.4593
15204TIP3   OH267102   4.172   2.003   4.811  0.3690 -0.2635  0.0914
15204TIP3    H167103   4.107   2.072   4.825 -0.0746 -0.3668 -1.2415
15204TIP3    H267104   4.123   1.921   4.822  0.9141 -0.3884  1.7595
15205TIP3   OH267105   5.056   6.219  16.406 -0.2574 -0.1619 -0.5102
15205TIP3    H167106   5.142   6.204  16.446 -0.5431 -1.9530 -0.5093
15205TIP3    H267107   4.998   6.240  16.479 -0.0512  0.0539 -0.4057
15206TIP3   OH267108   0.629   0.189  13.786 -0.3063  0.1585  0.3707
15206TIP3    H167109   0.683   0.141  13.723  1.2467  0.4424  1.4516
15206TIP3    H267110   0.539   0.175  13.755  0.4021  0.3642 -1.9545
15207TIP3   OH267111   1.121   1.493   3.327 -0.1736 -0.0479 -0.7197
15207TIP3    H167112   1.173   1.539   3.393 -0.2204  0.1715 -0.8353
15207TIP3    H267113   1.044   1.548   3.314  0.4635  0.5894 -1.9254
15208TIP3   OH267114   6.763   4.700   1.018  0.0303 -0.1300  0.1084
15208TIP3    H167115   6.814   4.629   0.979 -1.5324 -1.4146  0.2729
15208TIP3    H267116   6.678   4.660   1.037 -0.6935  1.6401  0.7935
15209TIP3   OH267117   1.296   3.360   2.346 -0.1379 -0.1892 -0.1071
15209TIP3    H167118   1.272   3.281   2.393 -0.5707 -0.1340 -0.2261
15209TIP3    H267119   1.225   3.372   2.282 -0.4339  0.6645  0.3652
15210TIP3   OH267120   5.122   5.455   2.751 -0.2305 -0.3567 -0.3785
15210TIP3    H167121   5.135   5.502   2.833 -1.1564 -2.1502  0.8756
15210TIP3    H267122   5.082   5.372   2.778  0.2317 -1.3505 -2.5785
15211TIP3   OH267123   5.820   5.281  12.726  0.0882 -0.3223 -0.3778
15211TIP3    H167124   5.772   5.304  12.805 -1.5849  1.4822 -1.8174
15211TIP3    H267125   5.852   5.192  12.741 -0.1476 -0.0198  2.2912
15212TIP3   OH267126   3.145   1.414   4.549 -0.2624 -0.7001 -0.3663
15212TIP3    H167127   3.101   1.346   4.498  0.3252 -0.2379 -1.5169
15212TIP3    H267128   3.229   1.426   4.506  0.4254 -0.5465  0.9448
15213TIP3   OH267129   1.824   0.647  16.121 -0.2894 -0.0146 -0.4564
15213TIP3    H167130   1.773   0.610  16.048  0.3045 -0.8475 -0.4673
15213TIP3    H267131   1.903   0.682  16.079 -0.3109  0.2266 -0.2995
15214TIP3   OH267132   5.091   3.255   5.439 -0.5296 -0.3529  0.6447
15214TIP3    H167133   5.072   3.298   5.522  0.0970  0.2584  0.4808
15214TIP3    H267134   5.065   3.318   5.372 -1.7014 -1.1205  0.3440
15215TIP3   OH267135   3.173   4.753  14.185  0.6952  0.1379 -0.5213
15215TIP3    H167136   3.187   4.808  14.262  1.5590  0.7993 -1.1343
15215TIP3    H267137   3.158   4.665  14.221  0.1168  0.6103  0.4331
15216TIP3   OH267138   4.205   0.343  13.294  0.4146  0.4126  0.0593
15216TIP3    H167139   4.192   0.371  13.385  0.6840 -1.3661  0.6839
15216TIP3    H267140   4.136   0.278  13.279  1.1282 -0.2178 -0.5847
15217TIP3   OH267141   4.731   4.052   1.132 -0.4183 -0.6316 -0.5135
15217TIP3    H167142   4.773   4.132   1.164  1.1565 -1.5292 -0.2293
15217TIP3    H267143   4.709   4.070   1.041 -0.3908  0.2336 -0.3529
15218TIP3   OH267144   3.398   0.450  14.873 -0.5080  0.3711  0.1951
15218TIP3    H167145   3.349   0.450  14.956  0.9326 -0.1916  1.0891
15218TIP3    H267146   3.464   0.382  14.885  0.2834  0.8958 -1.0882
15219TIP3   OH267147   1.661   5.951   2.454  0.3372 -0.5992  0.2810
15219TIP3    H167148   1.634   5.938   2.363 -0.1517  0.4199  0.2738
15219TIP3    H267149   1.664   6.046   2.465 -0.1274 -0.7087  1.4834
15220TIP3   OH267150   6.559   1.400  11.766  0.2811  0.1929  0.5481
15220TIP3    H167151   6.507   1.467  11.811  0.4515  1.4549 -1.0604
15220TIP3    H267152   6.508   1.378  11.688 -0.2699 -2.3548  1.5057
15221TIP3   OH267153   4.423   4.097   1.432  0.5077  0.2728  0.2310
15221TIP3    H167154   4.428   4.150   1.352 -2.7496  1.0754  0.4149
15221TIP3    H267155   4.349   4.038   1.417  0.2340 -0.0102  2.3979
15222TIP3   OH267156   5.067   0.869  11.832  0.1304 -0.2089  0.2869
15222TIP3    H167157   5.015   0.788  11.827  0.7366 -0.6194  0.4925
15222TIP3    H267158   5.016   0.933  11.783 -0.7152 -0.5229  0.7270
15223TIP3   OH267159   5.231   4.518   0.084 -0.3092 -0.0167 -0.0968
15223TIP3    H167160   5.138   4.500   0.092 -0.4835 -0.9711 -3.1346
15223TIP3    H267161   5.238   4.576   0.008  1.4062  2.4588  1.7763
15224TIP3   OH267162   1.561   1.990  16.566  0.2461 -0.6639  0.0492
15224TIP3    H167163   1.612   2.031  16.636 -0.3486 -0.6340  0.4718
15224TIP3    H267164   1.544   1.901  16.598 -1.2423 -0.2161  0.6039
15225TIP3   OH267165   3.019   0.548   0.475  0.2428  0.3959  0.5031
15225TIP3    H167166   3.070   0.479   0.433 -0.7649 -0.5233  0.7617
15225TIP3    H267167   2.959   0.502   0.533 -0.9862  1.4375  0.1028
15226TIP3   OH267168   1.507   3.391  15.842  0.3081 -0.2619  0.1974
15226TIP3    H167169   1.456   3.311  15.832  0.6577 -0.9719  3.1373
15226TIP3    H267170   1.457   3.458  15.795 -2.4548 -1.2801  1.4846
15227TIP3   OH267171   0.968   1.609   3.072 -0.1330 -0.5236  0.4538
15227TIP3    H167172   0.917   1.536   3.107  0.1890 -0.7531  0.4464
15227TIP3    H267173   1.048   1.569   3.038 -1.7297 -0.8478 -3.5176
15228TIP3   OH267174   5.437   1.117   4.707 -0.5132  0.3900 -0.2131
15228TIP3    H167175   5.379   1.057   4.661 -0.9555  0.4159  0.2984
15228TIP3    H267176   5.465   1.069   4.785  0.2288  0.3472 -0.4948
15229TIP3   OH267177   1.157   0.479  13.270 -0.1215  0.5029 -0.4008
15229TIP3    H167178   1.084   0.538  13.291 -0.6087 -0.5159  0.9013
15229TIP3    H267179   1.123   0.391  13.286  0.9083 -0.0914 -1.3330
15230TIP3   OH267180   2.612   5.480  16.035  0.7420 -0.0902 -0.4328
15230TIP3    H167181   2.662   5.416  15.985  0.6049  0.5792 -1.4514
15230TIP3    H267182   2.523   5.474  15.999  0.0579 -1.2030  1.2880
15231TIP3   OH267183   1.426   0.703   3.281  0.0465  0.1056  0.0665
15231TIP3    H167184   1.397   0.639   3.217  1.1197 -0.6129  0.2688
15231TIP3    H267185   1.349   0.758   3.297 -0.8454 -1.0069 -0.2551
15232TIP3   OH267186   4.797   1.459   4.622 -0.4529 -0.4163  0.1261
15232TIP3    H167187   4.773   1.511   4.545  0.1753  1.2039  1.0003
15232TIP3    H267188   4.776   1.514   4.697  0.1836 -1.4432  1.0937
15233TIP3   OH267189   2.740   4.377   2.196  0.1809  0.3402  0.0587
15233TIP3    H167190   2.755   4.424   2.114 -2.2012 -0.6406 -1.0566
15233TIP3    H267191   2.693   4.439   2.251  0.6892  0.5945  0.2098
15234TIP3   OH267192   0.934   4.994   4.756  0.0899 -0.6546  0.0721
15234TIP3    H167193   1.024   5.001   4.722  0.4244  0.0835  1.0755
15234TIP3    H267194   0.879   5.011   4.680  0.6800 -4.1315 -1.3435
15235TIP3   OH267195   0.125   2.281  10.924 -0.7147 -0.0775 -0.4607
15235TIP3    H167196   0.059   2.288  10.993 -0.4321  1.9603 -0.3146
15235TIP3    H267197   0.104   2.352  10.863  0.4519 -0.3297 -1.2038
15236TIP3   OH267198   4.898   4.672   3.836  0.4279  0.0312  0.0018
15236TIP3    H167199   4.915   4.663   3.930  0.2649 -0.4232 -0.0118
15236TIP3    H267200   4.902   4.767   3.820 -0.5169  0.1925  0.6469
15237TIP3   OH267201   5.946   3.865  15.050  0.2426  0.4717 -0.6971
15237TIP3    H167202   5.935   3.956  15.021 -1.2051  0.7290  0.5502
15237TIP3    H267203   5.865   3.822  15.023 -0.6758  0.4558  1.8351
15238TIP3   OH267204   6.007   2.491  12.534 -0.4918  1.2033 -0.0562
15238TIP3    H167205   5.959   2.454  12.608  0.4728  0.0373  0.0227
15238TIP3    H267206   6.046   2.571  12.569  0.2032  0.5138  0.8288
15239TIP3   OH267207   5.139   2.481   0.902 -0.3706 -0.0181  0.1688
15239TIP3    H167208   5.098   2.434   0.828 -0.4252  0.8343 -0.3566
15239TIP3    H267209   5.187   2.553   0.861 -0.4871  0.5304  0.9748
15240TIP3   OH267210   0.905   3.989   5.307 -0.2041  0.1778  0.7119
15240TIP3    H167211   0.823   3.941   5.312  0.2047 -0.4497  1.4809
15240TIP3    H267212   0.879   4.081   5.298 -0.9805 -0.0778  0.3031
15241TIP3   OH267213   0.471   1.477  10.722 -0.7280  0.3538 -0.2519
15241TIP3    H167214   0.396   1.418  10.725  0.6114 -1.5948 -2.2603
15241TIP3    H267215   0.469   1.515  10.634  0.3902  0.6173 -0.1824
15242TIP3   OH267216   3.485   2.412  14.419 -0.8061  0.6665  0.1409
15242TIP3    H167217   3.576   2.385  14.429 -0.9147  0.4444  0.5748
15242TIP3    H267218   3.435   2.332  14.433 -1.1695  1.2191  2.2858
15243TIP3   OH267219   5.052   1.895   2.266  0.4228 -0.8533  0.2437
15243TIP3    H167220   4.958   1.907   2.252  0.3956 -1.6047 -0.2458
15243TIP3    H267221   5.076   1.965   2.327 -0.0833  0.4855 -1.0310
15244TIP3   OH267222   0.953   1.531  15.178 -0.5929 -0.2714 -0.4452
15244TIP3    H167223   1.003   1.611  15.195 -0.6245  0.1016 -1.9741
15244TIP3    H267224   0.953   1.484  15.262  0.2986  0.8403  0.1993
15245TIP3   OH267225   3.345   1.441  15.046  0.0018  0.3323 -0.1835
15245TIP3    H167226   3.316   1.531  15.033  0.2112  0.2750 -1.1189
15245TIP3    H267227   3.341   1.428  15.141  0.1398  1.3789 -0.0212
15246TIP3   OH267228   5.112   3.743   0.618 -0.1465 -0.3616  0.0063
15246TIP3    H167229   5.141   3.667   0.667 -1.2309 -1.7221 -1.3558
15246TIP3    H267230   5.043   3.782   0.672  0.3909 -0.3454  0.6930
15247TIP3   OH267231   3.003   0.347  16.292 -0.3892 -0.1623 -0.7317
15247TIP3    H167232   2.994   0.270  16.237  0.1027 -0.3894 -0.5071
15247TIP3    H267233   3.096   0.371  16.285 -0.2743 -0.3051  0.1304
15248TIP3   OH267234   5.234   1.656  15.648 -0.2306  0.1241  0.5633
15248TIP3    H167235   5.193   1.735  15.613 -0.1225 -0.1836 -0.2765
15248TIP3    H267236   5.307   1.688  15.700 -0.0090  0.5665 -0.0148
15249TIP3   OH267237   5.356   0.444   6.432 -0.0216  0.1533 -0.4919
15249TIP3    H167238   5.372   0.364   6.482  2.6380  0.7951 -0.1548
15249TIP3    H267239   5.441   0.467   6.395 -1.1310  1.7636 -2.2235
15250TIP3   OH267240   5.962   0.858  15.141 -0.0796 -0.5753 -0.4405
15250TIP3    H167241   5.975   0.779  15.089 -1.1043 -1.7892  1.0511
15250TIP3    H267242   6.050   0.883  15.171  0.3180 -0.7728 -1.4202
15251TIP3   OH267243   1.395   3.293  16.765  0.0445  0.0477 -0.5358
15251TIP3    H167244   1.304   3.320  16.778 -0.4762 -2.1983  1.0880
15251TIP3    H267245   1.396   3.256  16.677 -0.8064 -0.5023 -0.3276
15252TIP3   OH267246   3.954   6.324  13.319  0.0101 -0.3901  0.4687
15252TIP3    H167247   3.981   6.237  13.287  0.4609  0.6452 -2.2311
15252TIP3    H267248   4.031   6.357  13.366  0.5085 -0.7214 -0.0992
15253TIP3   OH267249   0.660   1.145   1.296 -0.0866  0.3369  0.2495
15253TIP3    H167250   0.595   1.076   1.311 -0.7121  1.0681  1.0286
15253TIP3    H267251   0.622   1.199   1.227 -0.0148  0.4062  0.2649
15254TIP3   OH267252   6.461   1.288  14.963  0.4709  0.0995 -0.2194
15254TIP3    H167253   6.444   1.220  14.898 -0.0148  0.4975 -0.5235
15254TIP3    H267254   6.501   1.359  14.914  2.4270 -0.5448  0.3760
15255TIP3   OH267255   2.205   4.006  14.744  0.5805 -0.9344  0.7668
15255TIP3    H167256   2.242   3.919  14.755  1.1193 -0.5858  1.7926
15255TIP3    H267257   2.275   4.066  14.770  1.9501  0.0635 -4.0859
15256TIP3   OH267258   2.489   2.944   0.776  0.2933 -0.0712  0.6061
15256TIP3    H167259   2.566   2.949   0.832 -0.6041 -0.7950  1.9594
15256TIP3    H267260   2.441   3.025   0.792 -0.3447 -0.6140  1.4755
15257TIP3   OH267261   2.009   4.220  15.970 -0.0357 -0.0218  0.0637
15257TIP3    H167262   2.088   4.187  15.927 -1.2405 -0.4625 -1.9410
15257TIP3    H267263   2.022   4.201  16.063  2.2873  0.1227 -0.1814
15258TIP3   OH267264   6.593   2.013  14.507  0.3233  0.0045  0.7967
15258TIP3    H167265   6.615   2.016  14.600  0.2733  0.9153  0.7895
15258TIP3    H267266   6.665   2.060  14.463 -0.8120  1.6829  0.6286
15259TIP3   OH267267   0.307   3.606   0.830 -0.2261  0.0699  0.0012
15259TIP3    H167268   0.311   3.701   0.825 -0.5549  0.0420 -1.1376
15259TIP3    H267269   0.251   3.587   0.905  0.8521  0.7440  1.0163
15260TIP3   OH267270   0.470   0.458   2.683  0.0334 -0.1728 -0.8941
15260TIP3    H167271   0.503   0.437   2.770 -1.4610  1.3313  0.0914
15260TIP3    H267272   0.505   0.389   2.627  2.4845 -0.2149  0.5460
15261TIP3   OH267273   3.486   3.947  15.602 -0.3218  0.3563  0.6241
15261TIP3    H167274   3.457   3.856  15.596  0.4647  0.0396  1.4377
15261TIP3    H267275   3.558   3.946  15.665  0.4398  1.3674 -0.1855
15262TIP3   OH267276   1.415   5.180   0.594  0.9867 -0.2703  0.1195
15262TIP3    H167277   1.341   5.234   0.567  0.5022 -1.6447 -1.4494
15262TIP3    H267278   1.379   5.124   0.663  1.7463  1.9563  2.5001
15263TIP3   OH267279   2.131   4.928   0.403  0.0311 -0.5175  0.5851
15263TIP3    H167280   2.070   4.966   0.340 -0.2228 -1.8848 -0.0138
15263TIP3    H267281   2.213   4.975   0.388 -0.3995  0.1329  0.2071
15264TIP3   OH267282   3.418   4.632   2.638  0.5112  0.2525  0.0886
15264TIP3    H167283   3.387   4.552   2.596 -1.4502  0.0050  1.8357
15264TIP3    H267284   3.505   4.610   2.670  1.0527 -0.3037 -1.6404
15265TIP3   OH267285   0.901   0.641   5.307  0.5996  0.2766  0.1014
15265TIP3    H167286   0.993   0.664   5.298  0.4885  0.2766 -1.1031
15265TIP3    H267287   0.858   0.680   5.231 -0.2249 -0.5664  0.1173
15266TIP3   OH267288   1.468   2.673   2.308 -0.0582 -0.4334 -0.0167
15266TIP3    H167289   1.536   2.611   2.280  0.9491  0.1795  1.0339
15266TIP3    H267290   1.454   2.729   2.232 -0.5950 -1.5855 -0.8005
15267TIP3   OH267291   0.795   0.331   2.739  1.3108  0.0981  0.1071
15267TIP3    H167292   0.725   0.352   2.799  1.2840  1.2766 -0.3131
15267TIP3    H267293   0.815   0.239   2.756  0.0450 -0.1020  0.6040
15268TIP3   OH267294   1.593   5.418   0.565 -0.0317 -0.1775  0.1277
15268TIP3    H167295   1.541   5.342   0.541 -0.6066 -0.4449  2.0194
15268TIP3    H267296   1.548   5.492   0.523 -0.5146 -0.6803 -0.2574
15269TIP3   OH267297   2.161   0.471  11.163 -0.6114  0.0565  0.1021
15269TIP3    H167298   2.177   0.506  11.075 -0.7211  1.5787  0.6483
15269TIP3    H267299   2.219   0.396  11.171 -0.1879  0.2489 -1.0677
15270TIP3   OH267300   6.569   4.010  14.504  0.2500 -0.0035 -0.0393
15270TIP3    H167301   6.518   4.073  14.454  1.7961  1.0414 -0.3707
15270TIP3    H267302   6.564   3.929  14.453  0.5136  0.6129 -1.0639
15271TIP3   OH267303   3.093   5.132   4.004  0.6490  0.3255  0.1274
15271TIP3    H167304   3.141   5.211   4.027  0.5981  0.2971  0.3333
15271TIP3    H267305   3.075   5.140   3.911  1.3765  0.1704 -0.0347
15272TIP3   OH267306   3.203   1.683  13.437  0.3091  0.4115  0.0399
15272TIP3    H167307   3.256   1.712  13.363  1.5604 -0.5748  0.5207
15272TIP3    H267308   3.120   1.657  13.398  0.4165  1.2928 -0.8133
15273TIP3   OH267309   6.668   6.199  14.245  0.3230  0.4331 -0.2470
15273TIP3    H167310   6.641   6.125  14.190  0.6948  0.6750 -0.7668
15273TIP3    H267311   6.759   6.180  14.267  0.7039  1.1641 -1.1272
15274TIP3   OH267312   4.869   4.636  12.248  0.6394 -0.0986  0.3130
15274TIP3    H167313   4.945   4.693  12.231  0.8871 -0.6899 -0.6408
15274TIP3    H267314   4.843   4.605  12.161  0.6170 -1.5829  0.8325
15275TIP3   OH267315   3.612   0.848  11.762  0.4878 -0.4005 -0.5219
15275TIP3    H167316   3.534   0.825  11.711 -0.7474 -1.1331  1.5947
15275TIP3    H267317   3.581   0.909  11.828  1.3760 -1.7574  1.2295
15276TIP3   OH267318   6.232   5.593  14.490 -0.1305  0.0538  0.0574
15276TIP3    H167319   6.257   5.613  14.580 -0.8344  1.0721  0.0433
15276TIP3    H267320   6.238   5.497  14.484  0.1746 -0.0035  1.1065
15277TIP3   OH267321   5.642   5.484   3.740  0.3504 -0.6376 -0.2532
15277TIP3    H167322   5.676   5.520   3.658 -3.3655  0.4334 -1.5478
15277TIP3    H267323   5.626   5.561   3.795  2.7007 -1.3381  1.5691
15278TIP3   OH267324   3.375   3.374   0.505 -0.1479  0.0620  0.3633
15278TIP3    H167325   3.296   3.340   0.463 -0.4319 -0.5194  1.3525
15278TIP3    H267326   3.441   3.372   0.436 -0.3616 -1.7554  0.1763
15279TIP3   OH267327   1.938   0.488  14.023 -0.4263 -0.2671  0.0004
15279TIP3    H167328   1.866   0.549  14.038  0.1234  1.1331 -2.4940
15279TIP3    H267329   1.897   0.402  14.022 -1.5240  0.1865  1.7084
15280TIP3   OH267330   5.088   1.697   1.533 -0.4279 -0.3370 -0.2739
15280TIP3    H167331   5.116   1.623   1.480 -0.5288 -0.7272  0.2191
15280TIP3    H267332   5.170   1.738   1.563 -0.3720 -0.1674 -0.6480
15281TIP3   OH267333   0.874   4.271  15.727  0.1398  0.0908  0.1005
15281TIP3    H167334   0.791   4.306  15.692  0.6301  0.4880 -0.6931
15281TIP3    H267335   0.851   4.236  15.813 -0.3850  2.4021  0.9617
15282TIP3   OH267336   6.264   0.602   4.777  0.4564  0.1191 -0.1828
15282TIP3    H167337   6.253   0.529   4.838 -0.1009  0.9915  0.7990
15282TIP3    H267338   6.309   0.564   4.702  1.0569 -1.0153  0.7174
15283TIP3   OH267339   4.379   6.732   1.297 -0.1020  0.0895 -0.0953
15283TIP3    H167340   4.395   6.669   1.367 -0.7525  0.3154  0.2686
15283TIP3    H267341   4.381   6.681   1.217  0.1721 -0.2556  0.1308
15284TIP3   OH267342   3.701   0.285  11.670  0.4703  0.1454 -0.2442
15284TIP3    H167343   3.732   0.370  11.702 -1.7365 -0.1110  3.1273
15284TIP3    H267344   3.652   0.306  11.590  1.9383  1.6606 -0.8078
15285TIP3   OH267345   6.587   1.812   4.092  0.8993 -0.0484 -0.0496
15285TIP3    H167346   6.535   1.790   4.169  0.5983 -2.3756 -0.8214
15285TIP3    H267347   6.551   1.895   4.061 -0.3389 -0.1047  1.1567
15286TIP3   OH267348   6.389   3.634  10.556  0.4000 -0.2713 -0.3290
15286TIP3    H167349   6.443   3.683  10.494  1.1808  0.2925  0.7686
15286TIP3    H267350   6.407   3.674  10.641  0.1917 -1.7276  0.4403
15287TIP3   OH267351   1.694   3.745  12.507  0.0799  0.1594 -0.5516
15287TIP3    H167352   1.633   3.682  12.470 -0.5617  0.0428  0.6670
15287TIP3    H267353   1.777   3.727  12.463 -0.1396 -1.3984 -0.3683
15288TIP3   OH267354   1.819   2.027   0.172  0.2963  0.2272 -0.2659
15288TIP3    H167355   1.837   1.934   0.160  0.6928  0.3170 -0.3851
15288TIP3    H267356   1.900   2.062   0.211 -0.2612  0.3077  0.8522
15289TIP3   OH267357   4.530   3.522  12.473  0.4049 -0.6153 -0.0442
15289TIP3    H167358   4.563   3.612  12.477 -0.0086 -0.3704 -1.4547
15289TIP3    H267359   4.546   3.487  12.560 -0.1621  1.0862  0.8041
15290TIP3   OH267360   0.339   6.647   1.155 -0.9058 -0.0831 -0.4038
15290TIP3    H167361   0.386   6.726   1.182 -0.9473 -0.6150  1.3972
15290TIP3    H267362   0.259   6.647   1.208 -1.0389 -1.1806 -0.5632
15291TIP3   OH267363   1.664   1.799  11.421  0.4968  0.2994 -0.1029
15291TIP3    H167364   1.610   1.864  11.375  0.0712  1.9077  2.4554
15291TIP3    H267365   1.748   1.844  11.434  0.5902 -0.0931  0.6920
15292TIP3   OH267366   1.250   5.120   3.752 -0.0502  0.1446 -0.1359
15292TIP3    H167367   1.159   5.139   3.730 -0.1389  0.1918  0.2587
15292TIP3    H267368   1.301   5.180   3.699 -0.3198  1.4728  1.0480
15293TIP3   OH267369   4.578   5.300  16.894  0.2541  0.5187  0.3646
15293TIP3    H167370   4.619   5.259  16.970 -0.2526 -0.0612  0.3288
15293TIP3    H267371   4.594   5.240  16.822 -0.9394  0.1082  0.4194
15294TIP3   OH267372   3.872   6.595  10.976  0.5256  0.1231 -0.4556
15294TIP3    H167373   3.880   6.600  10.881 -2.1946  2.6984 -0.6861
15294TIP3    H267374   3.787   6.553  10.991  1.6519 -1.8357  0.9699
15295TIP3   OH267375   3.187   6.396   1.587  0.3238  0.0900 -0.0958
15295TIP3    H167376   3.228   6.312   1.607  0.1156  0.0289  0.0766
15295TIP3    H267377   3.250   6.441   1.531 -0.0257 -0.6229 -1.0949
15296TIP3   OH267378   5.147   5.953   6.468  0.9561  0.1611 -0.3953
15296TIP3    H167379   5.172   6.002   6.545  0.6773  1.3269 -1.0279
15296TIP3    H267380   5.215   5.971   6.403  0.7729 -0.1540 -0.6840
15297TIP3   OH267381   2.237   5.208   3.350  0.8258 -0.2064 -0.5396
15297TIP3    H167382   2.213   5.233   3.439  0.7717 -0.5255 -0.4648
15297TIP3    H267383   2.154   5.183   3.309  1.1049 -2.0382 -0.0507
15298TIP3   OH267384   0.472   3.893   2.469  0.6484  0.7620 -0.4318
15298TIP3    H167385   0.485   3.882   2.375 -2.5007 -0.7221 -0.8227
15298TIP3    H267386   0.500   3.809   2.507  0.6702  0.8777 -0.1878
15299TIP3   OH267387   6.770   3.205  15.619  0.4880 -0.0550  0.0361
15299TIP3    H167388   6.813   3.286  15.647  0.5133 -0.3225  0.8130
15299TIP3    H267389   6.815   3.137  15.669  0.2245 -0.5059 -0.3435
15300TIP3   OH267390   1.860   1.186   2.406 -0.2515  0.5127 -0.5786
15300TIP3    H167391   1.770   1.158   2.425  0.0901  0.5645  1.2185
15300TIP3    H267392   1.915   1.123   2.452  0.6107  1.4128 -0.3532
15301TIP3   OH267393   0.309   2.295   6.110 -0.0867  0.4724  0.8014
15301TIP3    H167394   0.244   2.228   6.086 -1.5676  1.6189  1.4356
15301TIP3    H267395   0.307   2.357   6.037  0.4475  0.4167  0.7388
15302TIP3   OH267396   0.734   3.806   2.967  0.0403 -0.6897  0.0246
15302TIP3    H167397   0.682   3.812   3.047 -0.5487  0.6736 -0.4314
15302TIP3    H267398   0.824   3.826   2.995 -0.4003  1.3937  0.1354
15303TIP3   OH267399   3.361   4.842  14.010 -0.1685  0.5578 -0.2171
15303TIP3    H167400   3.316   4.890  13.940 -0.8822  1.4404  0.8088
15303TIP3    H267401   3.291   4.813  14.068  0.2384 -1.8732 -0.8342
15304TIP3   OH267402   3.714   1.760  16.657  0.5855  0.7918  0.0630
15304TIP3    H167403   3.803   1.737  16.683  0.8275  1.1615 -0.4279
15304TIP3    H267404   3.662   1.745  16.736  0.9662 -0.0745  0.1566
15305TIP3   OH267405   1.775   1.515  11.875 -0.6914  0.4516  0.2316
15305TIP3    H167406   1.815   1.593  11.838 -0.9082  1.0507  1.2254
15305TIP3    H267407   1.696   1.501  11.823 -1.1254  1.4260  0.6082
15306TIP3   OH267408   3.637   1.762   2.051 -0.7343 -0.3593 -0.6503
15306TIP3    H167409   3.615   1.716   1.970 -3.4434 -0.4680  0.0708
15306TIP3    H267410   3.556   1.762   2.102  0.1865  1.9240  0.9976
15307TIP3   OH267411   5.364   0.795   5.618 -0.6245  0.0987 -0.8178
15307TIP3    H167412   5.433   0.808   5.683 -1.0495 -0.0713 -0.3236
15307TIP3    H267413   5.305   0.732   5.659  0.7454 -2.5915 -2.6204
15308TIP3   OH267414   2.832   0.614   5.959 -0.2363 -0.0354  0.0108
15308TIP3    H167415   2.815   0.683   5.895  0.2659 -0.3058 -0.4260
15308TIP3    H267416   2.905   0.648   6.011  1.3981 -1.0625 -1.5185
15309TIP3   OH267417   5.727   4.327   4.604  0.3353  0.0334  0.0119
15309TIP3    H167418   5.789   4.288   4.542  0.5151 -1.5624  1.1514
15309TIP3    H267419   5.780   4.389   4.654  0.9755 -1.1022  0.7812
15310TIP3   OH267420   1.857   2.505   4.238  0.1617  0.1661 -0.1863
15310TIP3    H167421   1.897   2.429   4.280 -0.6946 -1.5055 -2.2273
15310TIP3    H267422   1.928   2.543   4.186  0.2862  0.0724 -0.0870
15311TIP3   OH267423   3.778   3.578  16.892 -0.3727 -0.3250 -0.0411
15311TIP3    H167424   3.764   3.602  16.801  0.2716  0.0239 -0.0543
15311TIP3    H267425   3.830   3.497  16.888 -0.5159 -0.4205  0.0166
15312TIP3   OH267426   4.385   0.931   1.014  0.0437  0.1601 -0.0880
15312TIP3    H167427   4.332   0.914   0.936 -0.4303  1.0797  0.0187
15312TIP3    H267428   4.461   0.874   1.004  0.0440  0.3353 -1.2879
15313TIP3   OH267429   1.994   1.493  14.411  0.1071 -0.0928  0.0829
15313TIP3    H167430   1.962   1.583  14.415 -0.7491 -0.3363 -0.6500
15313TIP3    H267431   2.020   1.472  14.500 -1.1151  0.3832  0.5691
15314TIP3   OH267432   2.764   5.646   3.026  0.8404  0.4451 -0.0676
15314TIP3    H167433   2.807   5.594   2.958 -0.9967  2.1697 -2.7370
15314TIP3    H267434   2.743   5.582   3.095  1.4081 -1.7355 -1.7932
15315TIP3   OH267435   4.137   1.474   3.646  0.2051 -0.0673 -0.1305
15315TIP3    H167436   4.147   1.442   3.736  0.4306 -2.8809 -1.0484
15315TIP3    H267437   4.220   1.451   3.604 -0.9235 -1.4496 -1.7323
15316TIP3   OH267438   3.815   2.218  11.636  0.0761  0.1932  0.2979
15316TIP3    H167439   3.881   2.236  11.704  1.7390 -1.0862 -0.8791
15316TIP3    H267440   3.848   2.264  11.559  0.9660 -2.3828 -0.9648
15317TIP3   OH267441   0.341   1.762  12.737 -0.2386 -0.5163 -0.1923
15317TIP3    H167442   0.361   1.671  12.717 -1.3286 -1.1047  1.2431
15317TIP3    H267443   0.285   1.791  12.664 -0.6590 -1.2776 -0.1785
15318TIP3   OH267444   3.021   6.574   2.957 -0.3903 -0.2750  0.1373
15318TIP3    H167445   2.968   6.522   3.016 -0.4276 -3.5457 -2.5017
15318TIP3    H267446   2.961   6.601   2.887  0.4768 -0.2440 -0.6255
15319TIP3   OH267447   0.468   4.389   4.091 -0.5132 -0.1767 -0.3318
15319TIP3    H167448   0.553   4.355   4.120 -0.6632 -0.4751 -0.2482
15319TIP3    H267449   0.404   4.330   4.129 -0.6908 -0.9721 -1.7823
15320TIP3   OH267450   4.416   6.079   0.843 -0.0108  0.4302 -0.0526
15320TIP3    H167451   4.475   6.144   0.882  0.5083 -0.1814  0.1981
15320TIP3    H267452   4.341   6.130   0.813  0.3774  1.1441  0.1633
15321TIP3   OH267453   0.438   3.913   3.058  0.1826  0.0234  0.2523
15321TIP3    H167454   0.470   3.934   3.146 -1.5995  1.1030  0.7009
15321TIP3    H267455   0.369   3.978   3.042 -1.5983 -1.9713 -0.7237
15322TIP3   OH267456   5.453   4.023   1.658 -0.1744  0.1253 -0.0094
15322TIP3    H167457   5.545   4.014   1.632 -0.5149 -2.1661 -0.6479
15322TIP3    H267458   5.404   4.010   1.577 -1.0811 -0.2490  0.5848
15323TIP3   OH267459   3.206   6.843   2.974  0.2184  0.8235  0.8099
15323TIP3    H167460   3.227   6.809   2.887 -0.0465  1.6531  0.4115
15323TIP3    H267461   3.117   6.877   2.966 -0.9896 -1.7160  2.2034
15324TIP3   OH267462   1.634   0.968   3.999  0.7316 -0.5324  0.2984
15324TIP3    H167463   1.635   1.061   3.976  1.4552 -0.5192  0.3504
15324TIP3    H267464   1.543   0.949   4.021  0.2087 -0.2887 -1.4889
15325TIP3   OH267465   0.824   4.924  11.286 -0.0221 -0.0862 -0.2579
15325TIP3    H167466   0.853   4.951  11.199 -0.0227 -0.5628 -0.4044
15325TIP3    H267467   0.837   5.002  11.340  0.1745  0.1475 -0.6358
15326TIP3   OH267468   6.658   0.911  15.723 -0.1744 -0.2244  0.9816
15326TIP3    H167469   6.708   0.922  15.804 -0.6386 -1.1290  1.3963
15326TIP3    H267470   6.591   0.979  15.726 -0.8806 -0.9383  1.8948
15327TIP3   OH267471   1.998   5.028   4.975 -0.2193  0.1325  0.3402
15327TIP3    H167472   1.981   5.061   4.887 -0.1997 -0.0478  0.2673
15327TIP3    H267473   2.078   5.072   5.003 -0.5244  0.6065  0.4843
15328TIP3   OH267474   5.720   4.766  16.561  0.3872 -0.3732 -0.1423
15328TIP3    H167475   5.808   4.801  16.547  0.3103 -0.9466 -2.5392
15328TIP3    H267476   5.673   4.786  16.480 -1.4243 -0.8561  0.7449
15329TIP3   OH267477   2.970   5.076  11.908  0.1093  0.0267  0.4956
15329TIP3    H167478   2.985   5.155  11.959 -0.4166 -0.1964  1.0101
15329TIP3    H267479   2.982   5.005  11.971  1.0681 -0.3315 -0.0733
15330TIP3   OH267480   5.714   1.357   0.659  0.1012 -0.2541  0.0113
15330TIP3    H167481   5.718   1.330   0.567 -0.3552  0.2760 -0.1752
15330TIP3    H267482   5.672   1.284   0.704 -0.2318 -0.2643 -0.3125
15331TIP3   OH267483   6.548   4.580  12.849 -0.2739  0.8061  0.3197
15331TIP3    H167484   6.617   4.518  12.870 -0.9331 -0.1986 -0.3356
15331TIP3    H267485   6.590   4.646  12.794 -0.3985 -1.5693 -2.9170
15332TIP3   OH267486   5.765   6.105  16.306 -0.4991  0.2746 -0.1269
15332TIP3    H167487   5.801   6.124  16.219 -1.4508 -0.0663 -0.6191
15332TIP3    H267488   5.811   6.026  16.334  0.5960  1.0002  0.1708
15333TIP3   OH267489   0.919   1.301  11.840  0.3131 -0.0082 -0.2291
15333TIP3    H167490   0.868   1.251  11.775  0.4270  0.1377 -0.4328
15333TIP3    H267491   1.009   1.294  11.809  0.3855 -0.0625 -0.0018
15334TIP3   OH267492   0.041   3.447  10.386 -0.4011  0.5771 -0.4679
15334TIP3    H167493  -0.017   3.483  10.453  1.0431  0.2249  1.0314
15334TIP3    H267494   0.067   3.523  10.334  1.1275  1.4966  1.5027
15335TIP3   OH267495   1.014   4.246   2.611  0.1811 -0.0189  0.4684
15335TIP3    H167496   1.039   4.292   2.691 -0.4264 -1.5558  1.5782
15335TIP3    H267497   0.940   4.297   2.577  0.5046  0.7039  0.8110
15336TIP3   OH267498   6.688   0.244  15.486 -0.2621  0.1985  0.5080
15336TIP3    H167499   6.678   0.278  15.575 -1.8111  2.3444 -0.3851
15336TIP3    H267500   6.780   0.258  15.465 -0.4751  2.4870  0.7883
15337TIP3   OH267501   1.035   3.767  12.776 -0.3520  0.8933 -0.2800
15337TIP3    H167502   1.052   3.751  12.683 -0.4816  1.2239 -0.3600
15337TIP3    H267503   0.985   3.691  12.804  0.1982  0.4985 -0.3369
15338TIP3   OH267504   2.893   4.031   3.132 -0.3353  0.8195  0.3325
15338TIP3    H167505   2.827   3.970   3.164  0.7423  0.3621  1.7982
15338TIP3    H267506   2.890   4.022   3.037 -0.8150 -0.8614  0.4719
15339TIP3   OH267507   0.243   1.176  12.462  0.2492  0.3434  0.2760
15339TIP3    H167508   0.184   1.124  12.408  1.7147 -1.4915  0.3222
15339TIP3    H267509   0.206   1.170  12.550  0.9029 -1.5430  0.4726
15340TIP3   OH267510   4.917   3.358   2.756  0.3191  0.0373  0.2278
15340TIP3    H167511   5.003   3.381   2.792 -0.0226 -1.2510  2.0006
15340TIP3    H267512   4.915   3.400   2.670  1.2231  3.2956  1.6387
15341TIP3   OH267513   5.205   5.128  15.836 -0.4908  0.0500 -0.8443
15341TIP3    H167514   5.209   5.109  15.929 -2.1056  0.7562 -0.5905
15341TIP3    H267515   5.292   5.162  15.814 -0.6910  1.8502  0.8812
15342TIP3   OH267516   2.082   4.253  14.621 -0.1193  0.1965 -0.1018
15342TIP3    H167517   2.168   4.260  14.579  0.2608  0.5517  0.7097
15342TIP3    H267518   2.076   4.162  14.650  0.5938  0.4968  1.0686
15343TIP3   OH267519   3.605   3.125  11.997  0.4076 -0.1495 -0.3785
15343TIP3    H167520   3.568   3.199  11.949  1.6487  1.0047  0.3759
15343TIP3    H267521   3.532   3.090  12.048 -0.3479  0.1410 -1.2435
15344TIP3   OH267522   3.944   6.591   0.794  0.0536 -0.0762 -0.0096
15344TIP3    H167523   3.887   6.557   0.862 -0.6677 -0.0261 -0.5742
15344TIP3    H267524   3.972   6.514   0.744  0.6298 -0.1199  0.3640
15345TIP3   OH267525   2.124   1.064  11.073 -0.6146  0.5869  0.3496
15345TIP3    H167526   2.110   1.030  11.161 -0.3339 -0.3572  0.0370
15345TIP3    H267527   2.046   1.039  11.024 -0.6657  0.9058  0.2624
15346TIP3   OH267528   5.348   4.407  15.460 -0.5338 -0.3355 -0.3289
15346TIP3    H167529   5.417   4.412  15.526  0.2582 -2.3804 -0.9399
15346TIP3    H267530   5.349   4.493  15.418 -1.9655  1.5576  3.1095
15347TIP3   OH267531   2.198   5.904  14.110 -0.2294  0.0383  0.3678
15347TIP3    H167532   2.203   5.867  14.198 -0.7629  0.9993  0.8205
15347TIP3    H267533   2.288   5.923  14.086 -0.0085 -0.9429  0.3837
15348TIP3   OH267534   4.547   2.712  10.650  0.4539  0.3069 -0.0708
15348TIP3    H167535   4.486   2.785  10.641 -0.0543 -0.1704 -0.5745
15348TIP3    H267536   4.575   2.692  10.561  0.4018 -0.2674  0.0337
15349TIP3   OH267537   3.481   2.666  10.488 -0.1076  0.8391 -0.2700
15349TIP3    H167538   3.462   2.573  10.493  0.7268  0.7101  0.6514
15349TIP3    H267539   3.418   2.700  10.423  0.6195 -0.6240 -1.8155
15350TIP3   OH267540   4.683   4.212   4.670  0.2152  0.6285 -0.1722
15350TIP3    H167541   4.633   4.133   4.691  0.5882  0.6672  0.9282
15350TIP3    H267542   4.625   4.284   4.692  0.7695  0.6762  1.2688
15351TIP3   OH267543   5.040   5.168   1.137  0.0341 -0.1696 -0.7201
15351TIP3    H167544   5.063   5.184   1.229 -0.2352  2.0652 -0.9933
15351TIP3    H267545   5.020   5.255   1.102 -0.5503 -1.0657 -2.7224
15352TIP3   OH267546   4.125   6.719   5.754 -0.1283 -0.7210  0.3656
15352TIP3    H167547   4.111   6.784   5.685 -0.2262  0.1746  1.1983
15352TIP3    H267548   4.203   6.751   5.801 -1.5078  0.0972  2.2183
15353TIP3   OH267549   3.763   4.725   4.709  0.0605  0.2013  0.0669
15353TIP3    H167550   3.788   4.815   4.689  1.1946  0.1659  1.2442
15353TIP3    H267551   3.758   4.683   4.623  1.0802  0.9852 -0.3984
15354TIP3   OH267552   0.073   6.709   5.027  0.2921  0.1821  0.1253
15354TIP3    H167553   0.105   6.784   4.978 -0.4175  0.6796  0.4079
15354TIP3    H267554   0.139   6.641   5.013  0.6194  0.6511 -0.6506
15355TIP3   OH267555   0.407   5.896   3.872  0.2124  0.7558 -0.3007
15355TIP3    H167556   0.441   5.945   3.797  0.9324  0.9458  0.1295
15355TIP3    H267557   0.342   5.837   3.835 -0.9501  2.2807 -0.7942
15356TIP3   OH267558   5.762   6.193  15.776  0.7413  0.0924 -0.1507
15356TIP3    H167559   5.732   6.102  15.776 -2.5545  1.0491  0.3286
15356TIP3    H267560   5.782   6.211  15.684 -1.6737 -0.2784 -0.8162
15357TIP3   OH267561   6.516   2.307  15.309 -0.3592 -0.0922  0.1285
15357TIP3    H167562   6.499   2.397  15.282 -2.6753 -0.1592  1.0629
15357TIP3    H267563   6.588   2.278  15.253 -1.6459  1.3084 -2.4587
15358TIP3   OH267564   3.843   0.423  14.823 -0.3060  0.1356  0.5494
15358TIP3    H167565   3.829   0.350  14.763 -0.6464  1.0502 -0.5323
15358TIP3    H267566   3.764   0.476  14.814  0.8392  1.7777 -0.3937
15359TIP3   OH267567   5.023   3.477   2.460 -0.1754 -0.0180  0.4902
15359TIP3    H167568   5.032   3.475   2.364 -0.2317  1.5090  0.4230
15359TIP3    H267569   5.018   3.570   2.481 -1.1956 -0.3643  1.8984
15360TIP3   OH267570   6.232   0.713  15.640  0.1799 -0.0877 -0.2777
15360TIP3    H167571   6.326   0.722  15.655 -0.2067  1.5094  1.6330
15360TIP3    H267572   6.204   0.648  15.704 -0.0459 -0.4791 -0.7677
15361TIP3   OH267573   3.963   1.590   3.975 -0.3170 -0.1347  0.4203
15361TIP3    H167574   3.930   1.561   3.890  0.6007  0.6282 -0.2212
15361TIP3    H267575   3.977   1.509   4.025 -0.3778 -0.6155 -0.3320
15362TIP3   OH267576   1.510   1.624  16.043  0.0393 -0.4782  0.7629
15362TIP3    H167577   1.437   1.680  16.018 -0.8578 -1.2359  1.6173
15362TIP3    H267578   1.583   1.655  15.990 -0.5987  1.0604  0.7483
15363TIP3   OH267579   4.384   4.234   1.222  0.6010  0.5902  0.2186
15363TIP3    H167580   4.349   4.298   1.284  0.1330 -0.0862  0.6514
15363TIP3    H267581   4.310   4.211   1.166  0.1671 -1.1854  1.4241
15364TIP3   OH267582   4.315   6.315  11.247 -0.2242  0.0157  0.6623
15364TIP3    H167583   4.272   6.261  11.180 -2.6479  1.8305  0.6132
15364TIP3    H267584   4.280   6.280  11.330  0.7475 -0.5416  0.8530
15365TIP3   OH267585   3.823   1.375  14.105  0.3719  0.3575  0.0613
15365TIP3    H167586   3.892   1.314  14.077 -0.0355  0.1311 -0.4699
15365TIP3    H267587   3.747   1.319  14.123  0.0377  0.6931 -0.2864
15366TIP3   OH267588   5.444   5.420  13.871 -0.0225  0.4456 -0.1140
15366TIP3    H167589   5.530   5.449  13.839  0.4611 -0.9506 -0.1552
15366TIP3    H267590   5.434   5.464  13.955 -0.2517  2.3035 -1.0589
15367TIP3   OH267591   2.550   0.531   2.876  0.2996 -0.1405  0.2524
15367TIP3    H167592   2.529   0.516   2.968 -0.3068  0.0619  0.1553
15367TIP3    H267593   2.479   0.488   2.828 -0.0257  0.7510 -0.0850
15368TIP3   OH267594   2.161   5.864   0.796 -0.5801 -0.6309 -0.5053
15368TIP3    H167595   2.080   5.904   0.829 -0.8055 -0.3243 -1.4014
15368TIP3    H267596   2.231   5.910   0.842 -0.8802 -0.1026 -0.5668
15369TIP3   OH267597   1.236   5.551  14.797  0.3719 -0.3018 -0.1057
15369TIP3    H167598   1.249   5.457  14.782 -0.8982 -0.4355 -0.5210
15369TIP3    H267599   1.175   5.577  14.728  0.0972  0.6664  0.4952
15370TIP3   OH267600   5.786   4.308  14.164  0.1772 -0.1494  0.5344
15370TIP3    H167601   5.769   4.394  14.204  1.1317 -0.2376  1.1692
15370TIP3    H267602   5.816   4.329  14.076  0.0554  0.1525  0.5618
15371TIP3   OH267603   5.179   5.631   0.332 -0.6727 -0.1399  0.0380
15371TIP3    H167604   5.267   5.606   0.302 -1.2096 -0.5738 -1.2646
15371TIP3    H267605   5.140   5.676   0.257 -1.1127  1.2313  1.0542
15372TIP3   OH267606   4.074   0.559   3.901  0.0960  0.6729 -0.5948
15372TIP3    H167607   4.021   0.571   3.980 -0.7416 -0.1117 -1.0202
15372TIP3    H267608   4.132   0.635   3.899  0.8558  0.2239  1.3326
15373TIP3   OH267609   2.317   0.182  15.717 -0.1315  0.3625  0.3420
15373TIP3    H167610   2.313   0.112  15.782 -1.3789 -1.0991 -1.2125
15373TIP3    H267611   2.311   0.263  15.768  1.1718 -0.6210  2.1799
15374TIP3   OH267612   3.380   5.723  13.721 -0.1299 -0.3542 -0.4235
15374TIP3    H167613   3.309   5.673  13.680 -0.7027 -0.1653  0.3091
15374TIP3    H267614   3.364   5.813  13.694  0.9306 -0.5450 -1.7837
15375TIP3   OH267615   1.653   4.901  11.984  0.0584 -0.2160  0.2274
15375TIP3    H167616   1.692   4.951  12.056 -0.2860  0.3835  0.0103
15375TIP3    H267617   1.564   4.936  11.976 -0.8150 -2.1006  1.2264
15376TIP3   OH267618   1.611   4.688   1.759 -0.1034 -0.2677 -0.4400
15376TIP3    H167619   1.566   4.611   1.792  1.4354 -1.2435 -0.5628
15376TIP3    H267620   1.635   4.665   1.669  0.8473  0.1492 -0.2986
15377TIP3   OH267621   1.566   6.594   4.153 -0.7085 -0.8918 -0.1621
15377TIP3    H167622   1.535   6.503   4.149 -0.3277 -1.1489  1.8240
15377TIP3    H267623   1.491   6.643   4.185 -0.8169 -0.5386 -0.9381
15378TIP3   OH267624   5.664   5.135   1.021  0.4966  0.2310 -0.2589
15378TIP3    H167625   5.631   5.111   0.934 -1.4087  0.4881  0.3401
15378TIP3    H267626   5.585   5.144   1.075  1.5223  1.6070  1.1122
15379TIP3   OH267627   0.176   4.857  15.389 -0.4903 -0.3482 -0.1293
15379TIP3    H167628   0.103   4.842  15.329  0.7035 -1.2972 -1.4091
15379TIP3    H267629   0.138   4.849  15.477 -1.9136 -0.7824 -0.7688
15380TIP3   OH267630   1.640   5.958   0.592  0.3573  0.0685 -0.8078
15380TIP3    H167631   1.631   6.031   0.531  0.1732 -0.0177 -0.8845
15380TIP3    H267632   1.611   5.993   0.676 -0.4895 -0.1423 -1.0067
15381TIP3   OH267633   2.647   5.317   4.691  0.2409  0.4377  0.5307
15381TIP3    H167634   2.729   5.296   4.647 -0.3042 -0.6164 -0.0293
15381TIP3    H267635   2.603   5.379   4.633  0.4348  0.6555  0.6142
15382TIP3   OH267636   0.510   0.838   5.520 -0.4912  0.6036 -0.1009
15382TIP3    H167637   0.470   0.865   5.438 -1.5480  0.9273  0.4932
15382TIP3    H267638   0.553   0.755   5.500  0.7347  1.4981 -1.3707
15383TIP3   OH267639   0.039   0.578   5.208 -0.1331 -0.5243 -0.7526
15383TIP3    H167640  -0.026   0.510   5.227  1.1132 -1.3516  0.7587
15383TIP3    H267641   0.026   0.643   5.277  0.6419 -0.6953 -0.4433
15384TIP3   OH267642   0.501   0.509  10.175  0.0541 -0.1648 -0.0303
15384TIP3    H167643   0.557   0.575  10.134 -0.6752 -1.0251 -2.5888
15384TIP3    H267644   0.485   0.445  10.106 -2.5206 -0.9493  1.1778
15385TIP3   OH267645   0.761   3.076  15.449 -0.0236 -0.4021 -0.5553
15385TIP3    H167646   0.820   3.041  15.382  0.7728 -0.1228 -0.0081
15385TIP3    H267647   0.719   2.998  15.487 -2.4022 -0.4767 -3.0483
15386TIP3   OH267648   6.492   5.528  15.935 -0.8340 -0.2340 -0.0919
15386TIP3    H167649   6.444   5.447  15.951  0.2362 -0.6620  1.1188
15386TIP3    H267650   6.526   5.554  16.021  1.1460 -0.0062 -0.8785
15387TIP3   OH267651   5.215   6.504  13.370  0.6332 -0.8559  0.0816
15387TIP3    H167652   5.280   6.571  13.352 -0.1692  0.0908  0.5942
15387TIP3    H267653   5.155   6.507  13.294 -0.8511  0.8220  1.2398
15388TIP3   OH267654   5.001   5.773   2.800  0.3813 -0.0268 -0.3354
15388TIP3    H167655   4.939   5.808   2.864 -1.0695 -1.3332 -0.9588
15388TIP3    H267656   5.070   5.733   2.853 -1.8204 -2.9306  0.6070
15389TIP3   OH267657   5.489   5.083  11.847 -0.4522  0.0358 -0.5970
15389TIP3    H167658   5.403   5.091  11.806 -0.3656 -0.0531 -0.7952
15389TIP3    H267659   5.502   4.988  11.858  0.6087 -0.1142 -2.6802
15390TIP3   OH267660   6.084   6.183   3.458 -0.5852 -0.1416 -0.6061
15390TIP3    H167661   6.014   6.174   3.523  2.0428  0.3135  2.4916
15390TIP3    H267662   6.099   6.277   3.451 -1.0828 -0.1493 -2.2880
15391TIP3   OH267663   5.559   2.307  16.202 -0.1395  0.6715  0.3982
15391TIP3    H167664   5.523   2.375  16.260 -0.7922  0.2815  0.4550
15391TIP3    H267665   5.487   2.246  16.188 -0.2736  1.1981 -1.5285
15392TIP3   OH267666   0.143   6.515   6.299 -0.0336  0.2570  0.2755
15392TIP3    H167667   0.101   6.590   6.342  0.5314  0.3257  0.7293
15392TIP3    H267668   0.234   6.542   6.288 -0.3672  0.6144 -1.8790
15393TIP3   OH267669   4.454   5.593   4.338  0.1241  0.6109  0.0463
15393TIP3    H167670   4.394   5.565   4.407  0.6453  2.7985  1.5016
15393TIP3    H267671   4.400   5.596   4.259 -2.1794  3.7325  1.5161
15394TIP3   OH267672   4.439   1.862  14.168  0.0794 -0.4925  0.2936
15394TIP3    H167673   4.523   1.864  14.215 -0.1448  1.1152  0.6871
15394TIP3    H267674   4.460   1.827  14.082  1.9817  3.4387 -1.0471
15395TIP3   OH267675   6.008   6.642  11.658  0.2811  0.4372 -0.2626
15395TIP3    H167676   6.036   6.590  11.582 -1.1507  0.6526 -0.9895
15395TIP3    H267677   6.026   6.586  11.733 -1.1092 -1.1218 -1.0163
15396TIP3   OH267678   4.450   0.672  12.168  0.4484  0.1855  0.1041
15396TIP3    H167679   4.496   0.686  12.251  0.9694 -1.4175  0.1178
15396TIP3    H267680   4.477   0.584  12.140 -2.4989 -0.8112  0.0338
15397TIP3   OH267681   0.721   2.080  13.363  0.2922  0.1184 -0.9376
15397TIP3    H167682   0.773   2.052  13.438  3.8402  0.2728 -3.0957
15397TIP3    H267683   0.776   2.059  13.287 -2.6478  0.8408 -3.4784
15398TIP3   OH267684   5.481   0.355  12.730 -0.0955  0.1131 -0.1817
15398TIP3    H167685   5.457   0.398  12.812 -0.4643  0.8987 -0.6842
15398TIP3    H267686   5.566   0.392  12.707  0.6732 -1.1513  0.5519
15399TIP3   OH267687   5.599   1.946  12.968  0.0620 -0.2604  0.6122
15399TIP3    H167688   5.558   1.901  12.895 -1.3553  0.7643  0.7385
15399TIP3    H267689   5.532   2.006  13.000  0.9201 -0.1075  2.2462
15400TIP3   OH267690   3.142   4.635   2.103 -0.3153 -0.3788  0.3350
15400TIP3    H167691   3.106   4.719   2.075  1.3598  0.4612  0.5806
15400TIP3    H267692   3.083   4.606   2.173  0.5152  1.8777  2.0556
15401TIP3   OH267693   4.166   6.113  11.146  0.0115 -0.0178 -0.1947
15401TIP3    H167694   4.092   6.137  11.090 -1.2142 -0.6544  1.0840
15401TIP3    H267695   4.150   6.021  11.169  0.4325  0.2463  1.2434
15402TIP3   OH267696   5.256   6.256   4.666 -0.1373 -0.2933  0.3582
15402TIP3    H167697   5.221   6.336   4.706  1.3307  0.3329  0.4557
15402TIP3    H267698   5.299   6.287   4.586 -1.2584 -1.2679 -0.6520
15403TIP3   OH267699   5.070   5.406  10.532  0.3981  0.1839  0.8559
15403TIP3    H167700   5.114   5.414  10.447  0.5447 -0.0720  0.9066
15403TIP3    H267701   5.142   5.402  10.596  0.2912  0.2389  0.9793
15404TIP3   OH267702   0.403   1.848  16.961  0.3160 -0.3918  0.3210
15404TIP3    H167703   0.491   1.812  16.959 -0.0322 -1.5014  2.0925
15404TIP3    H267704   0.354   1.795  16.899  1.2824  1.5969 -2.3020
15405TIP3   OH267705   5.884   3.772   6.495 -0.0081 -0.6249  0.3679
15405TIP3    H167706   5.812   3.829   6.468  0.2906 -0.4140  0.0180
15405TIP3    H267707   5.840   3.695   6.532 -0.4948 -1.7676 -2.3360
15406TIP3   OH267708   6.244   3.001  14.662 -0.6314 -0.7898  0.0540
15406TIP3    H167709   6.204   2.958  14.737 -1.4602  0.7784  0.5456
15406TIP3    H267710   6.277   2.929  14.608 -1.2418 -1.9908  1.2363
15407TIP3   OH267711   3.782   0.642  17.057 -0.0131 -0.1929  0.3811
15407TIP3    H167712   3.872   0.647  17.025  0.0283 -1.8722  0.1537
15407TIP3    H267713   3.760   0.549  17.051 -1.1371 -0.0831  2.1494
15408TIP3   OH267714   2.224   6.386   4.572  0.5211 -0.8949  0.2790
15408TIP3    H167715   2.140   6.348   4.545  1.1656 -1.6397 -0.7405
15408TIP3    H267716   2.204   6.479   4.585 -0.0164 -0.6045 -2.1442
15409TIP3   OH267717   6.319   4.751  16.061  0.3285 -0.6598  0.1291
15409TIP3    H167718   6.361   4.837  16.052  0.4176 -0.8004 -1.0459
15409TIP3    H267719   6.369   4.695  16.002  2.0836 -2.2602  2.9249
15410TIP3   OH267720   2.748   5.257  15.974 -0.6249 -0.2508 -0.0074
15410TIP3    H167721   2.698   5.188  16.019 -0.7479 -0.1213  0.0521
15410TIP3    H267722   2.731   5.241  15.881 -0.6826 -0.2800  0.0077
15411TIP3   OH267723   1.605   4.502   3.805 -0.2995  0.0992 -0.4673
15411TIP3    H167724   1.541   4.545   3.861  0.4231  0.3343  0.2059
15411TIP3    H267725   1.553   4.452   3.743 -1.1325  0.4723 -0.0862
15412TIP3   OH267726   4.638   1.354   6.220  0.0272 -0.2731  0.0139
15412TIP3    H167727   4.581   1.421   6.258 -0.8533 -0.1350 -1.4662
15412TIP3    H267728   4.616   1.354   6.127  3.0284  0.3667 -0.8049
15413TIP3   OH267729   3.777   4.548  11.341 -0.3375  0.0781  0.0813
15413TIP3    H167730   3.792   4.632  11.298 -0.9914  0.4756  0.6128
15413TIP3    H267731   3.810   4.483  11.279 -0.7730  0.6665 -0.7907
15414TIP3   OH267732   6.681   6.028   3.060  0.6259 -0.1269 -0.3034
15414TIP3    H167733   6.596   6.071   3.064  1.1857  1.3516 -2.4004
15414TIP3    H267734   6.737   6.078   3.119  0.3598 -0.3408  0.1362
15415TIP3   OH267735   0.495   3.912  11.234 -0.4137  0.3777  0.0511
15415TIP3    H167736   0.411   3.910  11.188 -0.9518  2.8922  0.8020
15415TIP3    H267737   0.473   3.930  11.325  0.8935 -0.2952  0.5298
15416TIP3   OH267738   2.661   2.573  15.725  0.0975  0.0253 -0.0502
15416TIP3    H167739   2.649   2.500  15.787 -0.5775 -0.6569 -0.9691
15416TIP3    H267740   2.572   2.606  15.710  0.1201 -0.5096 -1.4696
15417TIP3   OH267741   2.205   1.379  16.282  0.1538 -0.3014  0.2841
15417TIP3    H167742   2.171   1.448  16.225 -0.8291 -1.5111 -0.6423
15417TIP3    H267743   2.250   1.319  16.224  0.0425 -1.0161  0.9160
15418TIP3   OH267744   6.505   5.365   3.184  0.4038  0.3746 -0.0692
15418TIP3    H167745   6.410   5.361   3.196  0.1565 -3.3508 -1.6674
15418TIP3    H267746   6.541   5.337   3.268 -0.0688 -0.5945 -0.1774
15419TIP3   OH267747   3.941   4.136   1.498 -0.1458 -0.0423 -0.4907
15419TIP3    H167748   3.981   4.054   1.528 -0.0437  0.1427 -0.1206
15419TIP3    H267749   3.943   4.193   1.574  0.0165  0.3954 -0.8167
15420TIP3   OH267750   4.789   0.867  16.862 -0.3547 -0.2079  0.1091
15420TIP3    H167751   4.802   0.946  16.913  1.4592  0.6590 -1.5470
15420TIP3    H267752   4.878   0.834  16.846 -0.7467 -0.1070 -2.8827
15421TIP3   OH267753   0.440   6.574  14.042 -0.2937  0.5447 -0.1345
15421TIP3    H167754   0.507   6.617  14.094 -2.0400  1.0254  1.8814
15421TIP3    H267755   0.368   6.637  14.038 -2.0252 -1.2318  0.9167
15422TIP3   OH267756   1.078   2.751   1.463  0.2782  0.1213  0.0808
15422TIP3    H167757   1.118   2.838   1.459  1.7599 -0.4608  1.2097
15422TIP3    H267758   1.002   2.762   1.520  1.1588  0.4678  1.2432
15423TIP3   OH267759   6.612   0.730  14.216 -0.6274 -0.0926 -0.3879
15423TIP3    H167760   6.531   0.680  14.207 -0.6244 -0.4257  1.2526
15423TIP3    H267761   6.682   0.665  14.215 -0.4945  0.0436 -0.1551
15424TIP3   OH267762   5.454   1.498   2.800  0.4429  0.4510  0.3090
15424TIP3    H167763   5.391   1.566   2.825  0.3299  0.2429  0.5832
15424TIP3    H267764   5.400   1.428   2.764  0.5382  0.3788  0.3073
15425TIP3   OH267765   5.358   5.082  15.518 -0.3259 -0.7432 -0.4200
15425TIP3    H167766   5.407   5.001  15.501  1.6050  0.0483  1.0021
15425TIP3    H267767   5.366   5.132  15.436 -1.8792 -2.0895 -1.4565
15426TIP3   OH267768   4.329   6.532   5.970 -0.2109 -0.1047  0.3434
15426TIP3    H167769   4.347   6.544   6.063  0.7242  2.1728 -0.0449
15426TIP3    H267770   4.254   6.589   5.953  1.0829  1.4130 -0.6736
15427TIP3   OH267771   2.001   1.708  14.060  0.4063 -0.2585 -0.5474
15427TIP3    H167772   1.994   1.714  13.965 -0.6861 -0.3192 -0.4819
15427TIP3    H267773   1.911   1.716  14.092  0.8559  0.8047  0.5484
15428TIP3   OH267774   0.556   1.404   4.959  0.5407  0.1379 -0.2789
15428TIP3    H167775   0.512   1.469   4.904  0.2323  0.6516  0.5470
15428TIP3    H267776   0.620   1.455   5.010  0.7679 -0.3100 -0.1083
15429TIP3   OH267777   0.042   4.272  11.430  0.0569  0.1742 -0.2801
15429TIP3    H167778   0.022   4.195  11.377 -0.1053 -0.1443  0.2472
15429TIP3    H267779   0.004   4.254  11.516 -0.2539  0.9736 -0.2400
15430TIP3   OH267780   3.183   2.842  14.594 -0.0410 -0.1082 -0.4161
15430TIP3    H167781   3.108   2.808  14.642 -0.0244  0.8732  0.3393
15430TIP3    H267782   3.220   2.766  14.549 -2.4295 -0.3317 -2.1465
15431TIP3   OH267783   2.544   2.782  16.570  0.3583  0.0633  0.5052
15431TIP3    H167784   2.484   2.854  16.552  0.2903 -0.0261  0.3657
15431TIP3    H267785   2.631   2.822  16.571  0.3175  0.1522  0.4584
15432TIP3   OH267786   0.127   1.183  11.819 -0.5160 -0.2198 -0.4733
15432TIP3    H167787   0.192   1.118  11.793  0.2876 -0.1611  1.2388
15432TIP3    H267788   0.167   1.268  11.796 -0.0605 -0.1954  0.3607
15433TIP3   OH267789   5.067   4.727  14.989 -0.1995  0.5271 -0.0759
15433TIP3    H167790   5.061   4.819  15.016 -0.3790  0.6033 -0.3690
15433TIP3    H267791   5.160   4.713  14.971 -0.1168  0.5467  0.3276
15434TIP3   OH267792   2.383   4.359  14.690  0.4137 -0.2379  0.0747
15434TIP3    H167793   2.376   4.453  14.708 -0.3270 -0.6058  1.8927
15434TIP3    H267794   2.450   4.328  14.751 -0.9353 -1.2507  1.1069
15435TIP3   OH267795   6.099   2.202  13.458 -0.0009  0.1126  0.2994
15435TIP3    H167796   6.042   2.215  13.382 -0.2631  0.3417  0.5341
15435TIP3    H267797   6.042   2.164  13.524  0.1936  0.0577  0.4358
15436TIP3   OH267798   1.323   3.758   5.645  0.0435 -0.2000 -0.3158
15436TIP3    H167799   1.318   3.788   5.736  0.6224  0.5051 -0.5086
15436TIP3    H267800   1.296   3.666   5.649 -0.4776 -0.0281  0.4819
15437TIP3   OH267801   2.701   3.705  15.805 -0.2211  0.3376  0.6387
15437TIP3    H167802   2.708   3.644  15.732 -0.3915  1.2624 -0.1795
15437TIP3    H267803   2.619   3.752  15.788 -0.1974  0.6440  1.3614
15438TIP3   OH267804   5.939   2.827   8.879 -0.0925 -0.0687  0.2535
15438TIP3    H167805   5.932   2.747   8.826 -0.3366 -0.1688  0.4334
15438TIP3    H267806   5.925   2.798   8.969 -1.1997  0.3140  0.2253
15439TIP3   OH267807   5.314   6.331  13.097 -0.1528 -0.2812  0.3882
15439TIP3    H167808   5.375   6.340  13.171  1.4734 -1.6372 -0.6906
15439TIP3    H267809   5.286   6.239  13.101 -1.0318 -0.0372  0.0293
15440TIP3   OH267810   0.214   1.811   2.548 -0.0390  0.5248  0.1295
15440TIP3    H167811   0.222   1.716   2.554  3.1708  0.6993  0.3901
15440TIP3    H267812   0.181   1.826   2.459  0.5296 -0.8440 -0.3533
15441TIP3   OH267813   5.269   2.346   6.194  0.3172 -0.0994  0.1491
15441TIP3    H167814   5.257   2.257   6.224 -2.3950 -0.0367 -0.5171
15441TIP3    H267815   5.348   2.376   6.238 -0.0702 -2.0060  2.2926
15442TIP3   OH267816   4.768   6.805  13.315  0.1822  0.3005  0.2915
15442TIP3    H167817   4.844   6.843  13.360 -0.2420 -0.4521  1.7053
15442TIP3    H267818   4.773   6.712  13.335  0.5662 -0.2623 -2.1713
15443TIP3   OH267819   2.510   3.714  15.356  0.1800 -0.3877  0.3581
15443TIP3    H167820   2.493   3.664  15.436  4.1634 -2.0257  0.4293
15443TIP3    H267821   2.546   3.797  15.387  0.5667 -0.5297  0.2997
15444TIP3   OH267822   2.231   4.080  15.822 -0.6978  0.0899  0.1347
15444TIP3    H167823   2.273   4.034  15.894  0.0043 -0.1845 -0.4354
15444TIP3    H267824   2.217   4.013  15.755  0.4443  0.6909 -0.7515
15445TIP3   OH267825   3.424   4.201  12.704 -0.2418  0.0792 -0.2899
15445TIP3    H167826   3.468   4.120  12.729  0.6239  0.6160 -0.0264
15445TIP3    H267827   3.377   4.228  12.783  1.1142  0.8783  0.2832
15446TIP3   OH267828   6.516   4.757   1.913 -0.1938  0.2189  0.6927
15446TIP3    H167829   6.511   4.764   2.009 -2.2924  0.0270  0.6488
15446TIP3    H267830   6.457   4.685   1.892  0.4776  0.0677 -0.7416
15447TIP3   OH267831   3.163   0.415   2.149  0.8268  0.0064 -0.7985
15447TIP3    H167832   3.166   0.340   2.208  1.2167  1.4052  1.0312
15447TIP3    H267833   3.089   0.396   2.091  0.9214 -1.7790 -0.4047
15448TIP3   OH267834   3.178   1.087  12.629 -0.5648 -0.0505  0.9531
15448TIP3    H167835   3.217   1.109  12.544 -0.9218  1.6969  1.2059
15448TIP3    H267836   3.253   1.071  12.686 -0.2642  0.6179  0.7602
15449TIP3   OH267837   1.152   1.915   2.590  0.2172  0.0546  0.5305
15449TIP3    H167838   1.159   1.889   2.498 -0.9735 -1.9250  0.9259
15449TIP3    H267839   1.072   1.872   2.621 -0.7895  2.6602  1.9008
15450TIP3   OH267840   6.846   6.253   3.172  0.6048  0.5810  0.3820
15450TIP3    H167841   6.936   6.278   3.193  1.0633 -1.8323  1.7971
15450TIP3    H267842   6.799   6.259   3.255 -0.7544  2.3606 -0.4476
15451TIP3   OH267843   1.513   4.218   5.945 -0.0795  0.0483 -0.3826
15451TIP3    H167844   1.555   4.184   6.024 -0.9836  2.2205  1.1184
15451TIP3    H267845   1.526   4.149   5.880  0.0944 -2.1628  1.8272
15452TIP3   OH267846   1.804   5.244  16.529 -0.2453  0.0460 -0.1723
15452TIP3    H167847   1.816   5.229  16.623  3.5751  2.5143 -0.0224
15452TIP3    H267848   1.839   5.165  16.488  0.4689 -0.0211  0.5312
15453TIP3   OH267849   6.691   2.040   0.682  0.2620  0.7263  0.2031
15453TIP3    H167850   6.612   2.084   0.715 -1.1165 -0.7343 -0.9647
15453TIP3    H267851   6.708   1.971   0.747  0.9206  1.3669  0.7269
15454TIP3   OH267852   3.813   3.643   5.771 -0.3654  0.1872 -0.0480
15454TIP3    H167853   3.732   3.591   5.779 -0.7147  0.4336 -1.5553
15454TIP3    H267854   3.828   3.678   5.858 -1.8282  0.0157  0.3054
15455TIP3   OH267855   2.936   2.918  15.132  0.6612 -0.0179  0.3002
15455TIP3    H167856   2.942   2.923  15.037  0.3516  0.1982  0.2920
15455TIP3    H267857   3.018   2.955  15.164  1.3372 -1.2588  0.0960
15456TIP3   OH267858   0.786   6.233  11.583  0.5216 -0.2806  0.7658
15456TIP3    H167859   0.758   6.301  11.645  1.1356  0.8599 -0.1673
15456TIP3    H267860   0.881   6.226  11.596  0.6452 -0.0874  0.0190
15457TIP3   OH267861   6.096   5.258   4.956 -0.2462 -0.2349 -0.1091
15457TIP3    H167862   6.004   5.268   4.977 -0.2781 -0.7281  0.0027
15457TIP3    H267863   6.112   5.164   4.960  0.5262 -0.0807  1.0057
15458TIP3   OH267864   0.809   4.729  13.500 -0.7093 -0.8151  0.1538
15458TIP3    H167865   0.777   4.681  13.576 -1.5435  0.3657  0.5759
15458TIP3    H267866   0.857   4.803  13.537 -0.4379 -0.6601 -0.4807
15459TIP3   OH267867   2.359   1.366   4.021 -0.8027  0.2310 -1.0375
15459TIP3    H167868   2.361   1.444   3.965 -1.5015 -0.0113 -1.4171
15459TIP3    H267869   2.278   1.375   4.071 -0.5226  0.1037 -0.5631
15460TIP3   OH267870   0.070   0.509   0.557  0.0978  1.1597 -0.0662
15460TIP3    H167871  -0.023   0.494   0.573  0.4438  0.6312  1.7829
15460TIP3    H267872   0.088   0.463   0.475 -1.0572  0.3407  0.1055
15461TIP3   OH267873   0.468   6.442  11.317  0.3606 -0.3486  0.5452
15461TIP3    H167874   0.497   6.378  11.381  1.7965 -0.3835 -0.0941
15461TIP3    H267875   0.550   6.478  11.281 -0.3889  1.5756  0.6248
15462TIP3   OH267876   1.132   0.917   1.670  0.7082 -0.1725  0.3169
15462TIP3    H167877   1.209   0.955   1.712  1.2429 -0.4754 -0.3613
15462TIP3    H267878   1.067   0.987   1.669  0.7066 -0.1389  1.5665
15463TIP3   OH267879   6.112   4.062   5.000 -0.1775  0.4940 -0.3263
15463TIP3    H167880   6.122   4.120   4.924 -0.7693  2.0121  0.6979
15463TIP3    H267881   6.024   4.026   4.990  0.4804 -0.9163 -1.3846
15464TIP3   OH267882   6.080   3.553  10.544 -0.1734  0.4446 -0.1422
15464TIP3    H167883   6.173   3.570  10.553 -0.1622 -0.0514  0.8215
15464TIP3    H267884   6.041   3.585  10.626 -0.5672 -1.1225  0.3347
15465TIP3   OH267885   3.128   4.019  15.287 -1.0554  0.0654  0.7428
15465TIP3    H167886   3.049   4.068  15.263  0.0146  0.7075 -1.8440
15465TIP3    H267887   3.177   4.080  15.342 -1.6686  0.2285  1.1271
15466TIP3   OH267888   2.539   0.582   5.122  0.2146  0.4508 -0.3955
15466TIP3    H167889   2.562   0.674   5.134 -1.7301  0.7186  1.9664
15466TIP3    H267890   2.532   0.547   5.210 -1.0537 -1.4510 -1.1885
15467TIP3   OH267891   5.571   3.476  11.927  0.3725  0.3333 -0.3773
15467TIP3    H167892   5.577   3.507  12.017 -0.5694  1.9086 -0.8095
15467TIP3    H267893   5.518   3.397  11.932 -0.6898  1.0646  0.3422
15468TIP3   OH267894   3.924   1.468   5.584  0.1413 -0.0512 -0.1901
15468TIP3    H167895   3.955   1.467   5.493 -1.7891  2.0227 -0.9534
15468TIP3    H267896   3.991   1.518   5.631  0.9749 -0.8321 -0.5061
15469TIP3   OH267897   0.867   4.006   0.641 -0.3821 -0.4671 -0.1421
15469TIP3    H167898   0.780   4.011   0.681  0.0929 -0.0340  0.8669
15469TIP3    H267899   0.857   4.055   0.559 -0.6065  1.3427  0.9040
15470TIP3   OH267900   5.934   4.324   5.444 -0.0738 -0.2914  0.5032
15470TIP3    H167901   5.949   4.416   5.423  2.4313 -0.5925  0.6336
15470TIP3    H267902   5.839   4.314   5.443 -0.3747  1.3856 -3.3908
15471TIP3   OH267903   4.922   1.643  13.866  0.4561 -0.4964  0.0741
15471TIP3    H167904   4.927   1.736  13.891 -1.5565 -0.1595 -0.5618
15471TIP3    H267905   4.935   1.595  13.947 -3.8255  0.5106  1.6537
15472TIP3   OH267906   6.677   6.716   4.838 -0.3432  0.3173  0.6758
15472TIP3    H167907   6.744   6.659   4.876 -0.5562 -0.5012 -0.1428
15472TIP3    H267908   6.726   6.789   4.801  0.0550  0.0040  0.5814
15473TIP3   OH267909   5.037   4.002  14.523 -0.5532  0.0266 -0.5879
15473TIP3    H167910   4.969   3.980  14.458 -0.5705  0.6879 -0.8012
15473TIP3    H267911   5.000   4.076  14.571 -0.2564 -0.0365 -0.2664
15474TIP3   OH267912   4.156   6.646  14.834  0.6488 -0.7173  0.1379
15474TIP3    H167913   4.123   6.614  14.918  0.3131  0.6072  0.5263
15474TIP3    H267914   4.096   6.609  14.770 -0.6456  0.3367  0.7071
15475TIP3   OH267915   1.058   2.092   1.786 -0.0949 -0.2841  0.0925
15475TIP3    H167916   1.072   2.108   1.880  0.1199 -1.2130  0.2233
15475TIP3    H267917   0.989   2.026   1.783 -1.5083  1.1548 -0.4648
15476TIP3   OH267918   6.404   4.219  16.199  0.5177  0.8080 -0.4655
15476TIP3    H167919   6.339   4.238  16.267  0.5238  2.0225 -0.7665
15476TIP3    H267920   6.421   4.125  16.208 -1.1356  0.4909 -0.2684
15477TIP3   OH267921   1.851   4.589   3.378  0.4611 -0.3644  0.5637
15477TIP3    H167922   1.877   4.516   3.321  1.1694  1.3705 -1.5096
15477TIP3    H267923   1.934   4.620   3.415  0.6480  1.1817 -0.9779
15478TIP3   OH267924   6.082   5.039   2.646  0.5494  0.5177 -0.3174
15478TIP3    H167925   6.011   5.076   2.697 -0.4057 -2.6614  0.9112
15478TIP3    H267926   6.152   5.104   2.650 -0.5141  1.6175  2.7134
15479TIP3   OH267927   2.795   2.445   4.211  0.2361 -0.6180  0.6286
15479TIP3    H167928   2.812   2.539   4.218 -0.6901 -0.4559  0.9147
15479TIP3    H267929   2.861   2.413   4.150  0.9193  0.1201  0.9663
15480TIP3   OH267930   5.962   3.267  15.061  0.4886  0.3146  0.1002
15480TIP3    H167931   6.003   3.339  15.013 -0.3837  1.8376  1.5654
15480TIP3    H267932   5.962   3.194  14.998 -0.5106  2.1673 -2.2170
15481TIP3   OH267933   5.270   2.861  10.382  0.5116  0.4312  0.0837
15481TIP3    H167934   5.251   2.919  10.308  0.9844  1.0964  0.4679
15481TIP3    H267935   5.324   2.791  10.344  0.1241  0.3534 -0.3414
15482TIP3   OH267936   1.005   1.185   2.218 -0.3059 -0.4326  0.3465
15482TIP3    H167937   0.951   1.120   2.263  0.0929 -0.6449  0.5288
15482TIP3    H267938   0.956   1.267   2.225 -2.6579 -1.3019 -3.0316
15483TIP3   OH267939   4.100   6.578   6.266 -0.3954  0.1728  0.0498
15483TIP3    H167940   4.106   6.538   6.353  0.1276  0.4805  0.1576
15483TIP3    H267941   4.190   6.600   6.243 -0.7305  1.8248  0.2446
15484TIP3   OH267942   0.722   2.339   0.038  0.1535 -0.1483 -0.4493
15484TIP3    H167943   0.764   2.420   0.007  0.0067  1.0899  2.3003
15484TIP3    H267944   0.779   2.269   0.006  1.6952  1.2057 -0.8198
15485TIP3   OH267945   4.307   1.018   4.393  0.1810  0.1386  0.1683
15485TIP3    H167946   4.238   1.045   4.454  1.0718  0.8460  0.9085
15485TIP3    H267947   4.312   0.923   4.402  0.0559  0.1952  0.9594
15486TIP3   OH267948   4.422   6.254  10.162  0.1012 -0.3078  0.3022
15486TIP3    H167949   4.342   6.201  10.164  0.5010 -1.1096 -1.9100
15486TIP3    H267950   4.390   6.344  10.159 -0.7832 -0.6353 -1.1969
15487TIP3   OH267951   2.332   2.583   0.309 -0.3916  0.6232  0.3633
15487TIP3    H167952   2.420   2.619   0.314  0.2859 -0.5721 -1.8007
15487TIP3    H267953   2.322   2.532   0.389  0.7919  0.9119  0.7106
15488TIP3   OH267954   1.767   1.141  14.777 -0.1797 -0.4820 -0.6536
15488TIP3    H167955   1.831   1.146  14.848 -0.9550  0.7024  0.0203
15488TIP3    H267956   1.819   1.126  14.698  0.8157 -0.6438  0.0129
15489TIP3   OH267957   0.589   3.123  16.644  0.0825 -0.2981 -0.3542
15489TIP3    H167958   0.536   3.045  16.632  0.3221 -0.2067 -2.3326
15489TIP3    H267959   0.531   3.196  16.621  0.2886  0.0163  0.0905
15490TIP3   OH267960   2.390   3.862  12.402  0.6143  0.0896 -0.2945
15490TIP3    H167961   2.431   3.948  12.392  0.2849  0.3264  0.3503
15490TIP3    H267962   2.460   3.799  12.382  0.6805  0.5013 -1.4257
15491TIP3   OH267963   3.814   4.583   4.477  0.2534  0.3151 -0.0109
15491TIP3    H167964   3.882   4.541   4.530  0.8315  0.8549 -0.3081
15491TIP3    H267965   3.822   4.543   4.391  0.0708  0.2511  0.0016
15492TIP3   OH267966   2.968   5.622  11.360 -0.1914  0.9910 -0.0521
15492TIP3    H167967   3.009   5.657  11.439  0.9252  0.3922 -0.3377
15492TIP3    H267968   2.921   5.695  11.322  1.7242  2.0872 -0.4157
15493TIP3   OH267969   0.875   4.617  16.743 -0.1507  0.2746 -0.3883
15493TIP3    H167970   0.841   4.674  16.812 -0.5715 -0.1531 -0.2391
15493TIP3    H267971   0.958   4.657  16.717 -0.7075  1.2761 -0.6858
15494TIP3   OH267972   0.292   4.289  15.958  0.2038  0.2296  0.4936
15494TIP3    H167973   0.264   4.365  15.906  0.9581 -0.4755 -0.9702
15494TIP3    H267974   0.218   4.273  16.017 -1.6835 -0.3361 -1.8949
15495TIP3   OH267975   4.347   6.477  16.913  0.4326  0.1515 -0.2697
15495TIP3    H167976   4.262   6.474  16.958  0.2360  0.6161 -0.6007
15495TIP3    H267977   4.410   6.451  16.979 -0.0060 -0.5524 -0.1115
15496TIP3   OH267978   1.528   5.012   3.922 -0.2411 -0.3972 -0.0570
15496TIP3    H167979   1.526   5.103   3.953 -1.1854  0.6578 -2.9135
15496TIP3    H267980   1.559   5.018   3.832  0.6399 -3.0599  0.0036
15497TIP3   OH267981   2.592   3.732   0.012  0.0945  0.4035 -0.1897
15497TIP3    H167982   2.645   3.655   0.030 -1.3355 -0.2398  1.6603
15497TIP3    H267983   2.521   3.699  -0.043 -0.0067  0.5840 -0.1661
15498TIP3   OH267984   3.121   4.917  14.783 -0.4187 -0.1519  0.1539
15498TIP3    H167985   3.159   4.871  14.858  1.4577  1.3301  0.2035
15498TIP3    H267986   3.037   4.949  14.814 -1.3440 -2.5950  0.4241
15499TIP3   OH267987   5.290   1.950  15.820 -0.1030  0.4398  1.1690
15499TIP3    H167988   5.287   2.045  15.813 -0.6507  0.4369  1.3984
15499TIP3    H267989   5.264   1.931  15.910  0.5662  0.1009  1.2972
15500TIP3   OH267990   0.031   0.580   1.596  0.0377  0.3513  0.0384
15500TIP3    H167991  -0.064   0.584   1.606 -0.1758  0.3598 -1.6084
15500TIP3    H267992   0.044   0.572   1.501  1.6838  0.4397  0.2332
15501TIP3   OH267993   6.080   1.721  13.855 -0.6336 -0.4379  0.0068
15501TIP3    H167994   6.135   1.758  13.924 -1.5471 -1.9005  1.5940
15501TIP3    H267995   6.143   1.685  13.792  0.2156  0.6601  0.1921
15502TIP3   OH267996   0.779   4.559  12.389  0.0487 -0.1193 -0.0869
15502TIP3    H167997   0.743   4.631  12.338  0.4576 -0.1141 -0.3689
15502TIP3    H267998   0.824   4.504  12.325 -0.8212 -0.9879  0.0180
15503TIP3   OH267999   1.436   2.922   0.056  0.1994 -0.0290  0.3381
15503TIP3    H168000   1.517   2.955   0.018 -0.0415 -0.0367 -0.1953
15503TIP3    H268001   1.430   2.832   0.025 -0.3329  0.1715 -0.1697
15504TIP3   OH268002   4.266   0.754  14.479  0.4254 -0.1915 -0.5174
15504TIP3    H168003   4.193   0.815  14.489  2.0278  1.9778 -1.1772
15504TIP3    H268004   4.283   0.723  14.568 -1.3878 -0.9545 -0.3804
15505TIP3   OH268005   4.850   5.876  17.093 -0.0537  0.1217  0.4059
15505TIP3    H168006   4.758   5.891  17.071 -0.1015  2.8684  2.0385
15505TIP3    H268007   4.847   5.807  17.160 -0.7587 -0.8919 -0.6385
15506TIP3   OH268008   1.540   1.541   3.662 -0.3829  0.2443  0.1534
15506TIP3    H168009   1.505   1.628   3.683  1.0848  0.7522  0.6360
15506TIP3    H268010   1.502   1.520   3.577 -1.8191  0.7578  0.6416
15507TIP3   OH268011   6.327   5.181  15.947  0.3057  0.0288 -0.1849
15507TIP3    H168012   6.242   5.214  15.918 -0.3044 -0.5336  0.8956
15507TIP3    H268013   6.311   5.147  16.035  1.6004 -0.3133 -0.0565
15508TIP3   OH268014   5.200   3.264   0.316 -0.1261 -0.2064 -0.5669
15508TIP3    H168015   5.155   3.244   0.398  1.3148 -0.8615  0.0930
15508TIP3    H268016   5.168   3.198   0.255  0.2905 -0.9704  0.0297
15509TIP3   OH268017   1.912   1.856   6.432 -0.7869 -0.5592 -0.1458
15509TIP3    H168018   2.000   1.819   6.440  0.4860  1.6804 -2.3484
15509TIP3    H268019   1.889   1.883   6.521  0.2148 -2.1952  0.6631
15510TIP3   OH268020   4.643   2.422   3.168 -0.0495 -0.6703  0.0144
15510TIP3    H168021   4.716   2.484   3.171 -0.2500 -0.3463 -1.2933
15510TIP3    H268022   4.565   2.476   3.164 -0.4831 -1.0015  2.3387
15511TIP3   OH268023   5.397   1.333  13.373  0.3456 -0.1927 -1.0233
15511TIP3    H168024   5.460   1.345  13.443 -0.5803  1.5677 -0.4401
15511TIP3    H268025   5.447   1.291  13.303  1.8861  0.1920 -0.1967
15512TIP3   OH268026   2.801   2.466  12.301  0.3894  0.0153  0.1854
15512TIP3    H168027   2.730   2.530  12.297  1.2016  1.0933  1.8885
15512TIP3    H268028   2.818   2.455  12.395  2.6947  0.0312 -0.1752
15513TIP3   OH268029   5.124   0.549  12.775  0.3228  0.0708  0.1591
15513TIP3    H168030   5.157   0.639  12.777  0.3582  0.0551  2.1310
15513TIP3    H268031   5.191   0.500  12.729  0.6851  0.9085 -0.2256
15514TIP3   OH268032   0.479   0.717   4.186  0.7234  0.0984  0.2652
15514TIP3    H168033   0.390   0.735   4.159  1.0291  1.8052  0.3085
15514TIP3    H268034   0.507   0.644   4.130 -0.4835 -0.0809 -0.1326
15515TIP3   OH268035   5.924   3.290  17.094 -0.2597 -0.2622 -0.2053
15515TIP3    H168036   5.988   3.236  17.047 -0.2995  0.2491 -0.8745
15515TIP3    H268037   5.975   3.365  17.125 -0.3827 -0.2384 -0.0625
15516TIP3   OH268038   3.129   0.793  16.423  0.2123  0.1517  0.0309
15516TIP3    H168039   3.193   0.862  16.439  0.6119 -0.3276  0.5316
15516TIP3    H268040   3.148   0.763  16.334  1.6909 -1.0100  0.6965
15517TIP3   OH268041   1.573   3.320  15.057 -0.0484  0.6467  0.1536
15517TIP3    H168042   1.608   3.336  15.145 -0.3505 -0.6197  0.5230
15517TIP3    H268043   1.478   3.320  15.070 -0.0848 -1.5062  0.2323
15518TIP3   OH268044   6.226   1.312   4.691 -0.3430  0.1689 -0.1778
15518TIP3    H168045   6.244   1.396   4.734  1.7327  0.5965 -1.6909
15518TIP3    H268046   6.195   1.336   4.604 -0.9924 -0.6566 -0.1874
15519TIP3   OH268047   3.294   6.375  16.376  0.4470  0.2397 -0.2081
15519TIP3    H168048   3.236   6.364  16.300  1.8214  0.3549 -1.3194
15519TIP3    H268049   3.312   6.469  16.378 -3.1489  1.1052  3.0793
15520TIP3   OH268050   5.680   4.626  11.427 -1.0441  0.3882 -0.4096
15520TIP3    H168051   5.661   4.674  11.508 -0.1024 -0.1853  0.1725
15520TIP3    H268052   5.613   4.656  11.365 -2.8219 -0.3963  1.0597
15521TIP3   OH268053   3.173   3.319  11.775 -0.3658 -0.0903 -0.5988
15521TIP3    H168054   3.102   3.360  11.824 -0.0975 -0.5866  0.2364
15521TIP3    H268055   3.216   3.392  11.730 -0.9500  0.3072 -0.5334
15522TIP3   OH268056   3.540   5.380  13.026  0.2506 -0.2332  0.2317
15522TIP3    H168057   3.553   5.467  13.064  1.1422 -0.3690  0.2750
15522TIP3    H268058   3.617   5.366  12.971 -0.5352 -0.4594 -0.8367
15523TIP3   OH268059   1.989   6.053   2.059 -0.1386 -0.3876 -0.5570
15523TIP3    H168060   2.069   6.078   2.012 -0.7818  0.5369 -1.1699
15523TIP3    H268061   2.021   6.001   2.133  1.0057 -0.3560 -1.0055
15524TIP3   OH268062   3.797   2.540  16.773 -0.3784  0.8130 -0.1812
15524TIP3    H168063   3.771   2.483  16.700  0.3367  0.7902 -0.4233
15524TIP3    H268064   3.714   2.578  16.804 -1.3495 -2.5755  1.9059
15525TIP3   OH268065   4.396   2.135  15.543  0.5702 -0.6868  0.4775
15525TIP3    H168066   4.468   2.072  15.543  0.7042 -0.5349  0.5878
15525TIP3    H268067   4.323   2.089  15.582  0.9407 -0.4647  1.4663
15526TIP3   OH268068   2.200   3.651  14.476  0.2351  0.2612 -0.3137
15526TIP3    H168069   2.167   3.561  14.476 -1.5086  0.8603 -0.2110
15526TIP3    H268070   2.240   3.663  14.562  1.9681 -0.8796 -0.8954
15527TIP3   OH268071   2.399   0.202   1.276 -0.4083 -0.0560 -0.2290
15527TIP3    H168072   2.402   0.172   1.367  0.0759 -2.1082 -0.8551
15527TIP3    H268073   2.328   0.150   1.237  0.9765 -1.0252 -1.5677
15528TIP3   OH268074   4.214   2.307  11.048 -0.4716  0.6580  0.1581
15528TIP3    H168075   4.269   2.229  11.050  0.2277  1.1411  0.4065
15528TIP3    H268076   4.168   2.303  10.965 -1.0071 -0.3938  0.4869
15529TIP3   OH268077   5.296   5.189   6.652 -0.3656  1.1816  0.0415
15529TIP3    H168078   5.335   5.102   6.643  0.5707  1.2870  2.4937
15529TIP3    H268079   5.363   5.249   6.620 -1.2811  1.0427 -2.3338
15530TIP3   OH268080   5.315   2.006  13.767  1.0123  0.9923  0.5944
15530TIP3    H168081   5.326   1.921  13.725  1.7686  0.3218  2.0695
15530TIP3    H268082   5.405   2.035  13.787  0.8382  2.6308 -0.7780
15531TIP3   OH268083   2.718   2.926   2.727 -0.8780  1.0362  0.3622
15531TIP3    H168084   2.679   2.930   2.815  0.5239 -0.0944  1.0821
15531TIP3    H268085   2.694   2.839   2.695  0.7042  0.4258  0.7041
15532TIP3   OH268086   3.694   4.229  15.746  0.8592 -0.1270 -0.4122
15532TIP3    H168087   3.633   4.220  15.819  0.4215 -1.5353 -0.9255
15532TIP3    H268088   3.778   4.249  15.788  0.4099  0.1269  0.3995
15533TIP3   OH268089   1.012   5.739   0.040 -0.0654  0.0139  0.0115
15533TIP3    H168090   1.029   5.646   0.053 -0.3250 -0.0035  0.2460
15533TIP3    H268091   1.065   5.783   0.108  0.7010  0.0913 -0.6234
15534TIP3   OH268092   4.106   3.340  16.289  0.1686  0.4454 -0.1392
15534TIP3    H168093   4.086   3.342  16.382  0.6792 -1.8034  0.0700
15534TIP3    H268094   4.194   3.302  16.284  0.2190  0.6654 -1.5449
15535TIP3   OH268095   3.884   6.769   5.396 -0.3586 -0.3906 -0.5482
15535TIP3    H168096   3.914   6.693   5.444 -0.8859 -0.4986 -0.3853
15535TIP3    H268097   3.952   6.784   5.330  0.5951  0.0293  0.4984
15536TIP3   OH268098   5.477   0.452  12.983  0.0172  0.3928 -0.3734
15536TIP3    H168099   5.406   0.516  12.981  1.1664  1.7339  0.4645
15536TIP3    H268100   5.533   0.480  13.056  2.0095  0.0281 -1.6952
15537TIP3   OH268101   2.095   1.975  14.583 -0.0852 -0.3340  0.3720
15537TIP3    H168102   2.131   1.895  14.546  2.4979  0.6575  0.5027
15537TIP3    H268103   2.119   1.972  14.676  1.2096  1.0913  0.1388
15538TIP3   OH268104   3.819   2.268   3.181 -0.5017 -1.0146 -0.1850
15538TIP3    H168105   3.887   2.335   3.176 -0.5226 -1.0325 -0.7484
15538TIP3    H268106   3.774   2.286   3.264 -0.2195 -0.6124 -0.1159
15539TIP3   OH268107   4.630   1.981  15.571 -0.2053 -0.2090 -0.3462
15539TIP3    H168108   4.653   1.926  15.646 -0.8650 -0.9447 -0.6645
15539TIP3    H268109   4.671   1.937  15.496 -1.1573 -0.5623 -0.6720
15540TIP3   OH268110   0.239   6.759   0.447 -0.2690  0.5672  0.2662
15540TIP3    H168111   0.239   6.798   0.535  0.4518  0.8325  0.1629
15540TIP3    H268112   0.318   6.705   0.446 -0.8953 -0.3680  0.1715
15541TIP3   OH268113   4.141   6.570   3.531 -0.5217  0.3666  0.1452
15541TIP3    H168114   4.180   6.612   3.454 -1.6505  0.4620 -0.3938
15541TIP3    H268115   4.116   6.483   3.500  0.9284 -0.3954  0.9974
15542TIP3   OH268116   3.385   0.105   1.263 -0.2994  0.3551  0.3132
15542TIP3    H168117   3.429   0.080   1.345 -1.0659 -1.2114  0.2888
15542TIP3    H268118   3.295   0.124   1.289 -0.3725  0.5386 -0.0676
15543TIP3   OH268119   4.194   6.611   0.677  0.6656  0.4785 -0.0842
15543TIP3    H168120   4.185   6.527   0.631  0.3922  0.6935 -0.4287
15543TIP3    H268121   4.121   6.613   0.739  0.8154  0.3564  0.0984
15544TIP3   OH268122   6.627   5.419  13.611 -0.1698 -0.0333  0.0425
15544TIP3    H168123   6.590   5.502  13.580  0.8825  0.0104 -1.1707
15544TIP3    H268124   6.681   5.444  13.687  0.9224  0.5767 -0.8949
15545TIP3   OH268125   2.679   5.525   0.520  0.1219  1.0109 -0.7928
15545TIP3    H168126   2.583   5.525   0.517  0.0116  0.1393  1.0907
15545TIP3    H268127   2.706   5.500   0.432 -1.4959 -1.9479 -0.5792
15546TIP3   OH268128   0.767   2.625  13.681 -0.1705  0.0337 -0.0089
15546TIP3    H168129   0.730   2.672  13.606 -1.1445 -0.9736 -0.1871
15546TIP3    H268130   0.862   2.631  13.668 -0.3138  0.3136 -1.0495
15547TIP3   OH268131   3.951   3.767  13.604  0.0262 -0.5903  0.0009
15547TIP3    H168132   4.008   3.705  13.649 -0.7327 -0.4813  1.1523
15547TIP3    H268133   3.866   3.757  13.646 -0.5780 -0.0708 -1.0396
15548TIP3   OH268134   5.800   1.006   5.329  0.0874 -0.1536 -0.0699
15548TIP3    H168135   5.715   0.987   5.369  0.5364 -0.4117  0.7842
15548TIP3    H268136   5.846   0.922   5.332  0.3849 -0.0046 -0.5007
15549TIP3   OH268137   5.417   5.514   1.183  0.1669  0.6576 -0.3737
15549TIP3    H168138   5.364   5.482   1.111 -0.1404 -1.6646  0.7723
15549TIP3    H268139   5.373   5.594   1.213  0.7433  2.1448 -3.1383
15550TIP3   OH268140   6.110   2.963  15.597 -0.1835 -0.3734  0.3401
15550TIP3    H168141   6.184   2.915  15.561  1.3506  1.2556  1.1590
15550TIP3    H268142   6.111   3.047  15.552  1.0566  1.2653  3.1180
15551TIP3   OH268143   0.911   6.419   2.412 -0.4462  0.5077 -0.1166
15551TIP3    H168144   0.819   6.407   2.388 -0.3549 -0.4161 -0.0577
15551TIP3    H268145   0.960   6.392   2.334 -0.1755 -1.5646  0.6883
15552TIP3   OH268146   3.082   4.597   4.374 -0.5567  0.5398  0.1681
15552TIP3    H168147   3.171   4.570   4.397 -0.7367 -1.6714 -1.4814
15552TIP3    H268148   3.033   4.590   4.457  0.5058  0.5682  0.8150
15553TIP3   OH268149   6.269   5.026   3.562  0.9341  0.1117  0.4643
15553TIP3    H168150   6.213   5.070   3.626 -0.5887 -0.1562 -0.6228
15553TIP3    H268151   6.279   4.937   3.597  2.6345  0.7860  1.8174
15554TIP3   OH268152   0.472   5.721   0.141 -0.4621  0.6621 -0.0899
15554TIP3    H168153   0.481   5.703   0.235 -0.9566  1.0670  0.0401
15554TIP3    H268154   0.555   5.763   0.117 -0.0716 -0.0352  0.0190
15555TIP3   OH268155   5.985   2.494  12.056  1.1384 -0.6384 -0.8152
15555TIP3    H168156   5.909   2.506  11.999 -0.1037  2.5761  1.2209
15555TIP3    H268157   6.055   2.542  12.014  0.9477 -0.3937 -0.8550
15556TIP3   OH268158   1.937   1.867   2.182  0.7259  0.2528 -0.1590
15556TIP3    H168159   1.978   1.852   2.097 -1.7790 -0.6469 -1.3049
15556TIP3    H268160   1.905   1.957   2.177 -2.4055 -0.7867 -1.6828
15557TIP3   OH268161   3.266   3.167   0.171 -0.3246 -1.0124 -0.1924
15557TIP3    H168162   3.219   3.176   0.088 -0.5064 -0.7635 -0.0592
15557TIP3    H268163   3.358   3.172   0.146 -0.3874  1.5397 -0.0935
15558TIP3   OH268164   1.620   3.907   5.541 -0.1899  0.2530  0.7177
15558TIP3    H168165   1.688   3.948   5.487 -1.4954  0.6365 -0.7055
15558TIP3    H268166   1.621   3.814   5.514 -2.0228  0.7477 -1.4121
15559TIP3   OH268167   4.108   5.027  11.241 -0.0950  0.4670 -0.0238
15559TIP3    H168168   4.117   5.067  11.328 -0.5255 -1.9644  1.2143
15559TIP3    H268169   4.014   5.013  11.231  0.1137 -1.1901  0.0784
15560TIP3   OH268170   5.810   2.562  10.387  0.5832 -0.5424 -0.5356
15560TIP3    H168171   5.732   2.506  10.380  1.1936 -1.4145 -0.4433
15560TIP3    H268172   5.774   2.651  10.396 -0.4224 -1.0516  0.7712
15561TIP3   OH268173   0.626   6.073  16.406 -0.2136 -0.0961 -0.3017
15561TIP3    H168174   0.716   6.094  16.381 -0.4394  2.0720  0.4736
15561TIP3    H268175   0.625   6.081  16.502 -1.3688  0.6176 -0.3525
15562TIP3   OH268176   1.359   5.175  11.958 -0.0554  0.1289  0.2687
15562TIP3    H168177   1.331   5.144  11.872 -2.0701 -0.7469  1.1736
15562TIP3    H268178   1.325   5.264  11.964  0.8077  0.5002 -0.1294
15563TIP3   OH268179   4.172   1.578  12.506  0.1372 -0.3195 -0.2453
15563TIP3    H168180   4.211   1.490  12.508  1.5075  0.2900  0.7315
15563TIP3    H268181   4.246   1.638  12.516 -1.0053  0.8775  1.6218
15564TIP3   OH268182   6.332   5.218   0.776 -0.1450 -0.3472 -0.1454
15564TIP3    H168183   6.306   5.263   0.696  1.5017 -1.7587 -1.5376
15564TIP3    H268184   6.401   5.274   0.813 -0.1485 -0.2452 -0.2913
15565TIP3   OH268185   3.150   0.070   4.811  0.4864 -0.2466  0.1284
15565TIP3    H168186   3.097  -0.009   4.800 -1.7757  0.9803  1.5399
15565TIP3    H268187   3.214   0.046   4.878  1.2074 -1.4791 -0.9531
15566TIP3   OH268188   2.565   1.449  11.076 -0.1019  0.2151 -0.6514
15566TIP3    H168189   2.495   1.416  11.019  0.3867 -1.4870 -0.3161
15566TIP3    H268190   2.613   1.511  11.020 -1.0190  0.3495 -1.3289
15567TIP3   OH268191   2.575   0.221   5.810 -0.1141 -0.0930  0.0865
15567TIP3    H168192   2.654   0.185   5.849  0.9589  0.1452 -1.7680
15567TIP3    H268193   2.564   0.307   5.852  1.5388  0.5592 -0.7399
15568TIP3   OH268194   0.158   5.384   2.957 -0.1387 -0.2506 -0.9363
15568TIP3    H168195   0.215   5.309   2.941  4.6326  2.6791  0.1880
15568TIP3    H268196   0.166   5.400   3.052 -2.3665  0.7633 -0.8514
15569TIP3   OH268197   4.386   1.456   6.044  0.2250  0.5076  0.4228
15569TIP3    H168198   4.439   1.405   5.983 -0.6030  0.8433 -0.6155
15569TIP3    H268199   4.316   1.397   6.070  0.0584  0.6602  0.3225
15570TIP3   OH268200   6.508   5.090  15.211  0.0056  0.8934  0.6145
15570TIP3    H168201   6.555   5.157  15.161 -0.0287  0.5561  0.1225
15570TIP3    H268202   6.442   5.056  15.151 -0.9838  1.4527  1.3413
15571TIP3   OH268203   1.048   4.252  13.255 -0.1138  0.6140 -0.2002
15571TIP3    H168204   1.003   4.312  13.196 -1.7751  0.9488  1.3434
15571TIP3    H268205   1.063   4.173  13.202 -1.1952  1.0542 -1.1918
15572TIP3   OH268206   1.360   0.923   0.174  0.3775 -0.2012  0.1103
15572TIP3    H168207   1.359   0.993   0.239 -0.7579  1.5800 -1.7035
15572TIP3    H268208   1.311   0.852   0.215  0.6448  0.4413  1.6095
15573TIP3   OH268209   0.128   1.911  12.627  0.2220 -0.0140  0.2907
15573TIP3    H168210   0.095   1.947  12.710  0.7665 -0.8781  0.9114
15573TIP3    H268211   0.198   1.970  12.601 -1.3761  1.5081 -0.7311
15574TIP3   OH268212   0.859   3.497  16.900  0.1102 -0.1345  0.4457
15574TIP3    H168213   0.806   3.518  16.976 -0.1246  0.0733  0.2282
15574TIP3    H268214   0.924   3.567  16.896 -1.9169  1.8243 -1.4576
15575TIP3   OH268215   4.944   0.482  16.432 -0.4328 -0.1749 -0.5365
15575TIP3    H168216   4.960   0.490  16.338  0.4400 -1.0079 -0.4843
15575TIP3    H268217   5.007   0.415  16.460  0.5111  1.2611  0.9350
15576TIP3   OH268218   2.133   4.749  13.225  0.0707  0.6492  0.0090
15576TIP3    H168219   2.105   4.710  13.143 -0.6442 -0.2152  0.6423
15576TIP3    H268220   2.131   4.843  13.209  0.0668  0.4918 -0.9872
15577TIP3   OH268221   2.909   1.446   1.112  0.1472 -0.2560 -0.2923
15577TIP3    H168222   2.947   1.525   1.073 -2.3742  0.1305 -2.2099
15577TIP3    H268223   2.976   1.415   1.173  1.7743  2.5923 -0.4554
15578TIP3   OH268224   6.627   3.848   1.176  0.9333 -0.3498  0.1490
15578TIP3    H168225   6.655   3.936   1.150  2.4501 -0.4045  1.4466
15578TIP3    H268226   6.705   3.808   1.215 -0.0318 -1.8615  0.6352
15579TIP3   OH268227   3.917   2.544  16.015 -0.9133  0.4961  0.0911
15579TIP3    H168228   3.999   2.496  16.017  0.7109  3.1475  0.8632
15579TIP3    H268229   3.884   2.530  15.926  0.6123 -0.1987 -0.3990
15580TIP3   OH268230   3.507   4.335  14.998 -0.0560 -0.0623 -0.3270
15580TIP3    H168231   3.504   4.328  14.903  0.4385  1.9230 -0.5411
15580TIP3    H268232   3.548   4.420  15.014  0.7386 -0.7672  1.6757
15581TIP3   OH268233   0.001   6.556   0.875 -0.0735 -0.0622 -0.0343
15581TIP3    H168234   0.028   6.464   0.870 -0.0167  0.0158 -2.7978
15581TIP3    H268235  -0.092   6.554   0.853 -0.0636  0.5599 -0.1282
15582TIP3   OH268236   1.117   4.140  12.575  0.0472 -0.0329 -0.1903
15582TIP3    H168237   1.032   4.138  12.621  0.6763 -0.7283  0.9886
15582TIP3    H268238   1.114   4.221  12.524 -0.8835  0.5369  0.7096
15583TIP3   OH268239   3.844   1.159   4.841  0.5312 -0.0754 -0.2695
15583TIP3    H168240   3.893   1.228   4.796  2.0074  0.5869  2.1761
15583TIP3    H268241   3.821   1.097   4.772  2.0649  1.1946 -2.0257
15584TIP3   OH268242   5.449   4.548  14.029  0.0504  0.6095 -0.2357
15584TIP3    H168243   5.543   4.528  14.027  0.5496 -2.0862  8.5637
15584TIP3    H268244   5.444   4.638  14.060 -0.0446  0.1575  1.1241
15585TIP3   OH268245   4.496   5.889  11.539  0.3417  0.1205 -0.3488
15585TIP3    H168246   4.535   5.822  11.596  0.5443  0.2245 -0.3653
15585TIP3    H268247   4.563   5.908  11.475 -0.0953 -0.4081 -0.9781
15586TIP3   OH268248   4.667   3.080  12.363  0.0751 -0.2641 -0.3333
15586TIP3    H168249   4.715   3.160  12.340 -2.4664  0.7814 -2.5601
15586TIP3    H268250   4.610   3.106  12.435  0.1487 -0.4439 -0.2087
15587TIP3   OH268251   1.613   5.428  12.678  0.2669 -0.0871 -0.2146
15587TIP3    H168252   1.538   5.430  12.737 -0.5289  0.3639 -1.2288
15587TIP3    H268253   1.593   5.360  12.615  1.3484 -0.9218  0.3001
15588TIP3   OH268254   4.036   4.491   2.794  0.0820 -0.1387  0.0489
15588TIP3    H168255   3.982   4.443   2.856  0.3322 -1.5552 -0.7839
15588TIP3    H268256   4.043   4.433   2.718  0.9370  0.9501 -0.7460
15589TIP3   OH268257   1.470   3.314  10.359  0.2674  0.0270 -0.3664
15589TIP3    H168258   1.470   3.378  10.430  0.0842  0.8959 -1.1240
15589TIP3    H268259   1.389   3.265  10.371  0.1782  0.2465 -0.0504
15590TIP3   OH268260   6.348   1.722   1.439  0.3675  0.3780  0.0711
15590TIP3    H168261   6.433   1.681   1.457 -0.5762 -1.0266  1.5530
15590TIP3    H268262   6.363   1.774   1.360  1.1331 -4.6383 -3.5122
15591TIP3   OH268263   1.941   3.637  12.390 -0.2196 -0.0230  0.5098
15591TIP3    H168264   1.996   3.714  12.403 -0.8723  0.9113 -1.6949
15591TIP3    H268265   1.986   3.566  12.435  2.9618  0.6130 -1.3584
15592TIP3   OH268266   6.380   0.040   1.792 -0.0369 -0.0698 -0.5220
15592TIP3    H168267   6.355  -0.044   1.754  1.2295 -0.3531 -0.7744
15592TIP3    H268268   6.301   0.071   1.837 -1.1912 -0.3152 -2.3201
15593TIP3   OH268269   2.943   5.335   1.866 -0.0978  0.5585  0.2352
15593TIP3    H168270   3.028   5.379   1.867 -0.6812  1.7297 -0.3153
15593TIP3    H268271   2.909   5.350   1.777 -0.9290  0.1911  0.4808
15594TIP3   OH268272   1.172   4.767  10.458 -0.0730 -0.5520 -0.0566
15594TIP3    H168273   1.175   4.860  10.482  1.1538  0.2837 -2.9843
15594TIP3    H268274   1.108   4.762  10.388 -0.1474 -1.9581  0.0770
15595TIP3   OH268275   4.524   3.477   5.975 -0.4269 -0.6305  0.6909
15595TIP3    H168276   4.579   3.527   6.035  1.0486 -0.2666 -0.8760
15595TIP3    H268277   4.445   3.531   5.964  1.4362  1.9271 -1.5638
15596TIP3   OH268278   5.100   6.484  16.522 -0.5500  0.2727 -0.0403
15596TIP3    H168279   5.133   6.430  16.450 -0.1756  2.1491 -1.3577
15596TIP3    H268280   5.020   6.440  16.550  0.7379 -2.0138  0.3097
15597TIP3   OH268281   3.921   2.357  14.102  0.2603 -0.1715 -0.2316
15597TIP3    H168282   3.901   2.449  14.119 -0.9892 -0.1865 -1.4629
15597TIP3    H268283   3.836   2.315  14.093  0.7991 -0.9423 -2.2598
15598TIP3   OH268284   4.631   4.052  12.501 -0.2200  0.1494  1.2843
15598TIP3    H168285   4.557   4.101  12.466 -0.5011  1.8486  3.9179
15598TIP3    H268286   4.708   4.103  12.475 -0.0269 -0.9667 -0.4411
15599TIP3   OH268287   5.496   1.118   0.365  0.0569  0.0248  0.0857
15599TIP3    H168288   5.493   1.022   0.367  1.1067 -0.0131  1.0037
15599TIP3    H268289   5.410   1.144   0.334  0.3646 -1.2547 -2.0119
15600TIP3   OH268290   0.158   3.871  17.039  0.4572  0.1791  0.2293
15600TIP3    H168291   0.097   3.810  17.079 -1.0928  0.7692 -1.1553
15600TIP3    H268292   0.144   3.953  17.087  0.4651  0.2167  0.1662
15601TIP3   OH268293   4.673   1.286   5.315 -0.5814 -0.5152 -0.9444
15601TIP3    H168294   4.754   1.331   5.291 -0.3118 -0.8267 -0.6235
15601TIP3    H268295   4.700   1.197   5.338  0.0988  0.7851  5.3691
15602TIP3   OH268296   4.717   5.918   1.339 -0.1254 -0.4803  0.0439
15602TIP3    H168297   4.775   5.946   1.410  0.4134 -2.5535  0.4966
15602TIP3    H268298   4.675   5.838   1.373  0.2696 -1.6158 -2.0013
15603TIP3   OH268299   5.143   5.953  12.832 -0.1424 -0.3804 -0.0982
15603TIP3    H168300   5.057   5.964  12.793 -1.2240 -0.5828  2.0560
15603TIP3    H268301   5.197   6.022  12.793 -0.9857 -0.8402 -2.1811
15604TIP3   OH268302   4.187   0.086  13.904  0.6701 -0.4704  0.5174
15604TIP3    H168303   4.200   0.071  13.998 -1.7166  1.8952  1.3459
15604TIP3    H268304   4.147   0.005  13.873  0.0718 -0.7377  1.9031
15605TIP3   OH268305   5.463   2.913   2.237  0.3764  0.0604 -0.1457
15605TIP3    H168306   5.535   2.976   2.241 -0.7403  1.4145 -0.5204
15605TIP3    H268307   5.406   2.947   2.169 -1.7585  0.2813  1.6511
15606TIP3   OH268308   2.322   3.320   1.968  0.7974 -0.5186  0.1782
15606TIP3    H168309   2.329   3.225   1.968  3.2513 -0.4575  2.3536
15606TIP3    H268310   2.373   3.348   2.044  1.3884  2.6003 -1.2003
15607TIP3   OH268311   0.943   5.520  13.230 -0.7505  0.0886 -0.2914
15607TIP3    H168312   0.966   5.496  13.319  0.2208  0.0484 -0.5403
15607TIP3    H268313   1.027   5.528  13.184 -1.0233  2.7933 -0.5263
15608TIP3   OH268314   5.405   3.851   0.590  0.0137 -0.0297 -0.5503
15608TIP3    H168315   5.328   3.821   0.637  1.5525 -1.2698  1.3260
15608TIP3    H268316   5.381   3.938   0.558 -1.9949 -0.2150  0.2889
15609TIP3   OH268317   3.852   4.810   4.015  0.0928 -0.0340 -0.5639
15609TIP3    H168318   3.780   4.795   4.076  0.8209 -1.8237 -0.0721
15609TIP3    H268319   3.844   4.739   3.952  1.2276 -0.0742 -0.6751
15610TIP3   OH268320   5.179   2.690   1.347  0.1568 -0.5322 -0.4258
15610TIP3    H168321   5.188   2.614   1.289  1.6753  0.0985 -1.0536
15610TIP3    H268322   5.197   2.765   1.291 -3.2460  0.5339 -0.3109
15611TIP3   OH268323   2.055   6.847  13.042 -0.3433  0.3748 -0.0245
15611TIP3    H168324   2.099   6.853  12.957 -0.2286  0.5905  0.0500
15611TIP3    H268325   1.962   6.851  13.021 -0.3014  1.1818 -0.0814
15612TIP3   OH268326   2.320   2.312  12.122  0.0829  0.0542  0.0846
15612TIP3    H168327   2.382   2.343  12.188  0.8190  0.8416 -0.9306
15612TIP3    H268328   2.373   2.256  12.065 -0.2364  0.3891 -0.5520
15613TIP3   OH268329   2.785   5.165  15.401 -1.0914  0.2825  0.4809
15613TIP3    H168330   2.715   5.172  15.336  0.0976 -1.9232 -1.2017
15613TIP3    H268331   2.850   5.229  15.373 -1.3896  0.6514  0.6233
15614TIP3   OH268332   0.180   1.237   0.103  0.2064  0.0403 -0.1377
15614TIP3    H168333   0.168   1.210   0.012  1.2000 -0.2365 -0.1920
15614TIP3    H268334   0.257   1.293   0.102  0.4122 -0.2135  0.5839
15615TIP3   OH268335   6.150   3.713  15.946  0.5794 -0.0477  0.0801
15615TIP3    H168336   6.153   3.785  15.884  0.3710  0.3609  0.5409
15615TIP3    H268337   6.057   3.704  15.968  0.7206  0.2208  0.8079
15616TIP3   OH268338   1.464   3.395   5.665 -0.0694  0.5336  0.7426
15616TIP3    H168339   1.384   3.446   5.678 -0.6848 -0.7286  2.3166
15616TIP3    H268340   1.466   3.334   5.739  1.1492 -1.0381 -0.4939
15617TIP3   OH268341   6.326   3.056   1.111  0.7910  0.1299  0.0688
15617TIP3    H168342   6.241   3.088   1.081  1.3343  1.3924 -0.1938
15617TIP3    H268343   6.316   3.045   1.205  0.9210  2.3629  0.4093
15618TIP3   OH268344   2.396   3.733   2.592  0.1791  1.0902 -0.4713
15618TIP3    H168345   2.412   3.777   2.509  0.4934  0.6516 -0.6430
15618TIP3    H268346   2.306   3.702   2.587  0.4136  0.4797 -0.9149
15619TIP3   OH268347   4.684   5.037  14.721  0.3387 -0.0957 -0.1122
15619TIP3    H168348   4.618   5.004  14.782  0.4028  0.1704  0.1007
15619TIP3    H268349   4.690   5.130  14.740 -1.1408  0.4358 -1.9259
15620TIP3   OH268350   1.779   3.775  11.760 -0.1749 -0.3690  0.6379
15620TIP3    H168351   1.738   3.689  11.762 -1.2151  0.1229  1.5236
15620TIP3    H268352   1.706   3.836  11.749  0.3650  0.4992  1.7029
15621TIP3   OH268353   5.377   4.232  16.699 -0.2391  0.0587  0.3128
15621TIP3    H168354   5.344   4.206  16.612  0.5849  0.9102 -0.2716
15621TIP3    H268355   5.402   4.150  16.740  1.1871 -0.2178 -1.0310
15622TIP3   OH268356   0.458   5.127  15.569  0.6249 -0.1745 -0.2639
15622TIP3    H168357   0.496   5.050  15.611  0.1304  0.3659  1.2078
15622TIP3    H268358   0.478   5.200  15.628 -2.6098  0.1551  0.5734
15623TIP3   OH268359   1.354   6.440  12.893  0.1200 -0.2968  1.0960
15623TIP3    H168360   1.353   6.346  12.905  0.1786 -0.3022  1.0585
15623TIP3    H268361   1.434   6.457  12.844  0.8437 -0.0813  2.3080
15624TIP3   OH268362   6.761   3.098   4.830  0.3286 -0.0843  0.3953
15624TIP3    H168363   6.687   3.076   4.886  0.2105 -1.8646 -0.3750
15624TIP3    H268364   6.725   3.096   4.741  1.1376 -0.2702  0.0611
15625TIP3   OH268365   3.550   4.222  14.618  0.0530 -0.6612 -0.2337
15625TIP3    H168366   3.526   4.311  14.643 -1.7287 -1.7467  2.3003
15625TIP3    H268367   3.646   4.220  14.625  0.3558  1.5027 -2.3134
15626TIP3   OH268368   3.857   5.149  15.730  0.1695 -0.0009  0.5098
15626TIP3    H168369   3.854   5.165  15.636 -1.2494 -0.5017  0.4510
15626TIP3    H268370   3.864   5.236  15.769 -0.5854  0.3045 -0.0168
15627TIP3   OH268371   2.979   5.306   5.428 -0.2412 -0.1804  0.0760
15627TIP3    H168372   3.038   5.279   5.358 -0.0699 -1.3932  0.6615
15627TIP3    H268373   2.892   5.297   5.391 -0.1309 -0.1912 -0.1830
15628TIP3   OH268374   3.251   3.329   4.884 -0.0848 -0.0527 -0.0877
15628TIP3    H168375   3.345   3.315   4.875 -0.0622  0.3875 -0.5116
15628TIP3    H268376   3.220   3.344   4.795 -0.7742 -1.5071 -0.1368
15629TIP3   OH268377   5.136   5.614  13.910 -0.5558 -0.3581  0.8950
15629TIP3    H168378   5.081   5.608  13.831 -0.9173 -0.7969  1.1816
15629TIP3    H268379   5.221   5.644  13.877 -0.8690  0.0130  0.4071
15630TIP3   OH268380   5.124   0.471  11.155 -0.0296  0.1783 -0.0541
15630TIP3    H168381   5.117   0.386  11.196  0.9809  0.4056  0.6382
15630TIP3    H268382   5.214   0.474  11.121 -0.4259  0.5065 -1.1148
15631TIP3   OH268383   2.080   2.427  12.086 -0.5596  0.3539 -0.3420
15631TIP3    H168384   2.162   2.380  12.072 -1.8365 -1.8464 -0.8384
15631TIP3    H268385   2.016   2.382  12.031 -2.4687  0.9252  1.2671
15632TIP3   OH268386   6.628   4.284  13.957 -0.2943  0.3559  0.1265
15632TIP3    H168387   6.688   4.355  13.934  0.5008  0.7692  3.0750
15632TIP3    H268388   6.551   4.328  13.994 -0.9814 -0.2622 -0.5316
15633TIP3   OH268389   3.483   4.511  15.330  0.0090 -0.0107 -0.1766
15633TIP3    H168390   3.525   4.595  15.314 -1.4801  0.9519  0.6763
15633TIP3    H268391   3.518   4.482  15.415 -0.1789  0.2091 -0.0246
15634TIP3   OH268392   5.432   0.576   0.081  0.2453  0.9610  0.3922
15634TIP3    H168393   5.342   0.562   0.110  0.4114 -0.8207  0.2142
15634TIP3    H268394   5.429   0.560  -0.014  1.0510 -1.1831  0.6637
15635TIP3   OH268395   0.356   3.685  14.281 -0.3328 -0.0481 -0.2766
15635TIP3    H168396   0.312   3.689  14.196 -2.0671 -0.0834  0.5730
15635TIP3    H268397   0.328   3.602  14.319 -0.2306  0.3358  0.6640
15636TIP3   OH268398   0.955   2.836   0.781  0.7893 -0.3458  0.0327
15636TIP3    H168399   1.041   2.795   0.791  2.0339  1.3002 -2.7042
15636TIP3    H268400   0.909   2.780   0.718  0.7606 -0.0323 -0.2302
15637TIP3   OH268401   0.271   0.019  13.472 -0.7020 -0.3670 -0.0851
15637TIP3    H168402   0.258  -0.045  13.542  1.0006 -0.8593 -0.1711
15637TIP3    H268403   0.350  -0.010  13.427 -0.9385  0.7664 -1.3097
15638TIP3   OH268404   5.915   0.386  15.754  0.1860  0.2218 -0.4571
15638TIP3    H168405   5.988   0.332  15.723 -1.6577 -3.3528  0.8179
15638TIP3    H268406   5.868   0.412  15.675 -1.0907 -3.6219 -1.1468
15639TIP3   OH268407   2.295   1.742   5.006  0.7849 -0.0657 -0.1009
15639TIP3    H168408   2.327   1.771   4.920  0.1046  0.1695 -0.2834
15639TIP3    H268409   2.281   1.648   4.996 -3.2089  0.4820 -1.6112
15640TIP3   OH268410   0.085   3.651  16.074 -0.2122  0.6451  0.1063
15640TIP3    H168411  -0.005   3.634  16.101  0.3171  1.0049  2.2779
15640TIP3    H268412   0.118   3.565  16.047 -0.6380  0.1461  1.1358
15641TIP3   OH268413   2.158   2.009  12.530  0.2866  0.2785  0.1150
15641TIP3    H168414   2.221   2.061  12.580  1.6985 -1.4077  0.1895
15641TIP3    H268415   2.213   1.954  12.473 -1.1152 -1.2591  0.1937
15642TIP3   OH268416   2.161   3.899   3.835  0.2434 -0.6145  0.7181
15642TIP3    H168417   2.240   3.940   3.799  0.0602 -0.5814  0.3491
15642TIP3    H268418   2.134   3.958   3.906  0.2914 -0.3833  0.5457
15643TIP3   OH268419   0.978   1.332  11.324 -0.2813 -0.3368  0.1831
15643TIP3    H168420   0.913   1.392  11.362  0.6464  0.5972  0.3501
15643TIP3    H268421   1.024   1.296  11.400 -0.1702 -0.4894  0.0435
15644TIP3   OH268422   4.243   5.285  15.784 -0.0769  0.0160 -0.0353
15644TIP3    H168423   4.189   5.254  15.711  0.9022  1.1411 -1.2872
15644TIP3    H268424   4.216   5.232  15.858 -0.9277 -1.3495 -1.2739
15645TIP3   OH268425   5.472   4.047   1.002 -0.6626  0.0953 -0.2257
15645TIP3    H168426   5.478   4.141   1.015 -1.2520  0.1859 -0.5744
15645TIP3    H268427   5.378   4.029   0.998 -0.5582 -0.5432  0.0975
15646TIP3   OH268428   3.332   4.590   4.494  0.1859 -0.3435  0.4046
15646TIP3    H168429   3.345   4.513   4.549  1.3355 -1.0284 -0.7740
15646TIP3    H268430   3.419   4.608   4.457  0.0012  1.6887  0.8565
15647TIP3   OH268431   2.784   0.891   2.634  0.2600 -0.6620 -0.5098
15647TIP3    H168432   2.781   0.978   2.674 -1.7569 -0.4991 -0.9250
15647TIP3    H268433   2.772   0.907   2.540 -0.2826 -1.3856 -0.5756
15648TIP3   OH268434   3.105   2.620  11.035  0.2729  0.0664  0.2401
15648TIP3    H168435   3.102   2.566  10.956  0.4999 -0.8821  0.8652
15648TIP3    H268436   3.158   2.569  11.097 -1.4092 -0.0796  1.6474
15649TIP3   OH268437   1.631   6.315  11.464  0.4068  1.0098  0.4173
15649TIP3    H168438   1.549   6.313  11.513  0.3745 -1.3596  0.4196
15649TIP3    H268439   1.604   6.309  11.372  0.4605 -2.7951  0.4858
15650TIP3   OH268440   6.287   3.753   0.352  0.2533  0.0820 -0.2514
15650TIP3    H168441   6.260   3.822   0.412 -1.1276  0.5527 -1.3651
15650TIP3    H268442   6.244   3.674   0.386  1.0139 -0.0427  0.4433
15651TIP3   OH268443   4.195   6.137   6.434  0.4526 -0.0257  0.8209
15651TIP3    H168444   4.272   6.094   6.471 -0.3355  0.0949  2.7166
15651TIP3    H268445   4.121   6.091   6.473 -0.4885 -0.4557 -1.3223
15652TIP3   OH268446   6.030   1.586  11.920 -0.0321 -0.3281  0.3342
15652TIP3    H168447   6.025   1.493  11.896  0.3357 -0.6454  1.4506
15652TIP3    H268448   6.089   1.624  11.855 -1.6107 -0.4750 -1.2554
15653TIP3   OH268449   6.578   1.331   3.487 -0.3979  0.7350 -0.1437
15653TIP3    H168450   6.505   1.382   3.523 -1.1535 -0.2256 -0.2535
15653TIP3    H268451   6.618   1.289   3.564  0.8091  2.1798  0.0580
15654TIP3   OH268452   1.014   2.811   3.133 -0.1110  0.1996  0.6282
15654TIP3    H168453   1.063   2.866   3.072  1.5844  1.8817  3.2621
15654TIP3    H268454   1.080   2.782   3.197 -1.4360 -2.9372  0.7657
15655TIP3   OH268455   2.978   3.992   2.875 -0.0193 -0.3547 -0.3289
15655TIP3    H168456   3.030   4.069   2.852 -0.2593 -0.7848 -2.6368
15655TIP3    H268457   2.895   4.004   2.828 -0.0835 -1.9457 -0.7011
15656TIP3   OH268458   6.820   2.857   4.974 -0.2451  0.2001 -0.1578
15656TIP3    H168459   6.887   2.793   4.996 -1.0055 -0.8472 -0.8192
15656TIP3    H268460   6.740   2.824   5.015 -0.2731  1.7238  1.0915
15657TIP3   OH268461   4.665   0.175  10.495  0.0760 -0.6192 -0.9467
15657TIP3    H168462   4.670   0.081  10.510 -1.0944 -0.7565 -1.3276
15657TIP3    H268463   4.585   0.202  10.540  0.5472  0.2489 -0.6113
15658TIP3   OH268464   0.742   3.621   0.850 -0.1667 -0.2065 -0.6548
15658TIP3    H168465   0.667   3.572   0.883  0.1722 -0.3559 -0.0944
15658TIP3    H268466   0.793   3.557   0.801  0.8119 -0.7049  0.9267
15659TIP3   OH268467   6.070   6.467  14.030  0.0219  0.2132 -0.0220
15659TIP3    H168468   6.120   6.446  13.951  1.2455  1.1771  0.4523
15659TIP3    H268469   6.065   6.563  14.029 -0.5874  0.1914  0.6990
15660TIP3   OH268470   1.526   1.038  14.785  0.4019  0.4796  0.9192
15660TIP3    H168471   1.534   0.954  14.739 -0.0460  0.2246  1.2900
15660TIP3    H268472   1.612   1.078  14.777  0.9001 -0.4382  1.5479
15661TIP3   OH268473   5.232   3.354  16.032 -0.0159 -0.0161  0.0589
15661TIP3    H168474   5.239   3.260  16.013 -0.4714  0.0639 -0.5107
15661TIP3    H268475   5.217   3.395  15.947  0.2882  0.5882  0.2921
15662TIP3   OH268476   2.286   1.974  15.485 -0.9105 -0.1510 -0.4227
15662TIP3    H168477   2.244   1.888  15.487 -0.8161 -0.2468 -1.8478
15662TIP3    H268478   2.222   2.033  15.525 -0.2426 -1.1286  2.3565
15663TIP3   OH268479   4.351   5.089   3.386  0.9806 -0.2521  0.0865
15663TIP3    H168480   4.304   5.020   3.432 -1.0148  0.8175 -0.2242
15663TIP3    H268481   4.327   5.169   3.433  2.3068  0.3761 -0.2645
15664TIP3   OH268482   5.824   2.406  15.069 -0.1513  0.2491  0.2979
15664TIP3    H168483   5.877   2.435  15.144  0.1659 -1.2334  0.6765
15664TIP3    H268484   5.879   2.424  14.993 -0.3477  1.4763  0.4182
15665TIP3   OH268485   6.266   1.824  16.217 -0.0712  0.6766 -0.5860
15665TIP3    H168486   6.274   1.751  16.156  1.1176  0.7519 -0.5450
15665TIP3    H268487   6.246   1.783  16.301  0.4473  0.3993 -0.5945
15666TIP3   OH268488   1.993   2.586  13.311  0.0430 -0.0146  0.0085
15666TIP3    H168489   2.012   2.676  13.285  0.0408 -0.0982 -0.2860
15666TIP3    H268490   1.912   2.564  13.267 -0.0461 -0.1060  0.2143
15667TIP3   OH268491   5.477   6.692  12.996  0.1635  0.4189 -0.0510
15667TIP3    H168492   5.486   6.666  13.087  1.6224 -0.7513 -0.5056
15667TIP3    H268493   5.467   6.610  12.948  0.0870  0.9795 -1.0215
15668TIP3   OH268494   5.658   2.437   2.827  0.3738  0.4033 -0.1557
15668TIP3    H168495   5.604   2.398   2.895 -0.7369  0.4013 -1.0197
15668TIP3    H268496   5.612   2.418   2.745  1.7417  0.3011 -0.9278
15669TIP3   OH268497   2.280   1.511  12.173 -0.1922 -0.4334 -0.4283
15669TIP3    H168498   2.254   1.421  12.155  1.3124 -0.7365 -1.2433
15669TIP3    H268499   2.376   1.511  12.166 -0.1793  1.2910 -0.7551
15670TIP3   OH268500   3.554   4.185  12.463 -0.3595 -0.4686 -0.0541
15670TIP3    H168501   3.518   4.223  12.543 -0.6162 -0.5726 -0.1167
15670TIP3    H268502   3.478   4.174  12.406  0.0565  1.2604 -1.0017
15671TIP3   OH268503   1.436   1.847  17.112 -0.5028  0.0986 -0.0072
15671TIP3    H168504   1.495   1.804  17.173 -0.7016  0.0242  0.1348
15671TIP3    H268505   1.348   1.827  17.145 -0.6830 -1.4157 -1.2803
15672TIP3   OH268506   4.751   0.941   2.463 -0.5565  0.6889 -0.3993
15672TIP3    H168507   4.685   0.922   2.529  0.2985  1.6840  0.7851
15672TIP3    H268508   4.813   0.868   2.470 -1.4412 -0.2160 -1.4739
15673TIP3   OH268509   3.454   4.032   2.658 -0.5831  0.1147  0.1308
15673TIP3    H168510   3.522   3.969   2.632  0.3446  0.6677  1.1523
15673TIP3    H268511   3.377   3.977   2.673  0.4196 -0.9701  1.8267
15674TIP3   OH268512   2.788   1.805  15.394 -1.0374  0.0371 -0.0806
15674TIP3    H168513   2.843   1.874  15.356 -0.3973  0.1071  0.9398
15674TIP3    H268514   2.775   1.743  15.322  1.8424 -0.8732  0.0534
15675TIP3   OH268515   3.401   6.358   1.960 -0.4212  0.2572 -0.0228
15675TIP3    H168516   3.349   6.298   1.907 -1.0873  0.7788  0.0357
15675TIP3    H268517   3.486   6.315   1.967 -0.1036  0.4249 -2.0227
15676TIP3   OH268518   5.667   1.696  13.870  0.2340 -0.0977  0.0604
15676TIP3    H168519   5.605   1.730  13.934  0.7833 -0.3942  0.7723
15676TIP3    H268520   5.732   1.765  13.860  1.5780 -1.0268  1.8187
15677TIP3   OH268521   3.903   3.423  13.788 -0.0171 -0.3453  0.6627
15677TIP3    H168522   3.863   3.438  13.702  1.4977 -0.6684 -0.1170
15677TIP3    H268523   3.853   3.350  13.825 -0.5823 -0.3050 -0.0002
15678TIP3   OH268524   1.331   3.187  16.536  0.1892 -0.1744 -0.0458
15678TIP3    H168525   1.247   3.153  16.567 -0.8663  0.7746 -1.6933
15678TIP3    H268526   1.349   3.136  16.457  0.5644  0.4471 -0.3611
15679TIP3   OH268527   6.768   3.786  11.346 -0.3563 -0.4817 -0.2525
15679TIP3    H168528   6.748   3.715  11.283  1.1303  1.0281 -2.5901
15679TIP3    H268529   6.690   3.791  11.401 -1.6358 -2.1554 -1.7545
15680TIP3   OH268530   2.705   4.321   0.354  0.3453 -0.7357  0.0548
15680TIP3    H168531   2.617   4.358   0.354  1.1564  1.6653  3.0854
15680TIP3    H268532   2.692   4.226   0.345 -2.1629 -0.2055 -3.7457
15681TIP3   OH268533   3.884   4.047  16.809  0.9200  0.4309  0.2151
15681TIP3    H168534   3.814   4.113  16.814  1.0148  0.5861 -0.4360
15681TIP3    H268535   3.927   4.064  16.726  2.8202  1.4259  1.3317
15682TIP3   OH268536   2.940   5.313   0.883 -0.1915 -0.4673 -0.2074
15682TIP3    H168537   2.975   5.388   0.931 -0.2074  0.1136 -1.0804
15682TIP3    H268538   2.967   5.328   0.792  0.4832 -1.9102 -0.2861
15683TIP3   OH268539   3.931   0.690  15.194 -0.4718  0.0065 -0.2427
15683TIP3    H168540   3.913   0.766  15.139  0.1838 -1.0839 -2.0409
15683TIP3    H268541   3.912   0.720  15.283  0.4246  2.4799 -0.8041
15684TIP3   OH268542   0.055   4.329  15.700 -0.1800 -0.2389 -0.3565
15684TIP3    H168543  -0.039   4.341  15.711 -0.0217  0.9551 -0.1966
15684TIP3    H268544   0.063   4.254  15.641 -1.2354 -0.0877 -0.7025
15685TIP3   OH268545   5.226   5.271   0.773 -0.5250 -0.0088 -0.3305
15685TIP3    H168546   5.215   5.313   0.688  0.4648  1.3860  0.1933
15685TIP3    H268547   5.157   5.205   0.776 -3.1318  2.4894 -0.6431
15686TIP3   OH268548   1.999   3.434   0.784  0.0642 -0.1580 -0.1727
15686TIP3    H168549   1.935   3.433   0.712 -0.7761 -0.9102  0.5577
15686TIP3    H268550   2.067   3.494   0.754 -0.2931 -0.4055 -1.5773
15687TIP3   OH268551   4.909   2.918  15.112  0.4228 -0.4451  0.1837
15687TIP3    H168552   4.840   2.874  15.061 -1.4614  1.5767  0.7857
15687TIP3    H268553   4.983   2.858  15.110 -1.5399 -3.0209 -0.0304
15688TIP3   OH268554   3.416   0.273  12.706 -0.4755 -0.6403 -0.3628
15688TIP3    H168555   3.423   0.190  12.657 -0.7323 -1.2969  0.6921
15688TIP3    H268556   3.346   0.321  12.662 -1.1609 -1.5109 -0.2446
15689TIP3   OH268557   0.312   5.431  10.571  0.0702 -0.0016 -0.3230
15689TIP3    H168558   0.386   5.418  10.511 -0.3206 -1.6283 -0.4901
15689TIP3    H268559   0.346   5.492  10.637  0.9397  0.7625 -1.4264
15690TIP3   OH268560   0.610   2.890   3.527  0.0015  0.0982  0.0384
15690TIP3    H168561   0.627   2.798   3.547 -1.3702  0.2300  2.1619
15690TIP3    H268562   0.687   2.936   3.561  0.4149 -0.1879 -0.4864
15691TIP3   OH268563   2.734   0.879  16.899  0.0376  0.3056 -0.1869
15691TIP3    H168564   2.748   0.840  16.813 -0.4130  0.4012 -0.3112
15691TIP3    H268565   2.815   0.926  16.918 -0.4296  1.6657 -1.3036
15692TIP3   OH268566   5.210   4.798   5.655 -0.6524 -0.0137  0.2325
15692TIP3    H168567   5.213   4.878   5.601  1.0310  1.2957  2.1168
15692TIP3    H268568   5.261   4.734   5.606 -2.3114 -0.1197 -1.4809
15693TIP3   OH268569   2.485   2.107   3.599  0.2598  0.0144 -0.9544
15693TIP3    H168570   2.475   2.139   3.688 -0.6069  0.5014 -1.2148
15693TIP3    H268571   2.503   2.186   3.547 -0.9051 -0.0280 -1.4506
15694TIP3   OH268572   1.751   0.325  12.545 -0.2347  0.6474  0.1793
15694TIP3    H168573   1.671   0.333  12.493 -0.4592  2.1808  0.6898
15694TIP3    H268574   1.727   0.269  12.618 -0.6145  0.4619 -0.0831
15695TIP3   OH268575   1.959   6.663   1.511  0.1450 -0.0786 -0.7544
15695TIP3    H168576   2.008   6.684   1.432  0.2216  0.0923 -0.6627
15695TIP3    H268577   2.025   6.653   1.579  0.0559  0.1367 -0.6336
15696TIP3   OH268578   0.352   2.279  11.085 -0.7021 -0.5149 -0.0844
15696TIP3    H168579   0.267   2.292  11.043 -1.4456  0.0649  1.4986
15696TIP3    H268580   0.344   2.326  11.168  0.6517 -1.6840  0.7450
15697TIP3   OH268581   0.542   2.148  13.734  0.1408  0.6332  0.1430
15697TIP3    H168582   0.568   2.086  13.667  1.2205  1.7168 -0.4882
15697TIP3    H268583   0.597   2.126  13.809  0.6122  0.8888 -0.1214
15698TIP3   OH268584   4.653   1.525  13.816  0.5190 -0.5546  0.1843
15698TIP3    H168585   4.657   1.429  13.817  0.6585 -0.5792  2.7631
15698TIP3    H268586   4.745   1.553  13.814  0.4748 -0.4421 -0.8706
15699TIP3   OH268587   3.613   3.809   2.623  0.3928  0.3692  0.9111
15699TIP3    H168588   3.667   3.815   2.544  1.5610  2.4360  1.7804
15699TIP3    H268589   3.656   3.742   2.677  1.4300  1.1294  1.0653
15700TIP3   OH268590   6.057   6.828  15.930 -0.3452  0.9011 -0.5100
15700TIP3    H168591   6.136   6.833  15.985 -0.5023  1.0435 -0.2946
15700TIP3    H268592   6.019   6.743  15.951 -0.3429  0.9069 -0.4807
15701TIP3   OH268593   2.243   4.215  14.075 -0.0672 -0.3991  0.0424
15701TIP3    H168594   2.315   4.174  14.027  0.8561  0.6738  0.4430
15701TIP3    H268595   2.262   4.197  14.167 -0.0302  0.2765  0.1785
15702TIP3   OH268596   5.721   4.983   2.777 -0.1464  0.1947  0.2347
15702TIP3    H168597   5.741   4.928   2.701  1.5642 -0.0362  0.8083
15702TIP3    H268598   5.793   4.967   2.838 -1.2650  0.6877  1.7475
15703TIP3   OH268599   1.789   0.115   2.427  0.0877 -0.5789  0.2520
15703TIP3    H168600   1.749   0.202   2.432 -1.5959 -1.3143  0.4011
15703TIP3    H268601   1.817   0.107   2.336  1.8641  0.7619  0.6376
15704TIP3   OH268602   4.900   0.019  14.890 -0.7129  0.1403  0.0252
15704TIP3    H168603   4.895   0.064  14.806 -1.8822  1.9142  0.9723
15704TIP3    H268604   4.918  -0.072  14.868 -1.8084  0.3937 -2.1888
15705TIP3   OH268605   1.041   2.337  11.367 -0.1516  0.5045 -0.1499
15705TIP3    H168606   0.973   2.374  11.310  0.2946 -0.1372 -1.1416
15705TIP3    H268607   1.057   2.250  11.331 -1.1903 -0.6911  2.1374
15706TIP3   OH268608   3.593   0.841   5.015  0.1344 -0.6614  0.0922
15706TIP3    H168609   3.640   0.874   5.091  1.3069  0.2257 -0.9733
15706TIP3    H268610   3.503   0.830   5.045  0.0067  2.0931  0.9251
15707TIP3   OH268611   2.153   1.447   3.665  0.6237 -0.2092  0.6267
15707TIP3    H168612   2.107   1.527   3.641 -0.1686 -0.1125  2.2743
15707TIP3    H268613   2.245   1.474   3.672  0.7109  0.0043 -0.9951
15708TIP3   OH268614   6.534   1.113   0.043 -0.1565  0.0806 -0.2765
15708TIP3    H168615   6.480   1.144   0.116  2.3195  1.9725  0.9010
15708TIP3    H268616   6.583   1.190   0.014  2.7598 -1.6812 -0.4493
15709TIP3   OH268617   4.267   1.501  13.747  0.3618  0.9000 -0.1238
15709TIP3    H168618   4.203   1.572  13.740  0.4432  0.9513 -0.3420
15709TIP3    H268619   4.339   1.527  13.690  0.4210  0.6719 -0.1554
15710TIP3   OH268620   4.268   6.688   3.343 -0.0257 -0.3688  0.2101
15710TIP3    H168621   4.295   6.676   3.252 -1.2121 -0.7138 -0.1110
15710TIP3    H268622   4.197   6.752   3.339 -1.3678 -1.7603  0.6431
15711TIP3   OH268623   1.777   0.417   4.158  0.6142 -0.7509 -0.3025
15711TIP3    H168624   1.683   0.424   4.171  0.9456  1.3835  1.5330
15711TIP3    H268625   1.791   0.326   4.131 -1.7762 -1.6521  1.1897
15712TIP3   OH268626   4.715   4.588   3.442 -0.6747 -0.3522  0.2689
15712TIP3    H168627   4.747   4.520   3.502 -0.7966 -1.2755 -0.6886
15712TIP3    H268628   4.713   4.667   3.495  0.0718 -0.9601  1.2469
15713TIP3   OH268629   4.816   3.412  12.922  0.4980  0.0350  0.1504
15713TIP3    H168630   4.896   3.463  12.908  0.5761 -0.3516 -0.8986
15713TIP3    H268631   4.845   3.333  12.968  1.0744 -1.0374 -1.9320
15714TIP3   OH268632   3.276   1.049   0.246 -0.1440 -0.1145 -0.5457
15714TIP3    H168633   3.235   0.974   0.202  0.7954 -0.4674 -0.8279
15714TIP3    H268634   3.279   1.117   0.179 -0.0846 -0.1524 -0.5811
15715TIP3   OH268635   3.258   3.621   0.517 -0.7835  0.3878 -0.7603
15715TIP3    H168636   3.321   3.549   0.516  0.3740  1.3296  0.3292
15715TIP3    H268637   3.177   3.582   0.485  0.0903 -1.1098 -1.2698
15716TIP3   OH268638   5.542   0.783  14.489 -0.0552 -0.4942  0.3293
15716TIP3    H168639   5.553   0.860  14.433 -0.1941 -1.0059 -0.4147
15716TIP3    H268640   5.571   0.709  14.434  0.6785 -0.9067  1.2409
15717TIP3   OH268641   3.205   6.451   4.841  0.1192  0.0553 -0.0194
15717TIP3    H168642   3.265   6.398   4.789  0.1398 -0.5127  0.5752
15717TIP3    H268643   3.124   6.453   4.789  0.6903  0.9735 -0.9079
15718TIP3   OH268644   1.360   0.808   6.519 -0.0670 -0.3537  0.3259
15718TIP3    H168645   1.303   0.731   6.511 -1.9642  0.9665  0.4355
15718TIP3    H268646   1.392   0.824   6.431 -1.5499  0.0671 -0.1676
15719TIP3   OH268647   6.145   6.724  15.354  0.3200  0.2500 -0.3494
15719TIP3    H168648   6.219   6.687  15.402  0.1057  0.8094  0.4285
15719TIP3    H268649   6.172   6.814  15.333 -0.7671  1.0637  1.4546
15720TIP3   OH268650   4.123   4.442   1.548 -0.3483 -0.4199 -0.3170
15720TIP3    H168651   4.074   4.390   1.612 -0.7046 -0.8757 -0.9450
15720TIP3    H268652   4.091   4.532   1.561 -3.0157 -0.9838 -2.1559
15721TIP3   OH268653   1.167   6.504   4.279 -0.0846 -0.0494 -0.5810
15721TIP3    H168654   1.206   6.554   4.350  0.3803 -1.8072  0.4648
15721TIP3    H268655   1.096   6.455   4.320  1.7409 -3.0195 -0.6588
15722TIP3   OH268656   4.416   5.336   1.068 -0.3031  0.4090  0.0164
15722TIP3    H168657   4.377   5.423   1.063  0.3081  0.7477  0.9543
15722TIP3    H268658   4.349   5.277   1.034 -1.0659  1.1467  0.2305
15723TIP3   OH268659   4.609   5.835  12.084 -0.0667 -0.6632 -0.0762
15723TIP3    H168660   4.520   5.799  12.085  0.2376 -1.8086 -3.0066
15723TIP3    H268661   4.666   5.759  12.081  0.9898  0.0755  0.6262
15724TIP3   OH268662   5.069   1.237   5.752 -0.4408 -0.1130 -0.5530
15724TIP3    H168663   5.124   1.315   5.746 -0.5989 -0.1093 -3.1844
15724TIP3    H268664   5.128   1.164   5.731 -0.5024 -0.6186  0.9423
15725TIP3   OH268665   4.950   4.199  12.824 -0.5766 -0.1147  0.0071
15725TIP3    H168666   4.953   4.129  12.759  0.9525 -1.7694  1.7433
15725TIP3    H268667   4.886   4.170  12.888 -0.2111  0.2409  0.5440
15726TIP3   OH268668   1.894   6.196  14.491  0.1682 -0.2097  0.5105
15726TIP3    H168669   1.820   6.225  14.437  2.1683  2.0736 -1.2155
15726TIP3    H268670   1.914   6.108  14.459  0.3107  0.4901 -1.4730
15727TIP3   OH268671   5.992   0.679  16.019  0.3642 -0.1634 -0.3051
15727TIP3    H168672   6.079   0.687  15.979  0.0026  0.2284 -1.0326
15727TIP3    H268673   5.931   0.687  15.946 -0.2829 -0.9516  0.1290
15728TIP3   OH268674   6.070   6.854   5.341 -0.0048  0.4734 -0.4020
15728TIP3    H168675   6.134   6.828   5.275  0.4111 -1.4695  0.6872
15728TIP3    H268676   5.986   6.853   5.295  0.2269 -1.2470 -0.8499
15729TIP3   OH268677   4.696   5.425  12.758 -0.2553  0.3990  0.0791
15729TIP3    H168678   4.695   5.451  12.850  0.5565 -0.1743  0.2664
15729TIP3    H268679   4.673   5.332  12.760  2.2356 -0.3053 -0.0102
15730TIP3   OH268680   5.059   4.807  11.380 -0.2396 -0.0981  0.1767
15730TIP3    H168681   5.115   4.802  11.458 -0.6836 -1.9778  0.4189
15730TIP3    H268682   5.112   4.768  11.310 -0.3283  0.4096 -0.1822
15731TIP3   OH268683   4.282   1.656  11.043  0.1686 -0.5052 -0.6046
15731TIP3    H168684   4.222   1.581  11.039 -0.1426 -0.2771 -0.2302
15731TIP3    H268685   4.317   1.663  10.954  0.2637 -1.1479 -0.6234
15732TIP3   OH268686   2.999   2.281   0.240  0.7916 -0.4493  0.0821
15732TIP3    H168687   2.991   2.370   0.275 -0.2940 -0.1304 -0.9012
15732TIP3    H268688   3.070   2.287   0.177  1.3019 -0.5011  0.6432
15733TIP3   OH268689   3.949   5.836   2.070 -0.6026 -0.4193  0.7392
15733TIP3    H168690   3.866   5.795   2.044 -1.4385  1.3677  0.4204
15733TIP3    H268691   3.953   5.823   2.165 -1.8757  0.5037  0.9503
15734TIP3   OH268692   5.698   5.438   3.365 -0.2877 -0.2904  0.0035
15734TIP3    H168693   5.761   5.430   3.437  0.0692  1.0635 -0.1191
15734TIP3    H268694   5.727   5.516   3.317 -2.0336  0.3505 -0.0790
15735TIP3   OH268695   3.098   1.496  11.608 -0.0314 -0.1493 -0.3099
15735TIP3    H168696   3.019   1.549  11.614 -0.3054 -0.5826  0.0208
15735TIP3    H268697   3.080   1.420  11.664  0.5705 -0.3112 -0.3284
15736TIP3   OH268698   5.563   0.354  11.007  0.1847 -0.1185 -0.5042
15736TIP3    H168699   5.608   0.360  10.923  4.5954  1.7809  1.6505
15736TIP3    H268700   5.551   0.260  11.022  1.2008 -0.5831 -2.3735
15737TIP3   OH268701   0.551   2.627  16.983 -0.1484 -0.3099 -0.0726
15737TIP3    H168702   0.564   2.592  16.894  1.0913 -0.4606  0.1519
15737TIP3    H268703   0.466   2.592  17.010 -0.4483 -0.4320 -1.1193
15738TIP3   OH268704   0.649   1.758  10.621  0.1430  0.5341  0.0700
15738TIP3    H168705   0.613   1.684  10.572  2.1253 -0.3564 -0.1191
15738TIP3    H268706   0.598   1.834  10.590 -0.0064 -0.3090 -1.8992
15739TIP3   OH268707   2.002   1.830   1.019 -0.2313 -0.4123  0.0405
15739TIP3    H168708   2.041   1.746   1.043 -1.3054 -0.7911  0.5576
15739TIP3    H268709   1.908   1.816   1.030 -0.4226  0.8865  0.2006
15740TIP3   OH268710   0.577   3.720  12.893  0.0068 -0.7789  0.3458
15740TIP3    H168711   0.506   3.688  12.837  0.7322 -1.3036 -0.2979
15740TIP3    H268712   0.542   3.717  12.982 -0.8687 -0.7634  0.0028
15741TIP3   OH268713   0.884   2.579   5.618  0.0169 -0.3767 -0.0972
15741TIP3    H168714   0.943   2.510   5.648  2.7907  2.1331  0.8008
15741TIP3    H268715   0.839   2.609   5.697 -0.3878 -0.4895 -0.2854
15742TIP3   OH268716   6.575   6.636   3.739  0.0200 -0.2180  0.8962
15742TIP3    H168717   6.616   6.570   3.794 -0.5805 -0.6307  0.8610
15742TIP3    H268718   6.548   6.589   3.660 -1.6856 -0.2715  1.4567
15743TIP3   OH268719   4.197   5.848   3.576 -0.7879 -0.5257  0.5586
15743TIP3    H168720   4.211   5.818   3.487 -1.2703  1.1245 -0.1190
15743TIP3    H268721   4.247   5.787   3.631  0.8264 -0.6384 -0.9554
15744TIP3   OH268722   2.748   5.155   3.763 -0.1457 -0.3255 -0.1850
15744TIP3    H168723   2.715   5.065   3.767  1.0965 -0.8052  0.0641
15744TIP3    H268724   2.760   5.180   3.855  0.9097 -0.4807 -0.2590
15745TIP3   OH268725   1.674   2.290  13.032  0.0197  0.5613  0.0371
15745TIP3    H168726   1.598   2.275  12.976  0.5176  0.4226 -0.6093
15745TIP3    H268727   1.743   2.317  12.972  0.1949  1.7375  0.7358
15746TIP3   OH268728   4.676   4.149   2.083  0.4703  0.2274  0.2573
15746TIP3    H168729   4.681   4.243   2.069  2.0250  0.2104  0.4857
15746TIP3    H268730   4.583   4.128   2.077  0.2124  1.5898 -0.9324
15747TIP3   OH268731   2.615   1.714   0.908  0.0467 -0.3977 -0.2518
15747TIP3    H168732   2.635   1.635   0.858 -0.0018 -1.0747  0.7558
15747TIP3    H268733   2.674   1.710   0.983  0.2619  0.7006 -0.3486
15748TIP3   OH268734   3.680   3.516   1.140  0.3788 -0.3342  0.2173
15748TIP3    H168735   3.626   3.581   1.185 -0.4640  1.5846 -3.1892
15748TIP3    H268736   3.764   3.561   1.128  0.1280 -0.2051 -1.2460
15749TIP3   OH268737   4.565   3.221  12.039  0.0162 -1.0293  0.3734
15749TIP3    H168738   4.523   3.255  12.118  1.4364  1.3526  0.2080
15749TIP3    H268739   4.606   3.140  12.068 -1.1668 -1.2497  1.5544
15750TIP3   OH268740   0.378   2.719  15.841 -0.3579 -0.3708  0.7841
15750TIP3    H168741   0.402   2.656  15.908  1.1734 -0.8399 -0.1681
15750TIP3    H268742   0.286   2.700  15.821 -0.6731 -0.5703  2.3357
15751TIP3   OH268743   3.740   3.689  15.900  0.2848 -0.1417 -0.1868
15751TIP3    H168744   3.683   3.615  15.876  1.5866 -1.0731 -0.5370
15751TIP3    H268745   3.698   3.765  15.860 -0.7765 -0.7686 -0.3286
15752TIP3   OH268746   6.696   4.727  16.994 -0.2092 -0.1442 -0.1592
15752TIP3    H168747   6.788   4.701  16.985  0.4005  2.1946 -1.2408
15752TIP3    H268748   6.698   4.809  17.042 -1.8500 -0.4994  0.6079
15753TIP3   OH268749   4.190   6.077  12.878 -0.1057  0.3946 -0.4832
15753TIP3    H168750   4.256   6.024  12.833  0.1492 -1.1250  1.5567
15753TIP3    H268751   4.240   6.151  12.914 -0.0411  0.7571 -1.2845
15754TIP3   OH268752   3.113   6.823  11.119  0.3060  0.1331  0.2423
15754TIP3    H168753   3.075   6.735  11.123  0.6812 -0.0317  0.2780
15754TIP3    H268754   3.172   6.827  11.194 -1.1902  1.1305  1.4149
15755TIP3   OH268755   3.208   5.632  13.502  0.0366  0.3697 -0.4196
15755TIP3    H168756   3.292   5.623  13.456  0.2657  1.3094 -0.1935
15755TIP3    H268757   3.176   5.718  13.477 -1.2175 -0.2573 -1.0624
15756TIP3   OH268758   5.661   6.820   3.352 -0.1669 -0.9243  0.2075
15756TIP3    H168759   5.577   6.865   3.360  0.2076  0.0377 -0.9530
15756TIP3    H268760   5.708   6.844   3.432  0.5386  1.9517 -0.9304
15757TIP3   OH268761   4.246   2.709   0.004  0.3986 -0.1251 -0.0673
15757TIP3    H168762   4.274   2.621  -0.020  0.4142 -0.6697  1.7744
15757TIP3    H268763   4.309   2.766  -0.041  1.4494 -1.1254  0.0637
15758TIP3   OH268764   6.545   2.326  15.821 -0.1525 -0.3575 -0.9961
15758TIP3    H168765   6.534   2.281  15.905  0.6060  1.8531  0.3714
15758TIP3    H268766   6.526   2.259  15.756  1.5403 -2.8541  0.8731
15759TIP3   OH268767   1.429   4.349   3.664  0.1069  0.2842 -0.4392
15759TIP3    H168768   1.468   4.316   3.583  0.9607 -1.4616  0.6052
15759TIP3    H268769   1.341   4.378   3.639  0.0278 -1.0399 -1.8319
15760TIP3   OH268770   5.754   4.899   4.332 -0.1247  0.0378  0.5516
15760TIP3    H168771   5.707   4.980   4.350 -0.1677  0.3377 -0.7746
15760TIP3    H268772   5.830   4.926   4.280 -0.1446 -0.7524  0.0871
15761TIP3   OH268773   4.152   4.254   3.821 -0.2923  0.2218  0.7231
15761TIP3    H168774   4.169   4.348   3.818  0.4494  0.0698 -0.2154
15761TIP3    H268775   4.075   4.242   3.764  0.5300  0.0894 -0.3964
15762TIP3   OH268776   0.030   0.588  11.829  0.4698  0.0905 -0.3363
15762TIP3    H168777  -0.061   0.573  11.854  0.8063 -1.2674  0.1723
15762TIP3    H268778   0.031   0.678  11.796 -0.6786  0.8195  1.4285
15763TIP3   OH268779   5.721   4.479  13.888  0.0740 -0.1151 -0.1299
15763TIP3    H168780   5.803   4.528  13.894  0.5246 -0.9954  1.5339
15763TIP3    H268781   5.744   4.402  13.836  0.1384 -0.0544 -0.1924
15764TIP3   OH268782   0.167   2.479   3.716 -0.5425 -0.1502 -0.2878
15764TIP3    H168783   0.212   2.395   3.708 -0.6232 -0.1071 -1.3416
15764TIP3    H268784   0.155   2.509   3.625 -0.5106  1.0016  0.0679
15765TIP3   OH268785   2.408   4.630  11.864  0.2264  0.1805 -0.4298
15765TIP3    H168786   2.329   4.581  11.888  0.6018  0.7191  2.1511
15765TIP3    H268787   2.391   4.719  11.895  1.7442  0.3508 -0.0249
15766TIP3   OH268788   4.548   6.336   1.692 -0.0530  0.2925 -0.1199
15766TIP3    H168789   4.485   6.312   1.624 -1.1180  0.6484  0.6983
15766TIP3    H268790   4.598   6.256   1.708  0.1686  0.1878 -1.2533
15767TIP3   OH268791   5.106   1.764   2.008 -0.2597 -0.0119  0.0815
15767TIP3    H168792   5.058   1.774   2.091 -0.1251 -2.6307  0.5592
15767TIP3    H268793   5.197   1.754   2.035  0.0114  0.7592 -0.5297
15768TIP3   OH268794   6.363   1.128   6.032  0.0926  0.3378  0.0647
15768TIP3    H168795   6.291   1.067   6.044 -0.4370  0.9977  0.3036
15768TIP3    H268796   6.366   1.178   6.114  0.1067  1.0524 -0.3621
15769TIP3   OH268797   2.206   2.308  15.873 -0.9774 -0.0136  0.4707
15769TIP3    H168798   2.133   2.283  15.928 -0.2492  1.2616  2.0940
15769TIP3    H268799   2.279   2.319  15.933 -0.2334  1.7848 -0.6759
15770TIP3   OH268800   0.270   5.343  13.300  0.3853 -0.5611 -0.0882
15770TIP3    H168801   0.238   5.296  13.222 -0.7131  0.3187 -0.1993
15770TIP3    H268802   0.190   5.367  13.347  0.9276  0.9327  0.1105
15771TIP3   OH268803   2.007   4.544   5.376 -0.2824 -0.0471  0.2803
15771TIP3    H168804   2.019   4.609   5.446 -0.6875  0.8784 -0.4914
15771TIP3    H268805   2.051   4.583   5.300 -2.6511  0.5127 -0.8813
15772TIP3   OH268806   3.055   1.552  15.942  0.0913  0.5131  0.1753
15772TIP3    H168807   3.063   1.644  15.966  0.5671  0.5769 -0.2079
15772TIP3    H268808   2.985   1.518  15.997 -0.4611  1.2401 -0.0669
15773TIP3   OH268809   1.421   0.262   2.932  0.2554  0.5819  0.1649
15773TIP3    H168810   1.486   0.203   2.970 -0.4131 -0.1370  0.2276
15773TIP3    H268811   1.469   0.311   2.865  0.7923 -0.1545 -0.0007
15774TIP3   OH268812   4.988   0.164  15.990  0.0529  0.3263  0.5076
15774TIP3    H168813   5.044   0.098  15.949  0.6390  0.8179  0.5129
15774TIP3    H268814   5.020   0.170  16.080 -0.6908 -0.1477  0.8118
15775TIP3   OH268815   5.878   2.580  12.876 -0.0167  0.1301 -0.2541
15775TIP3    H168816   5.951   2.525  12.850 -0.0016  0.3187 -0.6186
15775TIP3    H268817   5.915   2.640  12.941 -0.0979 -0.4631  0.3607
15776TIP3   OH268818   4.002   4.701  12.369 -0.1519  0.0658 -0.3016
15776TIP3    H168819   3.991   4.720  12.462  2.4095 -0.2734  0.1409
15776TIP3    H268820   3.956   4.618  12.357 -0.4978  0.1002  0.6638
15777TIP3   OH268821   1.879   2.597  11.506  0.3429 -0.1453 -0.6769
15777TIP3    H168822   1.912   2.523  11.557 -0.0529  0.9984  1.3620
15777TIP3    H268823   1.950   2.661  11.507 -0.4282  0.7385  0.3334
15778TIP3   OH268824   4.712   0.030   4.060  0.1455  0.7816 -0.4935
15778TIP3    H168825   4.758   0.096   4.111  0.5908 -0.1355  0.3217
15778TIP3    H268826   4.636   0.076   4.024 -1.1768  1.0896  2.4421
15779TIP3   OH268827   3.874   0.388   5.825 -0.4628 -0.0797  0.0387
15779TIP3    H168828   3.842   0.452   5.888 -0.4354 -0.2175  0.1956
15779TIP3    H268829   3.797   0.337   5.801 -0.6802  0.6345 -0.8364
15780TIP3   OH268830   2.461   3.724   4.482  0.2732 -0.3954 -0.0118
15780TIP3    H168831   2.515   3.656   4.441  1.2758 -0.1796  0.8801
15780TIP3    H268832   2.455   3.697   4.574 -0.7990 -0.1884 -0.0143
15781TIP3   OH268833   0.501   4.341  12.016  0.3613  0.2389  0.2237
15781TIP3    H168834   0.531   4.250  12.023  2.7907  0.8303 -1.2120
15781TIP3    H268835   0.496   4.371  12.107 -1.6489 -1.5951  0.8006
15782TIP3   OH268836   1.621   6.454   2.786  0.0544 -0.2924  0.5804
15782TIP3    H168837   1.671   6.532   2.810  0.1166  0.0445 -0.6203
15782TIP3    H268838   1.532   6.486   2.772 -0.1283 -0.6058  0.9832
15783TIP3   OH268839   0.569   6.150  15.440  0.0370  0.3774 -0.0660
15783TIP3    H168840   0.660   6.126  15.456 -0.1709 -1.5407 -1.3232
15783TIP3    H268841   0.527   6.147  15.526  0.7267 -0.8861  0.2460
15784TIP3   OH268842   1.484   2.431   4.830 -0.0546 -0.5260 -0.1115
15784TIP3    H168843   1.504   2.379   4.753 -0.0080 -0.0779 -0.4097
15784TIP3    H268844   1.436   2.507   4.796  0.9695  0.2713  0.1422
15785TIP3   OH268845   6.808   3.562   5.139  0.3804  0.1597 -0.2860
15785TIP3    H168846   6.886   3.591   5.186  0.1022  1.2843 -0.4992
15785TIP3    H268847   6.799   3.624   5.067 -0.6886  0.0233 -0.2807
15786TIP3   OH268848   2.254   2.159  14.958  0.1730  0.4471  0.2952
15786TIP3    H168849   2.259   2.069  14.927  1.7843  0.2777  0.9307
15786TIP3    H268850   2.190   2.201  14.901  0.7748 -0.6281 -1.2399
15787TIP3   OH268851   0.583   1.166   2.603 -0.3782  0.0449  0.4289
15787TIP3    H168852   0.542   1.252   2.592  0.9172  0.6018 -0.2305
15787TIP3    H268853   0.652   1.180   2.668 -0.1306 -0.4902  0.2903
15788TIP3   OH268854   4.616   4.518   0.376  0.0760 -0.4066  0.1303
15788TIP3    H168855   4.574   4.583   0.433  3.5065  0.7516  1.6006
15788TIP3    H268856   4.573   4.530   0.291 -2.9956  0.0751  1.6117
15789TIP3   OH268857   5.279   5.439  13.274 -0.1952  0.9772 -0.1165
15789TIP3    H168858   5.206   5.421  13.334  1.2096 -1.2856  1.0765
15789TIP3    H268859   5.283   5.361  13.219  2.0446  0.4357  0.7030
15790TIP3   OH268860   4.637   2.978  16.762  0.0858  0.6719  0.4321
15790TIP3    H168861   4.676   3.040  16.700 -2.5057  1.0066 -0.9546
15790TIP3    H268862   4.591   3.033  16.825  0.2729  0.2155  0.9801
15791TIP3   OH268863   5.149   4.282  13.535 -0.0020 -0.6226  0.3132
15791TIP3    H168864   5.212   4.321  13.474 -1.5650  0.2327 -0.8321
15791TIP3    H268865   5.096   4.225  13.481 -0.6036 -0.8731  1.1499
15792TIP3   OH268866   4.539   5.318  11.015  0.4687 -0.0495 -0.8613
15792TIP3    H168867   4.535   5.385  10.947  0.1811  0.4249 -0.3883
15792TIP3    H268868   4.449   5.287  11.023  0.2191  0.8758  0.2429
15793TIP3   OH268869   5.701   6.486   0.063  0.4244  0.0778 -0.6790
15793TIP3    H168870   5.751   6.548   0.011  0.6342 -0.9383 -1.7330
15793TIP3    H268871   5.764   6.449   0.125  0.7969 -0.5786 -1.4338
15794TIP3   OH268872   0.350   4.611  12.329 -0.7262 -0.4917  0.3114
15794TIP3    H168873   0.414   4.540  12.331 -1.1376 -0.8629  0.4949
15794TIP3    H268874   0.391   4.681  12.379 -0.4809 -0.7477  0.4753
15795TIP3   OH268875   6.145   0.401  15.285 -0.6075 -0.2828  0.3332
15795TIP3    H168876   6.090   0.323  15.273 -0.7300  0.1764 -2.7734
15795TIP3    H268877   6.082   0.472  15.300 -0.5821 -0.4567  1.3412
15796TIP3   OH268878   1.209   5.302  15.979 -0.2540  0.2620 -0.5599
15796TIP3    H168879   1.210   5.274  15.888 -3.2794  1.0439 -0.9618
15796TIP3    H268880   1.170   5.228  16.026  0.7272  0.0988  0.0305
15797TIP3   OH268881   2.505   0.931  14.033  0.1878 -0.4725  0.4243
15797TIP3    H168882   2.524   0.874  13.958  1.6269  0.3402  0.1346
15797TIP3    H268883   2.559   0.896  14.104  0.6305  0.1645  0.4076
15798TIP3   OH268884   3.895   3.324   3.118 -0.3561  0.5909  0.7980
15798TIP3    H168885   3.922   3.262   3.051 -2.2820 -0.0420  0.5539
15798TIP3    H268886   3.827   3.377   3.077  1.7194  3.5006  0.7330
15799TIP3   OH268887   3.667   4.262   2.693  1.0343 -0.2608  0.7055
15799TIP3    H168888   3.606   4.200   2.652  1.1306 -0.4925  0.9126
15799TIP3    H268889   3.723   4.207   2.748  1.9250 -0.1545 -0.0631
15800TIP3   OH268890   6.424   6.382  12.068 -0.3949 -0.0463  0.2513
15800TIP3    H168891   6.417   6.456  12.008  0.3900 -0.1542  0.0082
15800TIP3    H268892   6.406   6.305  12.014  2.1745 -0.3151 -0.3576
15801TIP3   OH268893   0.286   4.850  13.628  0.6009 -0.1080  0.6848
15801TIP3    H168894   0.365   4.823  13.582  0.3325  1.4608 -0.7995
15801TIP3    H268895   0.317   4.879  13.714  1.5838  0.0539  0.2866
15802TIP3   OH268896   3.003   1.626  13.276  0.2101 -0.3967 -0.6472
15802TIP3    H168897   2.954   1.549  13.247  2.1636 -1.3216 -1.7348
15802TIP3    H268898   2.942   1.699  13.266 -1.2024 -1.5873 -1.0686
15803TIP3   OH268899   5.060   6.253  10.837  0.0977 -0.0210  0.1872
15803TIP3    H168900   5.131   6.299  10.882 -0.9297  0.6304  1.2008
15803TIP3    H268901   5.022   6.196  10.904 -1.9384  1.5105  0.4262
15804TIP3   OH268902   5.707   0.107  14.776 -0.0668 -0.3379  0.7420
15804TIP3    H168903   5.660   0.024  14.785 -0.2076 -0.4785 -0.9344
15804TIP3    H268904   5.642   0.167  14.737  0.8104 -0.2608 -0.6806
15805TIP3   OH268905   2.078   6.190   1.591  0.3547  0.0485  0.0265
15805TIP3    H168906   1.989   6.165   1.565 -0.1691 -1.3634  2.7205
15805TIP3    H268907   2.121   6.215   1.510 -2.2342 -0.0490 -1.5000
15806TIP3   OH268908   6.849   5.338   1.619  0.1293  0.1244 -0.4122
15806TIP3    H168909   6.889   5.315   1.535 -0.0339  0.0820 -0.4771
15806TIP3    H268910   6.763   5.372   1.596  0.0931  0.1306 -0.2634
15807TIP3   OH268911   4.632   5.240   6.425  0.1802  0.1569  0.4034
15807TIP3    H168912   4.641   5.159   6.375 -0.4065  1.0496 -1.2279
15807TIP3    H268913   4.540   5.241   6.452 -0.1584  0.8755 -0.7124
15808TIP3   OH268914   2.640   5.054   6.395  0.1614 -0.5561 -0.4563
15808TIP3    H168915   2.677   5.095   6.317  0.5120 -0.8359 -0.4370
15808TIP3    H268916   2.712   5.004   6.433  1.0985  2.3573  2.0341
15809TIP3   OH268917   2.396   2.706  15.740  0.2030 -0.1082 -0.2934
15809TIP3    H168918   2.445   2.769  15.793 -0.4135 -0.4247  0.6674
15809TIP3    H268919   2.331   2.669  15.800  0.2110 -1.2810 -0.9782
15810TIP3   OH268920   4.031   5.054  14.836 -0.0534  0.6030 -0.6258
15810TIP3    H168921   4.064   5.142  14.848  0.6449  0.0827  1.7384
15810TIP3    H268922   4.033   5.040  14.741  0.4179  2.8583 -0.9916
15811TIP3   OH268923   0.955   6.060   6.145 -0.2463 -0.1504 -0.2180
15811TIP3    H168924   0.887   6.096   6.203 -0.6321 -1.7001  0.3357
15811TIP3    H268925   0.920   5.975   6.117  1.4240 -0.9351 -0.0145
15812TIP3   OH268926   1.675   3.585  10.905  0.0486  0.1423  0.2466
15812TIP3    H168927   1.613   3.532  10.855  1.3091  1.4734 -3.0153
15812TIP3    H268928   1.622   3.653  10.946 -0.8691  0.3748 -1.2575
15813TIP3   OH268929   3.889   1.881  15.678 -0.5540 -0.4044 -0.0928
15813TIP3    H168930   3.867   1.915  15.592  0.0332 -0.3632 -0.2300
15813TIP3    H268931   3.848   1.942  15.740  0.7340  0.7586 -0.3304
15814TIP3   OH268932   3.388   0.904  10.389  0.1317 -0.2936  0.6996
15814TIP3    H168933   3.318   0.943  10.337 -0.4937 -0.7654  1.1666
15814TIP3    H268934   3.372   0.810  10.384  0.4493 -0.3796  1.2028
15815TIP3   OH268935   5.946   0.101   0.273 -0.3234 -1.0545 -0.7059
15815TIP3    H168936   5.919   0.193   0.274 -1.4353 -1.3436 -1.6001
15815TIP3    H268937   6.030   0.101   0.227 -0.8312 -0.5892 -1.6661
15816TIP3   OH268938   0.157   3.801  13.230 -0.1440  0.0944  0.2227
15816TIP3    H168939   0.205   3.804  13.313  1.3117 -0.4579 -0.5633
15816TIP3    H268940   0.079   3.853  13.246  0.4432  0.5743  1.7352
15817TIP3   OH268941   5.561   5.020  12.144  0.2983  0.0935  0.3705
15817TIP3    H168942   5.655   5.034  12.156  0.3845  0.3818 -0.5863
15817TIP3    H268943   5.520   5.099  12.178  0.3453 -0.3147  1.4215
15818TIP3   OH268944   0.884   2.393  12.827  0.7199 -0.6230 -0.0279
15818TIP3    H168945   0.871   2.354  12.913 -0.5254 -1.3322 -0.5003
15818TIP3    H268946   0.863   2.322  12.765  1.7335 -0.1760 -0.9201
15819TIP3   OH268947   5.611   3.947  14.327 -0.1408 -0.2046 -0.1339
15819TIP3    H168948   5.536   4.006  14.318  0.4070  0.7224  1.0994
15819TIP3    H268949   5.628   3.944  14.422 -0.1260 -2.3226 -0.1675
15820TIP3   OH268950   1.103   5.898  11.006 -0.0548 -0.1660  0.3216
15820TIP3    H168951   1.156   5.845  11.066  0.6632  0.6745  0.4461
15820TIP3    H268952   1.060   5.962  11.062  0.4579  0.4902 -0.0258
15821TIP3   OH268953   1.505   2.036  16.176  0.0169 -0.0801  0.6347
15821TIP3    H168954   1.510   2.016  16.083 -0.1653  0.4194  0.5153
15821TIP3    H268955   1.539   1.958  16.219 -1.7625 -1.1291  0.2418
15822TIP3   OH268956   1.190   2.581  14.466 -0.3882 -0.4909  0.6570
15822TIP3    H168957   1.194   2.535  14.550 -0.7855  0.1725  1.0405
15822TIP3    H268958   1.282   2.598  14.443 -0.3360  1.1269  1.9523
15823TIP3   OH268959   4.063   1.054  14.348 -0.1392  0.1056  0.7881
15823TIP3    H168960   4.124   1.062  14.275 -3.2934  0.9581 -1.9862
15823TIP3    H268961   4.046   1.145  14.375 -1.0000 -0.0387  0.7506
15824TIP3   OH268962   2.898   2.820   3.034  0.4099  0.3651  0.2792
15824TIP3    H168963   2.849   2.884   2.982 -2.7627 -1.7174  0.3782
15824TIP3    H268964   2.842   2.803   3.110  0.8490 -2.7075  0.0672
15825TIP3   OH268965   0.258   3.747   4.477 -0.5597  0.3268  0.2024
15825TIP3    H168966   0.337   3.783   4.517  1.0076 -2.4811 -0.0808
15825TIP3    H268967   0.204   3.719   4.551 -0.6972  1.0344  0.3778
15826TIP3   OH268968   4.483   0.431  13.954  0.1494  0.1966  0.3993
15826TIP3    H168969   4.471   0.499  13.888 -1.7966 -1.2539 -0.8595
15826TIP3    H268970   4.477   0.478  14.038 -2.5458  1.4821 -0.3793
15827TIP3   OH268971   5.268   1.923   3.360 -0.0290  0.1730 -0.3677
15827TIP3    H168972   5.321   1.944   3.284  0.0273 -3.3159 -1.4635
15827TIP3    H268973   5.178   1.916   3.326 -0.0631 -1.0090 -0.0893
15828TIP3   OH268974   4.188   4.751  14.464  0.3414 -0.5581 -0.0543
15828TIP3    H168975   4.119   4.685  14.458  0.2864 -0.7674  2.1566
15828TIP3    H268976   4.142   4.831  14.489  0.7190 -0.2880 -0.2163
15829TIP3   OH268977   5.508   3.573  13.479  0.5849 -0.5154 -0.0877
15829TIP3    H168978   5.491   3.493  13.528 -1.4765  1.0219  1.9809
15829TIP3    H268979   5.602   3.573  13.463  0.7275 -3.0039  0.3743
15830TIP3   OH268980   4.552   5.157   2.131 -0.1339  0.4654  0.6923
15830TIP3    H168981   4.501   5.231   2.098 -1.2782  0.5801  2.6214
15830TIP3    H268982   4.488   5.100   2.173  1.0246 -0.5774  1.0960
15831TIP3   OH268983   3.809   5.136   2.549 -0.4095  0.1025  0.4984
15831TIP3    H168984   3.717   5.114   2.534 -0.6281  0.6755  0.9600
15831TIP3    H268985   3.816   5.228   2.527  0.9306 -0.7379 -3.3239
15832TIP3   OH268986   6.548   6.175   0.961  1.0181 -0.1994  0.1599
15832TIP3    H168987   6.544   6.103   0.898  2.3019  1.3982 -1.8828
15832TIP3    H268988   6.636   6.170   0.998  0.9754  0.0680  0.3001
15833TIP3   OH268989   0.589   5.100   1.175  1.0294  0.3659 -0.5010
15833TIP3    H168990   0.540   5.038   1.122  1.5081 -0.0211 -0.5043
15833TIP3    H268991   0.596   5.058   1.261 -0.9371  1.5870  0.3170
15834TIP3   OH268992   3.659   0.384  16.763  0.7078 -0.4377 -0.1938
15834TIP3    H168993   3.618   0.306  16.725 -0.8812  0.3146 -0.0821
15834TIP3    H268994   3.669   0.363  16.856 -0.2966 -0.2783 -0.0447
15835TIP3   OH268995   3.202   2.196  16.921  0.2791  0.0613 -0.8304
15835TIP3    H168996   3.133   2.202  16.855 -1.2897 -0.7156  0.6449
15835TIP3    H268997   3.177   2.120  16.975  0.3629  1.8016  1.8521
15836TIP3   OH268998   2.666   1.086   2.856  0.0616  0.2742 -1.1190
15836TIP3    H168999   2.672   1.180   2.837 -0.6819  0.6672  0.4356
15836TIP3    H269000   2.706   1.076   2.942  1.4138 -1.0941 -1.8467
15837TIP3   OH269001   0.976   1.282  12.596 -0.2253 -0.0886  0.5318
15837TIP3    H169002   0.993   1.288  12.690  0.3924 -1.5658  0.5474
15837TIP3    H269003   0.913   1.351  12.578 -1.4858 -0.7096  2.3200
15838TIP3   OH269004   0.615   4.723   4.184 -0.3585 -0.1537 -0.0480
15838TIP3    H169005   0.661   4.639   4.172 -1.6339 -1.1636  1.7790
15838TIP3    H269006   0.678   4.777   4.231  0.9961  0.4696 -2.4160
15839TIP3   OH269007   1.498   2.295  12.064 -0.3387  0.0373  0.0877
15839TIP3    H169008   1.480   2.335  11.979 -0.2642  1.2269  0.6157
15839TIP3    H269009   1.590   2.315  12.081  0.0110 -1.2895 -0.1028
15840TIP3   OH269010   3.218   5.437  13.691  0.1144 -0.1273 -0.4372
15840TIP3    H169011   3.164   5.456  13.767 -0.8809 -0.8491 -0.9443
15840TIP3    H269012   3.189   5.499  13.624  1.9307  1.4550  0.1405
15841TIP3   OH269013   4.396   0.547  12.821  0.0056 -0.5753  0.0036
15841TIP3    H169014   4.343   0.552  12.900 -0.7767 -0.1597 -0.5376
15841TIP3    H269015   4.471   0.604  12.837  0.2394 -1.0758  0.7263
15842TIP3   OH269016   0.863   2.672  16.833 -0.4136  0.1041 -0.2016
15842TIP3    H169017   0.956   2.649  16.830 -0.5100 -0.2428 -2.6536
15842TIP3    H269018   0.823   2.604  16.887  0.4864 -0.9771 -0.8400
15843TIP3   OH269019   0.135   4.699  11.533  0.3030 -0.0241  0.1162
15843TIP3    H169020   0.166   4.662  11.450  0.7118  0.9646 -0.1848
15843TIP3    H269021   0.196   4.666  11.599 -0.0588 -0.8643  0.0461
15844TIP3   OH269022   5.608   6.806  11.748  0.3217 -0.3435  0.7418
15844TIP3    H169023   5.556   6.878  11.784  0.7557 -0.0072  0.7044
15844TIP3    H269024   5.622   6.747  11.822  0.9782  0.2086  1.0661
15845TIP3   OH269025   1.871   5.643   1.273 -0.2192 -0.9074 -0.1953
15845TIP3    H169026   1.874   5.640   1.368 -1.9192 -1.4783 -0.1265
15845TIP3    H269027   1.804   5.708   1.252  0.0545 -0.8665 -0.9892
15846TIP3   OH269028   4.520   3.294  16.301  0.3025 -0.1530 -0.3734
15846TIP3    H169029   4.605   3.252  16.308  0.0052 -0.7925 -0.5091
15846TIP3    H269030   4.458   3.227  16.328 -0.1650  0.3022 -0.2887
15847TIP3   OH269031   5.710   2.371   2.244 -0.1862 -0.7713  0.0522
15847TIP3    H169032   5.634   2.331   2.286  0.6858 -1.5993  0.8905
15847TIP3    H269033   5.729   2.448   2.297 -0.4927 -0.5000 -0.2242
15848TIP3   OH269034   1.632   0.475  14.713  0.1452 -0.2485 -0.7638
15848TIP3    H169035   1.563   0.463  14.778 -0.8863  0.9462 -1.5900
15848TIP3    H269036   1.710   0.495  14.763  0.3590 -3.2645  0.3078
15849TIP3   OH269037   6.414   6.329  15.978 -0.7001  0.6528  0.6844
15849TIP3    H169038   6.349   6.390  15.942 -0.4927  1.7844  2.1372
15849TIP3    H269039   6.409   6.343  16.072  0.7685 -0.1672  0.8993
15850TIP3   OH269040   4.013   6.052   2.457 -1.1711 -0.4474 -0.1095
15850TIP3    H169041   4.085   6.073   2.397 -0.4399 -0.4544  0.7477
15850TIP3    H269042   4.053   5.995   2.523 -1.6522  0.5559  1.0869
15851TIP3   OH269043   4.702   5.140   5.498 -0.3570  0.0861  0.7228
15851TIP3    H169044   4.685   5.046   5.494 -1.6317  0.3088  0.3998
15851TIP3    H269045   4.707   5.168   5.406  1.5133  0.1128  0.7929
15852TIP3   OH269046   5.279   0.802  14.574  0.3280 -0.0646 -0.4195
15852TIP3    H169047   5.374   0.813  14.574  0.3070  0.2906  0.5840
15852TIP3    H269048   5.266   0.707  14.579  0.6353 -0.1090 -0.4439
15853TIP3   OH269049   4.852   6.687  14.393  0.0405  0.1236 -0.4471
15853TIP3    H169050   4.815   6.629  14.460 -0.0580  2.1150  1.3423
15853TIP3    H269051   4.807   6.663  14.313 -1.2206 -1.1256  0.5856
15854TIP3   OH269052   5.156   4.162   5.928 -0.0094 -0.0666 -0.5595
15854TIP3    H169053   5.177   4.103   6.000  0.3514  0.4932 -0.2041
15854TIP3    H269054   5.233   4.217   5.919 -0.9288  1.3756  0.1269
15855TIP3   OH269055   1.657   4.347  16.377  0.0991  0.1056  0.2458
15855TIP3    H169056   1.686   4.437  16.366  1.9111 -0.3478  1.0555
15855TIP3    H269057   1.630   4.320  16.289 -0.2439  1.3323 -0.0471
15856TIP3   OH269058   4.072   5.319  16.395 -0.0020 -0.0815 -0.8704
15856TIP3    H169059   4.083   5.384  16.325 -0.4827 -0.9705 -1.7949
15856TIP3    H269060   4.026   5.367  16.464 -1.5310  0.2579 -2.0559
15857TIP3   OH269061   2.966   2.365  11.246  0.0269  0.1010 -0.3013
15857TIP3    H169062   3.046   2.379  11.196 -0.0754 -1.9990 -1.1357
15857TIP3    H269063   2.990   2.384  11.337  1.9214 -1.8758 -0.3210
15858TIP3   OH269064   5.252   2.638  16.288 -0.7573  0.1595  0.4006
15858TIP3    H169065   5.319   2.610  16.349 -0.7320 -0.9060 -0.0949
15858TIP3    H269066   5.214   2.557  16.254 -0.0549  0.6711 -1.7781
15859TIP3   OH269067   4.104   0.711  15.893 -0.3535  0.2334 -0.8996
15859TIP3    H169068   4.039   0.779  15.913 -0.5219 -0.0420 -0.4841
15859TIP3    H269069   4.085   0.641  15.956 -0.1094 -0.1500 -1.2465
15860TIP3   OH269070   1.277   6.847  14.976  0.0096  0.8642 -0.4168
15860TIP3    H169071   1.254   6.765  14.933 -0.8754  0.4291  0.8268
15860TIP3    H269072   1.368   6.863  14.951  1.0109 -1.7461  1.1386
15861TIP3   OH269073   5.314   6.609  15.482  0.3520  0.3111 -0.2250
15861TIP3    H169074   5.376   6.563  15.539 -0.9860 -2.4882 -0.8427
15861TIP3    H269075   5.228   6.587  15.518 -0.4623 -0.2846 -2.3736
15862TIP3   OH269076   3.432   5.095  16.740 -0.1220 -0.2445  0.2843
15862TIP3    H169077   3.394   5.126  16.822 -0.6865 -0.4237  0.0941
15862TIP3    H269078   3.368   5.033  16.706  0.4720 -0.7576  0.0909
15863TIP3   OH269079   0.776   4.119  14.139  0.4842 -0.4573  0.6015
15863TIP3    H169080   0.725   4.088  14.215  1.3281 -0.7397  1.0639
15863TIP3    H269081   0.807   4.206  14.165 -1.0661  0.4250 -0.3148
15864TIP3   OH269082   0.436   0.082  14.086  0.3344 -0.2958  0.2968
15864TIP3    H169083   0.430   0.018  14.157 -1.3233 -1.6826 -1.0097
15864TIP3    H269084   0.368   0.056  14.025 -0.8708  3.1416 -0.0123
15865TIP3   OH269085   4.331   4.784  13.334  0.0935  0.0051  0.3501
15865TIP3    H169086   4.372   4.749  13.413  1.9794  0.6116 -0.3100
15865TIP3    H269087   4.380   4.744  13.262 -1.6962 -0.6560 -0.5538
15866TIP3   OH269088   1.257   6.343  12.564 -0.1537  0.0421 -0.5618
15866TIP3    H169089   1.280   6.284  12.492 -1.0807  0.1876 -0.9798
15866TIP3    H269090   1.311   6.421  12.549  1.3548 -0.8045  0.1960
15867TIP3   OH269091   1.320   0.476  13.037  0.5787  0.4730 -0.4211
15867TIP3    H169092   1.251   0.484  13.102  0.4726  0.3540 -0.5190
15867TIP3    H269093   1.275   0.470  12.954  0.5388 -2.3821 -0.2920
15868TIP3   OH269094   6.633   2.406   3.695 -0.2508 -0.0444  0.0222
15868TIP3    H169095   6.658   2.347   3.766 -1.7559  0.0326  0.6375
15868TIP3    H269096   6.657   2.493   3.726 -0.6715 -0.0371  0.3210
15869TIP3   OH269097   4.163   4.717   1.636  0.1144 -0.0520  0.0234
15869TIP3    H169098   4.190   4.674   1.717  0.7516  1.0341  0.4050
15869TIP3    H269099   4.149   4.808   1.661 -0.9849  0.0337 -0.8206
15870TIP3   OH269100   0.003   6.325   1.422 -0.1642 -0.3328  0.2807
15870TIP3    H169101   0.016   6.275   1.502 -3.6313 -0.4755  0.8835
15870TIP3    H269102   0.027   6.415   1.446  0.6670 -0.6961  0.8655
15871TIP3   OH269103   0.777   6.630  13.426  0.1145 -0.0468 -0.4483
15871TIP3    H169104   0.730   6.547  13.435 -2.5332  1.3191 -0.7629
15871TIP3    H269105   0.864   6.605  13.396  1.0764 -3.0337  3.8819
15872TIP3   OH269106   1.449   6.078  16.384  0.5281 -0.7232  0.0946
15872TIP3    H169107   1.426   6.053  16.294 -0.3004 -1.8850  0.5991
15872TIP3    H269108   1.531   6.127  16.375  0.1389 -0.2900 -1.3478
15873TIP3   OH269109   1.999   4.555   0.166  0.5715 -0.6248  0.1416
15873TIP3    H169110   2.090   4.559   0.138  0.7978  1.8343  1.0050
15873TIP3    H269111   1.949   4.541   0.086  1.5080  1.5681 -0.9069
15874TIP3   OH269112   2.581   0.699   4.643 -0.0180  0.2355 -0.1319
15874TIP3    H169113   2.577   0.792   4.662  0.3564 -0.1321  1.9552
15874TIP3    H269114   2.550   0.691   4.552 -1.4764  2.2145  0.1475
15875TIP3   OH269115   2.844   6.828  16.411  0.5947  0.4860 -0.2510
15875TIP3    H169116   2.840   6.885  16.487 -0.1782  0.1860 -0.0628
15875TIP3    H269117   2.932   6.791  16.414 -0.1012 -1.2038  1.7437
15876TIP3   OH269118   3.183   4.372   1.297  0.2836  0.7325  0.4509
15876TIP3    H169119   3.240   4.390   1.371  1.7868  1.0597 -0.7303
15876TIP3    H269120   3.124   4.303   1.327  0.4480  1.2922  2.1274
15877TIP3   OH269121   3.562   1.659   1.799 -0.1925 -0.7323  0.5342
15877TIP3    H169122   3.484   1.711   1.778 -0.5930 -1.5700 -0.1232
15877TIP3    H269123   3.575   1.603   1.722 -0.2958 -2.2127  1.5515
15878TIP3   OH269124   0.355   4.269  14.825  0.0689  0.2483  0.2187
15878TIP3    H169125   0.312   4.328  14.762  1.5946  0.4251 -0.7064
15878TIP3    H269126   0.408   4.211  14.771  1.4200  0.3932  1.3323
15879TIP3   OH269127   4.016   1.198   5.323 -0.2080 -0.2839  0.2075
15879TIP3    H169128   4.087   1.262   5.336 -0.3388 -0.0208 -0.3387
15879TIP3    H269129   4.033   1.130   5.388  0.1304  0.1388  0.5727
15880TIP3   OH269130   6.517   2.522  13.657 -0.0012  0.1217 -0.4437
15880TIP3    H169131   6.424   2.513  13.637 -0.2649  1.5707  0.0472
15880TIP3    H269132   6.520   2.542  13.751  0.8800 -0.8379 -0.2389
15881TIP3   OH269133   5.370   0.182  11.258 -0.6106  0.2881  0.0689
15881TIP3    H169134   5.418   0.259  11.229  1.2206 -0.6172  0.5026
15881TIP3    H269135   5.343   0.138  11.178  1.1132 -0.2286 -0.2714
15882TIP3   OH269136   2.318   4.307  10.579  0.8644  0.1198  0.5758
15882TIP3    H169137   2.268   4.377  10.622 -1.4046 -1.3512  0.4990
15882TIP3    H269138   2.359   4.259  10.651  2.9360  1.7686  0.6060
15883TIP3   OH269139   3.122   1.516  16.438 -0.0925 -0.2027  0.3149
15883TIP3    H169140   3.046   1.467  16.407  0.0222 -0.0132 -0.2773
15883TIP3    H269141   3.101   1.607  16.423  0.0456 -0.1141  0.6308
15884TIP3   OH269142   5.629   3.907   2.886  0.1946  0.2531 -0.6392
15884TIP3    H169143   5.633   3.825   2.836  2.1050  0.4764 -0.9341
15884TIP3    H269144   5.555   3.895   2.946 -0.0190 -1.3934 -1.1745
15885TIP3   OH269145   4.448   4.967  11.951  0.9749  0.3125 -0.1177
15885TIP3    H169146   4.448   4.955  11.856 -1.3452  0.0237 -0.1549
15885TIP3    H269147   4.422   4.882  11.986 -1.1166  1.1532  0.5382
15886TIP3   OH269148   4.553   2.488   2.178  0.1998  0.0039  0.3662
15886TIP3    H169149   4.531   2.578   2.201 -0.4125  0.3406 -1.3929
15886TIP3    H269150   4.576   2.491   2.085  2.5505 -1.2683  0.8277
15887TIP3   OH269151   5.167   4.184  15.515 -0.4455 -0.2865 -0.0248
15887TIP3    H169152   5.099   4.216  15.456 -0.4723  0.5436  0.4483
15887TIP3    H269153   5.224   4.259  15.529  1.0601 -1.1852 -1.0632
15888TIP3   OH269154   0.509   6.533  16.522 -0.0900 -0.3385 -0.7620
15888TIP3    H169155   0.481   6.512  16.611 -0.0485 -0.3509 -0.7523
15888TIP3    H269156   0.435   6.506  16.467  0.0438 -0.7062 -0.7690
15889TIP3   OH269157   2.540   4.731  12.958  0.0674  0.2052  0.3745
15889TIP3    H169158   2.598   4.773  13.022 -0.0006  0.0187  0.5601
15889TIP3    H269159   2.495   4.663  13.008 -0.7132  0.6992  0.3651
15890TIP3   OH269160   3.335   0.138   5.028 -0.2423  0.0736 -0.4849
15890TIP3    H169161   3.416   0.110   4.985  0.1403  0.9778 -0.3871
15890TIP3    H269162   3.347   0.232   5.042 -0.2910 -0.2000  1.7309
15891TIP3   OH269163   5.557   4.678   3.350 -0.0286 -0.1216 -0.2038
15891TIP3    H169164   5.526   4.601   3.302 -0.8904  1.5411 -2.5116
15891TIP3    H269165   5.629   4.712   3.296  0.8348  0.3034  1.1724
15892TIP3   OH269166   4.805   0.228  14.117  0.5652  0.0784  0.0047
15892TIP3    H169167   4.866   0.184  14.177  1.1694  0.8938  0.0050
15892TIP3    H269168   4.737   0.265  14.173  0.2138 -0.5946  0.0302
15893TIP3   OH269169   3.831   1.790  16.128  0.1243  0.6744  0.0256
15893TIP3    H169170   3.867   1.721  16.183 -0.5089 -0.4948 -0.9898
15893TIP3    H269171   3.822   1.750  16.041 -2.8017  1.1256  0.0171
15894TIP3   OH269172   4.717   2.115   0.463  0.1750  0.2643 -0.2868
15894TIP3    H169173   4.682   2.142   0.378 -0.6915  0.2609  0.0685
15894TIP3    H269174   4.783   2.048   0.441  1.4097  1.6633 -1.0870
15895TIP3   OH269175   6.436   6.846   0.602 -1.0710 -0.1718 -0.4838
15895TIP3    H169176   6.393   6.761   0.608  0.0103 -0.7971 -1.2541
15895TIP3    H269177   6.522   6.827   0.565  1.0757  0.6660  3.5254
15896TIP3   OH269178   2.673   6.055  11.354  0.0679  0.5407 -0.4123
15896TIP3    H169179   2.711   5.979  11.309  1.6769  1.4913 -0.7779
15896TIP3    H269180   2.696   6.129  11.298 -1.7651  1.2893 -0.2438
15897TIP3   OH269181   1.863   1.975  16.588 -0.0932  0.3112 -0.1619
15897TIP3    H169182   1.832   2.066  16.584 -0.2209  0.2826  0.1393
15897TIP3    H269183   1.953   1.982  16.619 -0.5637  0.2554  1.3032
15898TIP3   OH269184   6.521   4.415  11.563  0.3316 -0.2954  0.3145
15898TIP3    H169185   6.502   4.400  11.656  1.2101 -0.9049  0.4042
15898TIP3    H269186   6.611   4.447  11.562  0.0129  0.6006 -0.2657
15899TIP3   OH269187   1.334   4.358   1.788 -0.1880  0.6280 -0.0677
15899TIP3    H169188   1.395   4.407   1.844  1.2669 -1.7653  0.5565
15899TIP3    H269189   1.369   4.370   1.700 -1.1458  2.4760 -0.2539
15900TIP3   OH269190   2.325   3.354  15.598 -0.1279  0.6389  0.1623
15900TIP3    H169191   2.276   3.311  15.527 -0.5719  0.0981  0.7771
15900TIP3    H269192   2.318   3.293  15.671  1.7109  0.4274  0.1994
15901TIP3   OH269193   0.728   3.409   6.066  0.7053 -0.4615  0.0937
15901TIP3    H169194   0.673   3.473   6.111  0.8057  0.7324 -1.4006
15901TIP3    H269195   0.818   3.438   6.081  0.8743 -1.4129  1.0654
15902TIP3   OH269196   1.879   0.960   2.180 -0.1661 -0.0891 -0.2442
15902TIP3    H169197   1.943   1.022   2.146  0.7114  0.5546  2.3863
15902TIP3    H269198   1.894   0.880   2.128  2.3848  0.2197 -0.1166
15903TIP3   OH269199   2.300   2.876   4.463 -0.0215  0.0535  0.2616
15903TIP3    H169200   2.365   2.811   4.490  0.7600  1.2624  1.4066
15903TIP3    H269201   2.233   2.825   4.417  0.0275 -1.7223  2.0274
15904TIP3   OH269202   2.591   2.842   1.147 -0.3473  0.2366  0.5150
15904TIP3    H169203   2.541   2.767   1.181 -2.1817  0.5211 -1.3439
15904TIP3    H269204   2.671   2.843   1.200 -1.2058 -1.7421  2.0060
15905TIP3   OH269205   2.253   1.427  13.505  0.0452  0.3620  0.5121
15905TIP3    H169206   2.219   1.515  13.518  1.0144  0.7261  0.7241
15905TIP3    H269207   2.229   1.379  13.584 -2.9966 -0.4530 -0.7738
15906TIP3   OH269208   2.849   2.577   6.042 -0.1410 -0.2722  0.6208
15906TIP3    H169209   2.933   2.538   6.067  0.8089 -0.2475 -2.2327
15906TIP3    H269210   2.860   2.670   6.063  0.3631 -0.3486  0.7244
15907TIP3   OH269211   2.066   4.476  14.845 -0.0533 -0.1473  0.1278
15907TIP3    H169212   2.048   4.446  14.934  1.0190 -0.9928  0.0782
15907TIP3    H269213   2.055   4.399  14.790 -4.3731  1.0301 -1.1234
15908TIP3   OH269214   1.883   5.755  12.008 -0.0288 -0.3933  0.1294
15908TIP3    H169215   1.834   5.826  12.050  1.9470  0.6307  0.8200
15908TIP3    H269216   1.963   5.748  12.060 -0.3024 -3.4060  0.3121
15909TIP3   OH269217   4.349   6.381  13.763  1.0828  0.1211  0.5519
15909TIP3    H169218   4.377   6.305  13.813  1.9900  0.1882  0.1680
15909TIP3    H269219   4.316   6.345  13.681  0.0513  0.0467  0.9788
15910TIP3   OH269220   3.917   0.597  12.241  0.0982 -0.3472  0.2719
15910TIP3    H169221   3.986   0.623  12.179 -0.8923  0.5451 -0.4938
15910TIP3    H269222   3.946   0.512  12.275  0.0346 -1.5278 -2.4235
15911TIP3   OH269223   1.066   4.969   0.994 -0.1800 -0.3700  0.9531
15911TIP3    H169224   1.096   5.016   0.916 -1.1583 -0.6257  0.4106
15911TIP3    H269225   0.992   5.021   1.027 -0.5414 -0.9080  1.0066
15912TIP3   OH269226   0.594   3.667  13.994  0.6008  0.1915  0.1155
15912TIP3    H169227   0.632   3.697  14.076  2.2828 -1.1242 -0.1328
15912TIP3    H269228   0.574   3.747  13.946  0.2265  0.9637  1.5145
15913TIP3   OH269229   5.787   2.582  15.680  0.4234 -0.1030 -0.2046
15913TIP3    H169230   5.745   2.496  15.681  0.1208  0.0377 -0.5979
15913TIP3    H269231   5.791   2.605  15.587  1.5874 -0.2195 -0.1973
15914TIP3   OH269232   1.077   5.022   2.684  0.5426 -0.0850  0.1199
15914TIP3    H169233   1.173   5.015   2.681  0.5455  0.0182 -0.0608
15914TIP3    H269234   1.061   5.109   2.721  0.5211 -0.0216 -0.0361
15915TIP3   OH269235   1.203   2.879   2.059  0.0125 -0.4204 -0.1909
15915TIP3    H169236   1.289   2.839   2.047  0.5819  0.9040 -0.8435
15915TIP3    H269237   1.206   2.958   2.004 -1.0534  0.4858  0.9841
15916TIP3   OH269238   1.500   6.029  15.288  0.7450  0.0792  0.0357
15916TIP3    H169239   1.443   6.088  15.337  0.9291 -0.1494  0.5336
15916TIP3    H269240   1.544   5.976  15.355  2.1001  0.7454 -0.2841
15917TIP3   OH269241   4.714   1.345  11.171 -0.0093  0.1606 -0.0871
15917TIP3    H169242   4.654   1.380  11.105  0.5748  2.2391  0.4167
15917TIP3    H269243   4.698   1.397  11.249  1.4644 -0.1837  0.4858
15918TIP3   OH269244   1.228   0.505  15.920 -0.5180 -0.0626  0.0230
15918TIP3    H169245   1.298   0.456  15.963 -0.8817 -0.3658  0.2861
15918TIP3    H269246   1.251   0.597  15.933  0.5100 -0.1584 -1.0412
15919TIP3   OH269247   6.754   4.139   0.607  0.1371  0.2358  0.3289
15919TIP3    H169248   6.750   4.098   0.693  0.2274 -0.5669 -0.0340
15919TIP3    H269249   6.839   4.113   0.572  0.8120  1.9129  0.6408
15920TIP3   OH269250   4.622   2.238  14.877  0.3844 -0.4135  0.2261
15920TIP3    H169251   4.571   2.240  14.958  3.2489 -1.1685  2.2019
15920TIP3    H269252   4.632   2.145  14.857  0.6722 -0.2616 -0.3565
15921TIP3   OH269253   0.296   2.233   2.495 -0.4879 -0.0448  0.0356
15921TIP3    H169254   0.316   2.306   2.554  0.6133  0.5559 -1.0446
15921TIP3    H269255   0.310   2.154   2.548  0.3810  0.4806  0.6105
15922TIP3   OH269256   2.795   5.227  14.112  0.3356  0.4595 -0.0116
15922TIP3    H169257   2.866   5.164  14.123  0.5279  0.4297 -1.2042
15922TIP3    H269258   2.787   5.236  14.017 -0.6375  1.1656  0.1282
15923TIP3   OH269259   3.999   1.691   5.978  0.8569 -0.1879  0.3230
15923TIP3    H169260   3.907   1.716   5.982  1.1965  0.9606  1.5033
15923TIP3    H269261   4.013   1.668   5.886 -0.5171 -0.0606  0.0568
15924TIP3   OH269262   1.683   4.541  14.368 -0.0875 -0.0237 -0.1256
15924TIP3    H169263   1.614   4.497  14.318  0.2326 -2.1217  1.1669
15924TIP3    H269264   1.764   4.498  14.341  0.5135  1.2184 -0.3447
15925TIP3   OH269265   0.364   0.408   4.677  0.4222 -0.0341 -0.1969
15925TIP3    H169266   0.391   0.408   4.585 -0.3944 -0.6079 -0.4452
15925TIP3    H269267   0.271   0.429   4.674  0.0389 -1.5465  0.3811
15926TIP3   OH269268   4.979   4.647   6.284  0.9014 -0.2998 -0.2044
15926TIP3    H169269   4.958   4.687   6.369  0.9483  0.8096 -0.6923
15926TIP3    H269270   4.909   4.583   6.270  0.0806  0.5254  0.0267
15927TIP3   OH269271   2.562   6.733   2.907  0.0404 -0.3947  0.0122
15927TIP3    H169272   2.599   6.784   2.979 -2.5293  0.7305  0.6711
15927TIP3    H269273   2.528   6.654   2.949  0.9851 -1.0716 -0.4621
15928TIP3   OH269274   1.246   0.744  12.090  0.3902  0.2720  0.0709
15928TIP3    H169275   1.211   0.770  12.176 -0.7282  1.2860 -0.6569
15928TIP3    H269276   1.244   0.824  12.038  1.0924 -0.3170 -0.8980
15929TIP3   OH269277   2.015   0.362  12.549 -0.2708  0.1177  0.5514
15929TIP3    H169278   1.928   0.327  12.569 -0.9644  1.6417  0.4100
15929TIP3    H269279   2.016   0.371  12.454  0.2511 -0.3837  0.5067
15930TIP3   OH269280   6.719   4.235   3.319  0.2832  0.5422  0.3584
15930TIP3    H169281   6.644   4.224   3.260  0.6041  1.8539 -0.3389
15930TIP3    H269282   6.735   4.329   3.319 -0.1092  0.6716  3.1061
15931TIP3   OH269283   6.531   3.835   0.896  0.0948 -0.4238  0.5055
15931TIP3    H169284   6.526   3.747   0.859  1.0174 -0.6566  0.9009
15931TIP3    H269285   6.534   3.820   0.991 -1.9845  0.1504  0.7206
15932TIP3   OH269286   2.887   0.643  14.967  0.0442 -0.6297 -0.0804
15932TIP3    H169287   2.938   0.562  14.970 -0.1720 -0.7573  0.2148
15932TIP3    H269288   2.812   0.626  15.023  1.1940  0.5904  1.9543
15933TIP3   OH269289   0.632   6.784   4.279  0.4223  0.0217 -0.3266
15933TIP3    H169290   0.555   6.786   4.221 -0.6393  0.4718  1.0579
15933TIP3    H269291   0.616   6.711   4.338  0.3883  0.9200  0.8200
15934TIP3   OH269292   2.526   0.900  11.098  0.1312 -0.3895 -0.0728
15934TIP3    H169293   2.515   0.931  11.008 -0.0910 -3.8915 -1.4108
15934TIP3    H269294   2.436   0.887  11.129  0.2222 -0.6224  0.0903
15935TIP3   OH269295   4.992   4.033  13.877  0.4201 -0.0137  0.1727
15935TIP3    H169296   5.045   4.083  13.814 -0.4828  0.5376 -0.1565
15935TIP3    H269297   5.047   3.957  13.898  1.5597  0.7946  0.2261
15936TIP3   OH269298   5.873   0.592   2.169 -0.2549 -0.0011  0.5209
15936TIP3    H169299   5.904   0.535   2.099  1.1997  1.3002  0.0275
15936TIP3    H269300   5.805   0.646   2.128 -0.7846 -0.5430  0.6669
15937TIP3   OH269301   1.919   1.249  12.731  0.2735 -0.2722 -0.4879
15937TIP3    H169302   1.971   1.177  12.697 -1.0256  0.2575 -4.0007
15937TIP3    H269303   1.977   1.294  12.792  2.6059 -1.7936 -1.4495
15938TIP3   OH269304   2.577   2.315   2.591  0.1458  0.1746  0.8135
15938TIP3    H169305   2.629   2.352   2.662  0.6452 -0.0140  0.5498
15938TIP3    H269306   2.499   2.278   2.634  0.2324  0.4456  1.2081
15939TIP3   OH269307   2.445   6.632   2.539  0.2876  0.3495  0.0643
15939TIP3    H169308   2.353   6.661   2.543  0.8054  2.3442 -0.9242
15939TIP3    H269309   2.491   6.706   2.499  2.2114 -0.9194 -0.1868
15940TIP3   OH269310   5.021   1.610   0.521  0.8431 -0.1533 -0.2927
15940TIP3    H169311   5.106   1.634   0.558  1.5329 -0.4912 -1.6190
15940TIP3    H269312   5.024   1.641   0.431 -0.4839 -0.0910 -0.3270
15941TIP3   OH269313   5.524   3.916  11.555  0.1495 -0.0746 -0.2461
15941TIP3    H169314   5.518   3.854  11.627 -0.6980 -1.1513 -1.2082
15941TIP3    H269315   5.528   3.862  11.476  1.6062  1.0660 -1.0035
15942TIP3   OH269316   2.793   1.591  16.439  0.1104  0.1811  0.2147
15942TIP3    H169317   2.731   1.611  16.369  0.4033 -1.2723 -0.5146
15942TIP3    H269318   2.869   1.647  16.420 -0.8428  1.8057  0.9919
15943TIP3   OH269319   1.581   2.437   2.511  0.3374  0.0525 -0.1927
15943TIP3    H169320   1.647   2.371   2.527  1.4234  1.3191  0.8339
15943TIP3    H269321   1.561   2.430   2.418  3.5211  1.0288 -1.0691
15944TIP3   OH269322   4.789   6.611   4.335 -0.1709 -0.4469  0.0198
15944TIP3    H169323   4.852   6.542   4.313  1.1276 -0.1204  2.3708
15944TIP3    H269324   4.777   6.603   4.430  0.5548  2.9335  0.5233
15945TIP3   OH269325   5.503   5.478  14.138  0.4641 -0.1071 -0.3991
15945TIP3    H169326   5.542   5.403  14.183 -0.5378 -0.8186 -0.6819
15945TIP3    H269327   5.454   5.524  14.206  0.6863  0.0143 -0.3223
15946TIP3   OH269328   5.662   0.450   1.673 -0.2172  0.2854 -0.1649
15946TIP3    H169329   5.637   0.358   1.664 -1.3298  0.5141  0.5328
15946TIP3    H269330   5.621   0.493   1.598  1.0738  0.0804 -1.0196
15947TIP3   OH269331   5.547   0.224   3.736  0.1276  0.2675 -0.4243
15947TIP3    H169332   5.532   0.293   3.672  2.7686  2.1498  0.8131
15947TIP3    H269333   5.487   0.244   3.808 -0.0235  0.4963 -0.6138
15948TIP3   OH269334   3.718   5.499   2.666  0.9004  0.5945 -0.7186
15948TIP3    H169335   3.628   5.524   2.646  0.9066 -0.1367 -1.7336
15948TIP3    H269336   3.744   5.444   2.593  1.7548 -0.2349  0.1791
15949TIP3   OH269337   6.368   6.125  15.813  0.3941 -0.3169 -0.6086
15949TIP3    H169338   6.426   6.057  15.847  0.1320 -0.7080 -0.9315
15949TIP3    H269339   6.380   6.198  15.872  2.3375  0.1626 -1.4941
15950TIP3   OH269340   5.286   1.396   6.096 -0.3139  0.0554 -0.0939
15950TIP3    H169341   5.223   1.466   6.114  0.5808  0.4193  1.8773
15950TIP3    H269342   5.351   1.402   6.166  1.0668 -1.3175 -1.1493
15951TIP3   OH269343   6.336   0.745  16.097 -0.0217 -0.4635 -0.3626
15951TIP3    H169344   6.286   0.666  16.115  0.5606 -0.5084  1.1938
15951TIP3    H269345   6.426   0.723  16.123  0.5290  0.0998 -1.7017
15952TIP3   OH269346   1.118   2.189   4.359 -0.0981 -0.2234 -0.5383
15952TIP3    H169347   1.069   2.262   4.397  0.2452  0.2957 -1.0893
15952TIP3    H269348   1.172   2.157   4.432  0.8370  1.0081 -0.6643
15953TIP3   OH269349   0.071   6.233   2.639  0.1086  0.2284 -0.6287
15953TIP3    H169350   0.060   6.203   2.729 -0.3949  1.7235 -0.1670
15953TIP3    H269351  -0.014   6.215   2.597 -0.1312  0.8015 -0.4026
15954TIP3   OH269352   4.057   1.587   0.572  0.5047  0.0552 -0.1236
15954TIP3    H169353   4.142   1.554   0.543  2.4545  1.9025  2.9038
15954TIP3    H269354   4.029   1.523   0.638  1.5486  1.3368  1.6654
15955TIP3   OH269355   6.092   4.110  12.893 -0.3922 -0.3299 -0.3815
15955TIP3    H169356   6.002   4.087  12.873 -0.9004  0.1406  1.2344
15955TIP3    H269357   6.085   4.185  12.952  1.0701  0.0010 -0.5855
15956TIP3   OH269358   0.005   3.074  14.319 -0.6455 -0.7038  0.6166
15956TIP3    H169359   0.004   3.160  14.277  0.5065 -1.2119 -0.5317
15956TIP3    H269360  -0.042   3.017  14.258  0.4740 -1.3164  0.2886
15957TIP3   OH269361   6.001   0.527   3.840  0.0174  0.1047  0.3487
15957TIP3    H169362   6.003   0.466   3.913  0.1542 -0.1677  0.1188
15957TIP3    H269363   5.973   0.610   3.879 -0.8572 -0.2689  0.5452
15958TIP3   OH269364   2.481   0.336  17.082 -0.3359 -0.3225 -0.0523
15958TIP3    H169365   2.452   0.412  17.134  0.7579  1.0151 -1.2906
15958TIP3    H269366   2.491   0.371  16.994  2.9046 -1.1488 -0.1587
15959TIP3   OH269367   6.323   0.104  17.026  0.3773  0.3178 -0.6154
15959TIP3    H169368   6.242   0.123  16.979 -0.0269  2.1644  0.7131
15959TIP3    H269369   6.296   0.053  17.102  1.0719 -2.9768 -2.3509
15960TIP3   OH269370   5.019   1.902  14.531  0.3424 -0.0954  0.1231
15960TIP3    H169371   5.005   1.963  14.603 -2.4744 -0.3585 -0.0548
15960TIP3    H269372   5.098   1.854  14.555  0.7695  1.3689  1.8878
15961TIP3   OH269373   1.313   5.745  16.382  0.1108 -0.4268 -0.1846
15961TIP3    H169374   1.378   5.792  16.330  0.5385  0.4593  1.0816
15961TIP3    H269375   1.349   5.657  16.391  0.5630 -0.2771 -0.4818
15962TIP3   OH269376   2.257   5.119  13.647 -0.2923  0.0098 -0.1476
15962TIP3    H169377   2.304   5.175  13.708 -0.3434 -0.5317  0.3986
15962TIP3    H269378   2.294   5.032  13.661  0.0174 -0.0478 -1.2174
15963TIP3   OH269379   2.783   3.974  15.857  0.0570 -0.1085 -0.0065
15963TIP3    H169380   2.768   3.885  15.826 -1.3093  0.1202 -0.0815
15963TIP3    H269381   2.798   4.026  15.778 -0.5459 -0.0330 -0.0749
15964TIP3   OH269382   5.811   0.629   3.256  0.0072  0.9553  0.8447
15964TIP3    H169383   5.805   0.603   3.164 -1.6335  1.4317  0.7770
15964TIP3    H269384   5.803   0.547   3.305  1.2738  0.6567  0.5719
15965TIP3   OH269385   3.165   3.455  13.618  0.2359 -0.5849 -0.1892
15965TIP3    H169386   3.218   3.390  13.571 -0.3443 -0.5533 -0.9142
15965TIP3    H269387   3.211   3.470  13.700  0.2244 -2.1438  0.1242
15966TIP3   OH269388   3.192   5.671   2.157  0.2639  0.2644 -1.0467
15966TIP3    H169389   3.203   5.698   2.066 -0.5815  0.3645 -1.1263
15966TIP3    H269390   3.117   5.611   2.155  0.1723  0.3511 -0.3988
15967TIP3   OH269391   0.507   2.859  13.434  0.0885 -0.2181 -0.7152
15967TIP3    H169392   0.599   2.835  13.442 -0.2073 -1.0756  0.4366
15967TIP3    H269393   0.460   2.785  13.473 -0.9997  0.9363  0.2352
15968TIP3   OH269394   5.465   4.495   3.177  0.5131  0.0671  0.3215
15968TIP3    H169395   5.449   4.532   3.090 -1.1878  1.2914  1.1066
15968TIP3    H269396   5.424   4.408   3.173  1.9627 -0.6272 -0.5954
15969TIP3   OH269397   0.938   6.167  15.097  0.0827 -0.0958  0.8897
15969TIP3    H169398   0.923   6.208  15.182  0.1559 -0.8682  1.2852
15969TIP3    H269399   0.930   6.238  15.034  0.8702  0.6465  1.6122
15970TIP3   OH269400   4.283   5.456   0.120  0.2089 -0.3339  0.3216
15970TIP3    H169401   4.337   5.377   0.131  0.5495 -0.0510  0.7210
15970TIP3    H269402   4.273   5.490   0.208 -0.4736 -0.2743  0.2214
15971TIP3   OH269403   4.638   5.297  14.789  0.3758  0.0629  0.6654
15971TIP3    H169404   4.650   5.293  14.884  0.8192  1.3544  0.6788
15971TIP3    H269405   4.715   5.344  14.757  0.4877 -0.7914 -0.4045
15972TIP3   OH269406   2.298   4.151   1.466  0.6122  0.1342 -0.8348
15972TIP3    H169407   2.371   4.176   1.522  0.6543 -0.9360 -0.3990
15972TIP3    H269408   2.244   4.094   1.520  0.0733 -0.0349 -1.5335
15973TIP3   OH269409   5.459   0.064   1.723  0.2765 -0.2177  0.0410
15973TIP3    H169410   5.413   0.144   1.700  0.6212 -0.2756 -0.8952
15973TIP3    H269411   5.455   0.060   1.819  1.5753  1.7113  0.2285
15974TIP3   OH269412   1.628   2.836   4.741 -0.2507  0.2081  0.4331
15974TIP3    H169413   1.582   2.919   4.731  0.1546  0.3360 -0.5010
15974TIP3    H269414   1.561   2.769   4.727 -0.7256  0.3555  1.8745
15975TIP3   OH269415   6.236   2.985   3.509  0.0237 -0.1836  0.3077
15975TIP3    H169416   6.278   2.903   3.536  1.2226  0.8809  1.9031
15975TIP3    H269417   6.145   2.975   3.537 -0.7912 -2.2806 -2.6324
15976TIP3   OH269418   3.034   2.195  16.122  0.0666  0.0707 -0.5788
15976TIP3    H169419   2.968   2.175  16.056 -0.1094  0.3791 -0.4931
15976TIP3    H269420   2.999   2.158  16.203  1.6113 -3.0740 -1.1532
15977TIP3   OH269421   4.908   3.717   3.039 -0.0216  0.1580 -0.1362
15977TIP3    H169422   4.931   3.626   3.059  0.6869 -0.0188 -1.5900
15977TIP3    H269423   4.869   3.750   3.120  2.2777 -0.5946  1.3863
15978TIP3   OH269424   6.092   0.114  16.901 -0.8861  0.2168 -0.0608
15978TIP3    H169425   6.052   0.028  16.890 -2.8567  0.8139  1.7906
15978TIP3    H269426   6.018   0.175  16.902  0.4274  1.9375 -0.9470
15979TIP3   OH269427   5.880   2.669   4.388 -0.0490  0.6890 -0.1591
15979TIP3    H169428   5.803   2.678   4.444 -0.1450 -0.5733 -0.0654
15979TIP3    H269429   5.929   2.751   4.402 -1.0313  1.2164  0.2803
15980TIP3   OH269430   6.632   5.406   6.470 -0.2158  0.4389 -0.0260
15980TIP3    H169431   6.620   5.497   6.497  0.5169  0.2007  1.2183
15980TIP3    H269432   6.727   5.397   6.456 -0.0973 -0.4330  1.1308
15981TIP3   OH269433   0.533   6.408  15.366 -0.2534 -0.0227  0.0337
15981TIP3    H169434   0.548   6.316  15.385  0.9479  0.2868  0.7423
15981TIP3    H269435   0.606   6.432  15.308  0.3180  0.8288  1.0735
15982TIP3   OH269436   4.847   0.802  15.252  0.1772  0.3104 -1.2284
15982TIP3    H169437   4.936   0.813  15.286  0.2436 -0.6269 -1.0851
15982TIP3    H269438   4.791   0.831  15.325  0.3521  0.8739 -1.3085
15983TIP3   OH269439   2.890   0.455   3.316  0.1078  0.1803  0.4928
15983TIP3    H169440   2.880   0.394   3.243  1.5025  0.1523  0.3088
15983TIP3    H269441   2.975   0.497   3.302  0.2926  0.3615  1.9644
15984TIP3   OH269442   1.154   1.247   5.003 -0.0527  0.0596 -0.3998
15984TIP3    H169443   1.063   1.245   5.035  0.1950  1.2675  0.4515
15984TIP3    H269444   1.207   1.237   5.082  0.5640 -0.9224 -0.9249
15985TIP3   OH269445   4.205   0.717  15.103  0.6438 -0.0900 -0.5127
15985TIP3    H169446   4.138   0.681  15.044  0.5721 -0.5704 -0.1390
15985TIP3    H269447   4.198   0.812  15.091  0.8673 -0.1964 -1.5368
15986TIP3   OH269448   1.264   0.077  16.609 -0.1919  0.0148 -0.0717
15986TIP3    H169449   1.214  -0.002  16.584 -0.3854  0.1842 -0.2236
15986TIP3    H269450   1.315   0.099  16.531 -0.1014  0.0102 -0.0140
15987TIP3   OH269451   0.722   2.558   3.394  0.2019 -0.6291 -0.4167
15987TIP3    H169452   0.663   2.600   3.332 -0.6495 -0.1124  0.7263
15987TIP3    H269453   0.744   2.474   3.352 -0.9745 -0.6363 -1.0657
15988TIP3   OH269454   3.516   4.967  16.198 -0.2798  0.1719 -0.1089
15988TIP3    H169455   3.459   4.938  16.269 -1.8380  1.0429 -0.9561
15988TIP3    H269456   3.484   5.054  16.175  1.1591  0.5358 -0.8994
15989TIP3   OH269457   3.364   2.341  13.402  0.3078 -0.2380 -0.1985
15989TIP3    H169458   3.368   2.419  13.347  0.2118 -0.5689 -0.6805
15989TIP3    H269459   3.455   2.319  13.420  0.3295  0.2307  0.2980
15990TIP3   OH269460   3.733   2.376  12.770 -1.1058  0.7871  0.1246
15990TIP3    H169461   3.692   2.317  12.707  0.5964 -0.9120  0.5080
15990TIP3    H269462   3.766   2.449  12.717 -0.9688  0.1027 -0.7628
15991TIP3   OH269463   3.573   6.595   0.809  0.1750 -0.2114 -0.0614
15991TIP3    H169464   3.592   6.632   0.723  1.0518  0.0937  0.2495
15991TIP3    H269465   3.484   6.560   0.801  0.6354 -1.1486 -1.4105
15992TIP3   OH269466   1.301   6.109  10.629 -0.2032 -0.0596 -0.0814
15992TIP3    H169467   1.348   6.030  10.653 -1.0643 -1.1580 -1.7724
15992TIP3    H269468   1.361   6.180  10.649  0.9216 -1.1955  0.7045
15993TIP3   OH269469   1.089   3.222   3.189  0.2566 -0.1989 -0.2383
15993TIP3    H169470   1.057   3.203   3.277  0.3524 -1.7624 -0.5017
15993TIP3    H269471   1.166   3.277   3.203  0.9414 -1.3537  0.7403
15994TIP3   OH269472   4.844   5.105  15.446 -0.1212 -0.5116 -0.0710
15994TIP3    H169473   4.778   5.138  15.385  0.0379 -2.3069 -1.2935
15994TIP3    H269474   4.866   5.180  15.501 -1.3842  0.7659 -1.2364
15995TIP3   OH269475   1.636   1.580  10.969  0.2505  0.8199 -0.0069
15995TIP3    H169476   1.562   1.569  11.028  0.5025  0.3196  0.2205
15995TIP3    H269477   1.633   1.672  10.944 -2.6156  0.1157 -2.8751
15996TIP3   OH269478   6.331   0.462   1.978  0.2158  0.2236  0.0509
15996TIP3    H169479   6.394   0.475   1.907 -0.2649  0.8556 -0.2644
15996TIP3    H269480   6.246   0.469   1.936 -0.0982  1.8293  0.8803
15997TIP3   OH269481   5.399   1.671   4.137 -0.4579  0.2807  0.4348
15997TIP3    H169482   5.466   1.729   4.172 -0.2349  0.6271 -0.5503
15997TIP3    H269483   5.414   1.587   4.182  0.8072  0.2727  0.0376
15998TIP3   OH269484   6.803   3.187  16.618  0.2618  0.2724  0.3802
15998TIP3    H169485   6.725   3.163  16.569  1.1212  0.8186 -1.3555
15998TIP3    H269486   6.774   3.195  16.709 -1.4833 -0.3968 -0.0941
15999TIP3   OH269487   1.229   1.280  10.978  0.1328 -0.3655  0.0237
15999TIP3    H169488   1.324   1.282  10.974  0.1551 -0.7923  0.2388
15999TIP3    H269489   1.203   1.372  10.986  0.4662 -0.1351 -1.3131
16000TIP3   OH269490   4.691   6.682   1.528 -1.3280  0.2307 -0.2710
16000TIP3    H169491   4.651   6.641   1.451 -0.3246 -1.0061 -0.1678
16000TIP3    H269492   4.619   6.726   1.573 -2.2322 -0.4715 -1.0139
16001TIP3   OH269493   3.296   4.843   6.150 -0.1527 -0.7055 -0.2274
16001TIP3    H169494   3.279   4.800   6.233 -0.9717  0.2695  0.1364
16001TIP3    H269495   3.307   4.936   6.173  1.0096 -0.6198 -1.0425
16002TIP3   OH269496   4.789   4.327  17.110 -0.1571 -0.1046  0.1545
16002TIP3    H169497   4.844   4.318  17.188 -0.2951 -1.9522  0.0673
16002TIP3    H269498   4.845   4.372  17.047  0.6817 -0.4669  0.6251
16003TIP3   OH269499   6.121   0.064   6.081  0.3330  0.2921  1.1982
16003TIP3    H169500   6.130   0.053   5.987 -0.6351 -2.5051  1.3278
16003TIP3    H269501   6.185   0.132   6.104 -1.2516  3.0296 -1.7480
16004TIP3   OH269502   0.998   5.596  11.663 -0.5504 -0.0153  0.0949
16004TIP3    H169503   0.993   5.572  11.755 -0.1523 -1.1021 -0.1488
16004TIP3    H269504   1.084   5.638  11.654 -0.2053 -0.7030  0.0635
16005TIP3   OH269505   0.182   3.980   1.499 -0.5051  0.5190  0.2146
16005TIP3    H169506   0.093   3.956   1.525  0.2951 -1.7936  1.0560
16005TIP3    H269507   0.171   4.027   1.417 -2.4980  0.3539  0.3380
16006TIP3   OH269508   5.122   1.281  11.571 -0.7983 -0.2927 -0.5706
16006TIP3    H169509   5.081   1.358  11.611 -1.5881 -1.9075  1.9193
16006TIP3    H269510   5.212   1.309  11.551 -0.1466  0.5450  2.9083
16007TIP3   OH269511   3.369   4.178   1.541  1.0010  0.2829 -0.9271
16007TIP3    H169512   3.437   4.189   1.608 -0.9306 -0.1934  1.2327
16007TIP3    H269513   3.349   4.268   1.513  0.4502  0.6804  0.6448
16008TIP3   OH269514   2.120   3.820   1.391 -0.4938 -0.0898 -0.8118
16008TIP3    H169515   2.037   3.817   1.440 -1.1676  1.5244 -1.7674
16008TIP3    H269516   2.094   3.821   1.299  0.4239  2.3869 -1.1281
16009TIP3   OH269517   6.255   1.351   2.687 -0.1630 -0.0133  0.1446
16009TIP3    H169518   6.310   1.377   2.761 -1.6543 -0.8893  1.6048
16009TIP3    H269519   6.278   1.413   2.618  0.9416  1.1150  1.4680
16010TIP3   OH269520   1.330   4.444   4.821 -0.7476  0.5502  0.2826
16010TIP3    H169521   1.272   4.491   4.882  0.0374  1.5518  0.2711
16010TIP3    H269522   1.324   4.353   4.849 -1.1403  0.8605  1.2630
16011TIP3   OH269523   5.537   1.901  14.543  0.1276 -0.8994  0.4492
16011TIP3    H169524   5.505   1.868  14.459  0.0031 -0.5379  0.3502
16011TIP3    H269525   5.627   1.869  14.550  0.1113 -0.9932  0.2129
16012TIP3   OH269526   6.206   1.023  14.428  0.0963  0.3307 -0.4784
16012TIP3    H169527   6.217   1.081  14.352  1.5960  0.3310 -0.2950
16012TIP3    H269528   6.296   1.000  14.453 -0.3832  0.1596  1.1679
16013TIP3   OH269529   0.176   6.737  14.561 -0.0895 -0.2924  0.0874
16013TIP3    H169530   0.173   6.643  14.580 -1.7849 -0.1941  0.5011
16013TIP3    H269531   0.207   6.776  14.643  1.4721 -0.5286 -0.3638
16014TIP3   OH269532   5.830   1.140  14.899  0.6384  0.6372 -0.5652
16014TIP3    H169533   5.823   1.140  14.994  1.7895  0.0008 -0.4626
16014TIP3    H269534   5.796   1.226  14.873 -0.7503  0.3824  0.3106
16015TIP3   OH269535   3.519   5.634   5.815  0.1341 -0.4239  0.0832
16015TIP3    H169536   3.457   5.703   5.793  2.2951  1.5351 -0.2517
16015TIP3    H269537   3.536   5.590   5.732  0.6604  0.3529 -0.2351
16016TIP3   OH269538   2.838   0.073  15.622  0.3618 -0.2159  0.3396
16016TIP3    H169539   2.805   0.149  15.671  0.0308  0.5289 -0.9990
16016TIP3    H269540   2.923   0.054  15.663  0.0140  0.2625  1.3231
16017TIP3   OH269541   1.543   5.317  13.181 -0.8274 -0.1698 -0.2244
16017TIP3    H169542   1.634   5.340  13.199 -0.7889 -0.3330 -0.2078
16017TIP3    H269543   1.494   5.396  13.203 -1.0342 -1.0248  2.8911
16018TIP3   OH269544   1.508   6.728   5.728 -0.0747  0.4004  0.1720
16018TIP3    H169545   1.581   6.678   5.693 -0.4328  0.3937 -0.6004
16018TIP3    H269546   1.441   6.662   5.747 -0.2932  0.5117 -0.1978
16019TIP3   OH269547   4.299   5.067  16.272  1.0032  0.1978  0.2055
16019TIP3    H169548   4.247   5.059  16.192 -1.3126 -1.3581  1.7369
16019TIP3    H269549   4.262   5.142  16.318  0.5614 -0.4654  0.9688
16020TIP3   OH269550   2.618   6.101   4.763 -0.4222  0.0113 -0.2440
16020TIP3    H169551   2.607   6.153   4.683  2.4407  1.9960  0.4758
16020TIP3    H269552   2.588   6.159   4.833  0.8835 -0.0464  0.3954
16021TIP3   OH269553   4.922   6.014  16.790  0.6044  0.4651  0.3022
16021TIP3    H169554   4.864   6.041  16.861 -0.5809  2.4409 -1.3177
16021TIP3    H269555   4.864   5.967  16.729  1.3804 -0.2492  0.0869
16022TIP3   OH269556   5.295   3.295   1.838  0.3840 -0.3152 -0.5638
16022TIP3    H169557   5.214   3.343   1.853 -0.1922 -1.4406  0.1489
16022TIP3    H269558   5.301   3.286   1.743  0.2603  0.7380 -0.6767
16023TIP3   OH269559   5.637   0.849  11.228 -0.1121  0.6231  0.4767
16023TIP3    H169560   5.573   0.785  11.258 -0.2580 -0.1929 -1.3858
16023TIP3    H269561   5.587   0.911  11.174  0.5421  0.2709 -0.5823
16024TIP3   OH269562   2.930   1.789   2.158 -0.2549 -0.9253 -0.3089
16024TIP3    H169563   3.024   1.807   2.151 -0.1008 -1.7462 -0.4331
16024TIP3    H269564   2.922   1.737   2.238 -1.0347  1.9095  1.5950
16025TIP3   OH269565   5.566   4.508   2.443  0.4361 -0.1107 -0.3064
16025TIP3    H169566   5.660   4.506   2.456  0.5452 -1.0844 -1.1425
16025TIP3    H269567   5.549   4.444   2.374 -0.7915  0.3308 -0.4522
16026TIP3   OH269568   2.671   0.827  11.472 -0.7175  0.6545 -0.3813
16026TIP3    H169569   2.581   0.860  11.469 -1.0945 -0.3856 -2.0248
16026TIP3    H269570   2.666   0.747  11.523 -0.8773  0.2386 -1.0331
16027TIP3   OH269571   6.175   2.523   3.436  0.0927  0.3349  0.3857
16027TIP3    H169572   6.250   2.582   3.445  0.9560 -0.8774  1.3251
16027TIP3    H269573   6.113   2.554   3.503  0.8096 -0.2004  1.3132
16028TIP3   OH269574   0.592   3.848  15.125 -0.3130 -0.2411  0.5803
16028TIP3    H169575   0.557   3.794  15.054  0.4865 -0.6837  0.5058
16028TIP3    H269576   0.540   3.929  15.122  0.4941  0.2817 -1.3366
16029TIP3   OH269577   3.446   6.494  16.763  0.0816  0.0327  0.3229
16029TIP3    H169578   3.436   6.513  16.856  0.0974  0.6018  0.2143
16029TIP3    H269579   3.538   6.474  16.751 -0.1806 -1.5298  0.6862
16030TIP3   OH269580   2.746   5.427  15.103  0.1397 -0.6012  0.1637
16030TIP3    H169581   2.826   5.461  15.142  1.3161 -1.2502 -1.5485
16030TIP3    H269582   2.738   5.475  15.020  0.0336 -2.1276 -0.7493
16031TIP3   OH269583   0.771   5.162  11.644 -0.1891  0.2340  0.1039
16031TIP3    H169584   0.711   5.236  11.645  0.4282  0.7424  0.4418
16031TIP3    H269585   0.730   5.096  11.700 -1.0951  0.0210 -0.7856
16032TIP3   OH269586   2.158   1.967   6.017  0.1318 -0.0585 -0.1207
16032TIP3    H169587   2.156   2.036   5.951 -0.4461  0.9951  0.9423
16032TIP3    H269588   2.091   1.993   6.080  0.5523 -1.1086  0.7949
16033TIP3   OH269589   4.218   5.063   3.760  0.4278 -0.6449  0.5546
16033TIP3    H169590   4.242   5.132   3.698  1.6446 -3.1486 -2.0325
16033TIP3    H269591   4.187   5.109   3.837  1.2719  2.7476 -0.9483
16034TIP3   OH269592   6.428   4.544  14.806  0.2680  0.4669 -0.7406
16034TIP3    H169593   6.397   4.618  14.857  2.1596  0.8693 -0.0682
16034TIP3    H269594   6.376   4.546  14.725  0.5074  2.7592 -0.9068
16035TIP3   OH269595   4.163   2.210  14.126 -0.3581 -0.1903  0.1826
16035TIP3    H169596   4.079   2.250  14.100  0.2104  0.3786 -0.8671
16035TIP3    H269597   4.223   2.236  14.056  0.1381 -2.5652 -0.3429
16036TIP3   OH269598   3.127   1.696  16.860  0.2302  0.0034 -0.1235
16036TIP3    H169599   3.162   1.626  16.914  1.5488  1.3310  0.8326
16036TIP3    H269600   3.034   1.699  16.881  0.6018  0.0987  1.6424
16037TIP3   OH269601   6.482   6.612  14.801 -0.0337 -0.2310  0.4746
16037TIP3    H169602   6.573   6.587  14.786  0.1746  0.8941 -0.2947
16037TIP3    H269603   6.488   6.695  14.849 -0.6180  0.5277 -0.7251
16038TIP3   OH269604   6.296   0.053  15.608  0.3872  0.0995  0.0439
16038TIP3    H169605   6.215   0.090  15.574  0.4349 -0.3607 -0.5886
16038TIP3    H269606   6.278  -0.040  15.620  0.9987 -0.1328 -0.7102
16039TIP3   OH269607   2.457   0.437  16.822  0.7776 -0.3408  0.4936
16039TIP3    H169608   2.393   0.434  16.750  0.9032 -0.8869  0.4010
16039TIP3    H269609   2.501   0.521  16.810  0.2419 -0.0697  0.4124
16040TIP3   OH269610   3.609   0.380  12.866  0.5634  0.2330 -0.1339
16040TIP3    H169611   3.641   0.306  12.917 -0.9666  0.2787  0.9423
16040TIP3    H269612   3.541   0.342  12.809  0.6112  0.5980 -0.4372
16041TIP3   OH269613   2.524   1.354  14.536  0.3745 -0.1538 -0.5284
16041TIP3    H169614   2.472   1.356  14.616  0.6120 -0.3760 -0.3685
16041TIP3    H269615   2.479   1.291  14.480 -0.1570  0.4665 -0.8257
16042TIP3   OH269616   6.468   3.360  13.930 -0.0358  0.5891  0.0813
16042TIP3    H169617   6.517   3.289  13.971  1.2928  0.6365 -1.3725
16042TIP3    H269618   6.443   3.326  13.844 -1.6158  0.9779  0.3574
16043TIP3   OH269619   4.731   5.601  12.089  0.8795  0.0921 -0.9642
16043TIP3    H169620   4.665   5.532  12.093  0.4912  0.5324  1.3708
16043TIP3    H269621   4.815   5.554  12.087  0.5810 -0.4402 -1.1640
16044TIP3   OH269622   1.537   2.302  10.242 -0.6253  0.1067 -0.2887
16044TIP3    H169623   1.530   2.221  10.293  1.3303  0.4763  0.6584
16044TIP3    H269624   1.532   2.273  10.151 -0.9705 -0.9441  0.0427
16045TIP3   OH269625   0.905   0.357  10.541 -0.0711  0.2431 -0.6667
16045TIP3    H169626   0.920   0.331  10.632 -0.1685 -0.2608 -0.7915
16045TIP3    H269627   0.973   0.422  10.523 -1.4216  2.0907  0.4736
16046TIP3   OH269628   1.495   1.396  13.149  0.1372  0.0983 -0.3073
16046TIP3    H169629   1.556   1.397  13.075 -0.4553 -1.4887 -0.8507
16046TIP3    H269630   1.416   1.440  13.116 -0.0248 -0.3577 -0.5307
16047TIP3   OH269631   2.946   1.224  14.578 -0.3518  0.7026  0.0902
16047TIP3    H169632   3.040   1.232  14.561 -0.2297 -3.2707 -2.4402
16047TIP3    H269633   2.939   1.221  14.673  2.1136  0.7611  0.3358
16048TIP3   OH269634   5.882   2.893  10.889  0.2025 -0.2072 -0.3283
16048TIP3    H169635   5.820   2.941  10.944 -0.3496 -0.8061 -0.4163
16048TIP3    H269636   5.839   2.885  10.805 -0.1839 -1.7733 -0.0160
16049TIP3   OH269637   1.602   2.298   1.671  0.8704 -0.6711 -0.1871
16049TIP3    H169638   1.688   2.285   1.632  0.2422 -0.3033 -1.7494
16049TIP3    H269639   1.546   2.328   1.599 -0.2826  0.2929  1.0423
16050TIP3   OH269640   5.951   3.835   1.679  0.4593 -0.3386  0.0671
16050TIP3    H169641   6.011   3.894   1.633  0.9887 -0.3992  0.6510
16050TIP3    H269642   5.892   3.802   1.612  0.0038  1.0321 -0.2370
16051TIP3   OH269643   6.528   6.792  15.531 -0.4707  0.4658 -0.3893
16051TIP3    H169644   6.588   6.862  15.506 -0.3366  0.5764  0.2400
16051TIP3    H269645   6.464   6.834  15.588 -1.2907  0.3965 -1.2319
16052TIP3   OH269646   5.912   0.702  15.747 -0.4552 -0.3508 -0.3010
16052TIP3    H169647   5.871   0.620  15.717 -0.2067 -0.2711 -0.8650
16052TIP3    H269648   5.846   0.742  15.803  0.5676 -2.5020  2.7574
16053TIP3   OH269649   0.204   6.695   3.026 -0.1544 -0.0842  0.3462
16053TIP3    H169650   0.229   6.655   3.109  0.5541  0.2936  0.3210
16053TIP3    H269651   0.207   6.623   2.963  2.6481  0.2445 -0.0081
16054TIP3   OH269652   5.255   5.052   5.568  0.1055  0.6192 -0.2587
16054TIP3    H169653   5.277   5.051   5.661 -0.4221  0.2759 -0.1344
16054TIP3    H269654   5.244   5.145   5.548  0.8287  0.7371 -0.1296
16055TIP3   OH269655   4.219   3.587   2.838  0.4727  0.1786 -0.0008
16055TIP3    H169656   4.302   3.550   2.869  0.9580 -0.2098 -1.6634
16055TIP3    H269657   4.209   3.553   2.749 -2.1830 -0.9064  0.6134
16056TIP3   OH269658   5.201   5.534  16.101 -0.2335  0.3944 -0.8118
16056TIP3    H169659   5.267   5.541  16.170 -1.6243 -1.1875  0.7803
16056TIP3    H269660   5.199   5.621  16.062  2.3332  0.6609 -0.5253
16057TIP3   OH269661   6.351   1.437   6.136 -0.0450  0.2788 -0.0798
16057TIP3    H169662   6.411   1.509   6.155  2.5922 -1.7729 -0.1001
16057TIP3    H269663   6.354   1.427   6.041 -0.7118  0.3617 -0.1152
16058TIP3   OH269664   2.859   5.548  14.458 -0.1047  0.0841 -0.5571
16058TIP3    H169665   2.897   5.520  14.375 -2.4808 -1.7385 -1.1391
16058TIP3    H269666   2.818   5.469  14.494 -1.0628  1.3228  1.2713
16059TIP3   OH269667   5.891   5.074   4.687 -0.8314 -0.3419 -0.6007
16059TIP3    H169668   5.821   5.126   4.726 -2.0704 -1.3297 -1.4364
16059TIP3    H269669   5.948   5.051   4.760 -1.3730  0.4790  0.1006
16060TIP3   OH269670   4.298   5.552  15.810  0.2190  0.1026  0.3319
16060TIP3    H169671   4.285   5.458  15.801 -0.6413  0.3795 -2.1591
16060TIP3    H269672   4.371   5.561  15.871  2.0607 -2.3172 -1.3130
16061TIP3   OH269673   1.084   4.300   5.088 -0.4443  0.0328  0.2670
16061TIP3    H169674   1.022   4.322   5.157 -2.5406 -1.5008 -1.0116
16061TIP3    H269675   1.042   4.228   5.040 -0.5978  2.8832 -4.4697
16062TIP3   OH269676   1.238   3.104   4.560 -0.2891 -0.3126  0.4817
16062TIP3    H169677   1.221   3.041   4.630  1.3764 -1.7049 -0.2878
16062TIP3    H269678   1.224   3.055   4.479 -0.5110  0.7807 -0.1641
16063TIP3   OH269679   5.323   5.967   5.322 -0.4227  0.4869 -0.0536
16063TIP3    H169680   5.256   6.035   5.317 -0.7513  0.2750  1.2906
16063TIP3    H269681   5.353   5.968   5.413 -0.8627 -1.5519  0.1588
16064TIP3   OH269682   4.218   0.688  10.354  0.1323 -0.4245  0.0308
16064TIP3    H169683   4.162   0.630  10.303 -0.1403  0.1963 -0.3966
16064TIP3    H269684   4.160   0.760  10.380  0.6828  0.1352 -0.2607
16065TIP3   OH269685   1.645   1.123   2.689 -0.7913  0.3813  0.0512
16065TIP3    H169686   1.574   1.067   2.658  0.1857 -0.8741  0.0329
16065TIP3    H269687   1.683   1.075   2.762 -1.7309  2.3424  1.9377
16066TIP3   OH269688   1.857   1.781  12.937 -0.0615 -0.3779 -0.5387
16066TIP3    H169689   1.874   1.699  12.892 -0.9498  0.1713 -1.9441
16066TIP3    H269690   1.918   1.843  12.897 -2.1017  0.5566 -2.4350
16067TIP3   OH269691   3.322   4.312  11.664 -0.5100  0.1985 -0.1646
16067TIP3    H169692   3.227   4.302  11.651 -0.5730  0.2457  0.2496
16067TIP3    H269693   3.333   4.309  11.759  0.0331 -1.0368 -0.2518
16068TIP3   OH269694   3.832   4.304   3.881  0.5149  0.3309 -0.4445
16068TIP3    H169695   3.870   4.294   3.794 -0.6383  0.4374 -0.9808
16068TIP3    H269696   3.802   4.217   3.905 -0.2896  0.5313 -0.6996
16069TIP3   OH269697   6.551   5.776  15.427  0.1022  0.0607  0.2371
16069TIP3    H169698   6.578   5.853  15.477  1.3833  1.1299 -1.9680
16069TIP3    H269699   6.466   5.751  15.465 -0.0680  2.1883  1.3824
16070TIP3   OH269700   5.018   2.490   0.274 -0.2959  0.2424  0.7749
16070TIP3    H169701   5.021   2.520   0.183  1.7580 -0.5029  0.5633
16070TIP3    H269702   5.020   2.395   0.269  0.1541  0.1958  1.6061
16071TIP3   OH269703   5.182   4.058   3.147 -0.1946  0.0916  0.1591
16071TIP3    H169704   5.135   4.081   3.068 -0.1036 -0.5332 -0.0857
16071TIP3    H269705   5.137   3.980   3.180 -2.6253  2.3447  2.7834
16072TIP3   OH269706   1.137   1.999  13.432 -0.6094  0.0676  0.0109
16072TIP3    H169707   1.134   2.024  13.525 -1.7705 -1.1240  0.3217
16072TIP3    H269708   1.219   2.038  13.400 -1.3333  2.5322  0.9204
16073TIP3   OH269709   4.849   6.390   5.066 -0.2213  0.1695 -0.2324
16073TIP3    H169710   4.766   6.415   5.106  0.3859  1.0143  0.5484
16073TIP3    H269711   4.842   6.295   5.055 -2.2979  0.5071 -2.6238
16074TIP3   OH269712   0.646   4.295  13.612  0.5700  0.6639 -0.2555
16074TIP3    H169713   0.563   4.257  13.641  0.9428  0.3212  0.3788
16074TIP3    H269714   0.666   4.249  13.531  0.5433  0.1672  0.0139
16075TIP3   OH269715   0.992   5.163   1.634  0.1745 -0.2556 -0.3077
16075TIP3    H169716   1.051   5.157   1.709 -0.4540 -1.6017  0.0974
16075TIP3    H269717   0.961   5.254   1.636  2.6044  0.6750 -0.8575
16076TIP3   OH269718   1.649   5.653   1.974  0.0359 -0.0991 -0.0617
16076TIP3    H169719   1.726   5.603   1.946  0.4300  0.3525  0.1978
16076TIP3    H269720   1.685   5.728   2.020 -0.5784 -0.1620  0.5300
16077TIP3   OH269721   3.562   4.014  13.079  0.2033 -0.3719  0.5850
16077TIP3    H169722   3.542   4.019  12.986 -0.3755 -0.3984  0.7026
16077TIP3    H269723   3.493   3.959  13.116 -0.8661  1.4014  1.3750
16078TIP3   OH269724   2.623   0.199  15.745  0.1810  0.0036 -0.0245
16078TIP3    H169725   2.546   0.143  15.745 -0.1859  0.3054  3.6166
16078TIP3    H269726   2.592   0.283  15.713 -1.4485  0.5015  2.5693
16079TIP3   OH269727   6.085   2.732   0.976  0.5961 -0.0739 -0.0290
16079TIP3    H169728   5.999   2.732   1.017  0.4599  2.2114 -0.1629
16079TIP3    H269729   6.082   2.660   0.913 -0.3208 -1.5668  1.6225
16080TIP3   OH269730   1.147   6.654  15.665  0.1158 -0.4096 -0.5486
16080TIP3    H169731   1.140   6.724  15.600 -0.8282 -0.3136 -0.3481
16080TIP3    H269732   1.065   6.606  15.659  0.3288 -0.8680  0.0449
16081TIP3   OH269733   3.615   4.156   1.000 -0.5135  1.0506  0.1534
16081TIP3    H169734   3.587   4.187   1.086  0.0477 -2.7479  1.9328
16081TIP3    H269735   3.534   4.127   0.958 -0.5946  1.1609  0.2322
16082TIP3   OH269736   0.601   2.979  11.487 -0.1054  0.2634 -0.0407
16082TIP3    H169737   0.530   2.925  11.522 -0.5858  0.5675 -0.5231
16082TIP3    H269738   0.666   2.916  11.456 -0.3563 -0.0254  0.0189
16083TIP3   OH269739   0.816   4.495   0.960 -0.8687  0.1842 -0.8206
16083TIP3    H169740   0.877   4.561   0.927  2.1397 -1.5162  0.9480
16083TIP3    H269741   0.812   4.429   0.891 -1.1874  0.5620 -1.1691
16084TIP3   OH269742   3.776   3.729  13.332 -0.3787  0.4327 -0.3579
16084TIP3    H169743   3.815   3.800  13.280  1.2986  0.5180  0.9363
16084TIP3    H269744   3.712   3.773  13.387 -0.5122  0.6899 -0.7073
16085TIP3   OH269745   6.816   2.418  15.762  0.0011  0.2442  0.2754
16085TIP3    H169746   6.734   2.421  15.810 -0.2830 -1.6379 -0.0134
16085TIP3    H269747   6.794   2.375  15.679  1.5761 -2.1866  0.9892
16086TIP3   OH269748   0.177   0.364   5.023 -0.2631 -0.0168  0.4008
16086TIP3    H169749   0.242   0.433   5.007 -0.4718 -0.0250 -0.6058
16086TIP3    H269750   0.112   0.405   5.080  0.0477  0.3611  0.4899
16087TIP3   OH269751   5.986   0.355  16.136 -0.1878  0.6938  0.1246
16087TIP3    H169752   5.956   0.265  16.151 -1.5926  1.1763  0.3634
16087TIP3    H269753   5.981   0.367  16.042  1.2497  0.1390 -0.0591
16088TIP3   OH269754   6.844   2.796  10.218 -0.0011 -0.2033  0.3234
16088TIP3    H169755   6.769   2.854  10.233 -0.1174 -0.4898  0.8899
16088TIP3    H269756   6.920   2.852  10.236 -0.0148  0.4102 -1.3403
16089TIP3   OH269757   3.467   5.326   1.797 -0.0334  0.1767  0.0663
16089TIP3    H169758   3.510   5.335   1.712  0.8152  1.7594  0.6133
16089TIP3    H269759   3.539   5.313   1.859 -0.5407  0.3048  0.6881
16090TIP3   OH269760   5.270   5.118   2.166 -0.4280  0.1728  0.0040
16090TIP3    H169761   5.363   5.133   2.181 -0.9722  1.7965  2.1789
16090TIP3    H269762   5.241   5.068   2.242 -1.5151  0.5440 -0.1502
16091TIP3   OH269763   5.491   6.652   1.759 -0.0366  0.3372 -0.2149
16091TIP3    H169764   5.402   6.617   1.758  0.3715 -0.7520  0.1226
16091TIP3    H269765   5.480   6.745   1.740 -1.5103  0.8705  2.7046
16092TIP3   OH269766   5.459   3.922  12.727  0.0908 -0.2770 -0.0886
16092TIP3    H169767   5.473   4.011  12.696  0.2551  0.3803  1.7609
16092TIP3    H269768   5.364   3.913  12.732  0.0724 -0.2435 -0.4122
16093TIP3   OH269769   4.996   4.295   0.177 -0.1866 -0.3287  0.4759
16093TIP3    H169770   5.075   4.276   0.227 -0.9672 -0.0328  1.8752
16093TIP3    H269771   4.929   4.313   0.243 -0.8121  1.9942 -0.6971
16094TIP3   OH269772   6.616   6.413  13.893 -0.0167  0.0778  0.4008
16094TIP3    H169773   6.698   6.457  13.869  2.0596 -2.2578  2.6607
16094TIP3    H269774   6.584   6.462  13.969  0.7792 -0.5999  1.1859
16095TIP3   OH269775   3.715   6.179   0.111 -0.9116  0.8476  0.3625
16095TIP3    H169776   3.790   6.156   0.167 -0.3755 -1.1292 -1.0591
16095TIP3    H269777   3.680   6.095   0.082 -2.2199  1.7872 -0.9180
16096TIP3   OH269778   6.577   1.514   4.884 -0.2963  0.6786 -0.5876
16096TIP3    H169779   6.579   1.560   4.968 -0.7366  2.0586 -1.3065
16096TIP3    H269780   6.484   1.499   4.867 -0.2150  0.4696 -0.8639
16097TIP3   OH269781   0.559   0.567   5.428 -0.4015 -0.7325 -0.0839
16097TIP3    H169782   0.584   0.583   5.337 -0.8594 -2.9517 -0.6681
16097TIP3    H269783   0.625   0.506   5.461 -0.4209 -0.1994  0.9974
16098TIP3   OH269784   3.738   2.603   1.849  0.6804 -1.9016  0.0670
16098TIP3    H169785   3.751   2.693   1.819 -1.3014 -1.1111  1.3634
16098TIP3    H269786   3.663   2.572   1.799 -0.1858 -1.9369  1.3389
16099TIP3   OH269787   0.939   6.285   4.815 -0.4193  0.1423  0.6267
16099TIP3    H169788   1.021   6.259   4.857 -0.5444  1.1826  1.5669
16099TIP3    H269789   0.873   6.227   4.854 -0.4491  0.7322  1.4819
16100TIP3   OH269790   2.398   0.255   3.776  0.4473 -0.1384  0.3378
16100TIP3    H169791   2.328   0.208   3.823  0.9418  2.1754  3.7232
16100TIP3    H269792   2.354   0.329   3.735  0.5378 -0.2501  0.0322
16101TIP3   OH269793   5.589   6.075   4.281  1.0824 -0.7102 -0.3019
16101TIP3    H169794   5.667   6.122   4.308  0.9348 -0.6247 -0.0256
16101TIP3    H269795   5.605   5.985   4.308  0.7472 -0.5453  0.4861
16102TIP3   OH269796   2.688   0.167  12.453  0.2231 -0.4297  0.3024
16102TIP3    H169797   2.652   0.086  12.489  0.1978  0.4415  2.3823
16102TIP3    H269798   2.760   0.190  12.512 -1.2277  2.2245  1.2149
16103TIP3   OH269799   3.715   2.561  16.266 -0.9537  0.5301 -0.1040
16103TIP3    H169800   3.706   2.478  16.220  1.4967 -1.3090  2.4455
16103TIP3    H269801   3.790   2.603  16.225  0.4785 -0.5560  1.3122
16104TIP3   OH269802   3.464   2.553  13.245 -0.3120 -0.3286 -0.1203
16104TIP3    H169803   3.548   2.550  13.290 -0.4574  1.5709  0.3789
16104TIP3    H269804   3.480   2.512  13.160  1.0830 -0.1026  0.0162
16105TIP3   OH269805   6.211   2.952   4.985  0.9324  1.2398 -0.7756
16105TIP3    H169806   6.146   2.936   5.053  0.8038 -1.6321 -1.4522
16105TIP3    H269807   6.176   3.025   4.934 -0.5797  1.2928  0.2868
16106TIP3   OH269808   0.989   1.810  10.813 -0.4264  0.4213  0.0132
16106TIP3    H169809   0.912   1.868  10.818 -0.2052  0.6516  0.9828
16106TIP3    H269810   1.064   1.869  10.823 -0.1937 -0.0250  0.9351
16107TIP3   OH269811   0.629   4.366   3.242 -0.3695 -0.1255 -0.1826
16107TIP3    H169812   0.689   4.292   3.253 -0.5684 -0.2238  0.2662
16107TIP3    H269813   0.586   4.349   3.158  1.7449  1.0504 -1.5897
16108TIP3   OH269814   4.115   6.479  15.140 -0.2084  0.6319  0.0257
16108TIP3    H169815   4.108   6.394  15.184  3.2933  0.3288  0.3411
16108TIP3    H269816   4.200   6.475  15.095 -0.6749  3.3850 -1.2970
16109TIP3   OH269817   3.427   4.721   5.283  0.0142  0.1834 -0.4607
16109TIP3    H169818   3.343   4.676   5.276  0.3533 -0.4875 -0.3049
16109TIP3    H269819   3.484   4.675   5.221  0.1186  0.9860 -0.9714
16110TIP3   OH269820   5.891   5.959  13.954 -0.6360 -0.0925  0.4758
16110TIP3    H169821   5.937   5.915  13.882 -0.6621  1.9814 -0.8675
16110TIP3    H269822   5.800   5.964  13.925 -0.6173  0.9091  0.5747
16111TIP3   OH269823   0.815   0.685  13.085 -0.2163  0.0216 -0.0478
16111TIP3    H169824   0.839   0.771  13.122  1.6046 -0.7850  0.7697
16111TIP3    H269825   0.767   0.641  13.155  1.6879 -0.8214  0.8094
16112TIP3   OH269826   3.318   4.840  11.969  0.2622  0.2668 -0.1305
16112TIP3    H169827   3.244   4.879  11.923 -0.2925 -0.2097  0.3604
16112TIP3    H269828   3.384   4.909  11.971 -0.2143  0.7330 -0.4419
16113TIP3   OH269829   6.243   0.957  12.675  0.1940  0.0477  0.5884
16113TIP3    H169830   6.275   0.904  12.602  1.9595 -1.0995  2.0963
16113TIP3    H269831   6.313   1.020  12.691  0.8100 -1.0534  2.5431
16114TIP3   OH269832   3.531   2.012   2.378 -0.4822 -0.0869  0.8557
16114TIP3    H169833   3.503   2.002   2.469  0.6489  0.4955  1.2928
16114TIP3    H269834   3.614   2.061   2.384  0.7387 -1.8927 -0.3311
16115TIP3   OH269835   1.477   3.918   0.504  0.0672 -0.6019 -0.2406
16115TIP3    H169836   1.529   3.968   0.442  1.1020 -0.9372  0.3248
16115TIP3    H269837   1.536   3.848   0.534 -0.9247 -1.3908 -0.0612
16116TIP3   OH269838   3.509   6.269  15.670 -0.7657  0.0516 -0.4474
16116TIP3    H169839   3.547   6.279  15.583  1.7978 -0.1368  0.5508
16116TIP3    H269840   3.419   6.300  15.661 -0.4111  0.5642 -3.0095
16117TIP3   OH269841   1.432   1.360  16.109  0.2687  0.2267 -0.2146
16117TIP3    H169842   1.463   1.450  16.100  0.4311  0.6700  3.3186
16117TIP3    H269843   1.502   1.316  16.157 -0.1698 -1.5886 -1.1694
16118TIP3   OH269844   1.943   6.654   5.813 -0.0781  0.0395 -0.4913
16118TIP3    H169845   2.026   6.623   5.851  0.3256  0.5815 -0.9206
16118TIP3    H269846   1.960   6.745   5.789 -0.5488 -0.0844 -1.3197
16119TIP3   OH269847   4.061   0.678  17.048  0.0466  0.1279 -0.3667
16119TIP3    H169848   4.061   0.604  17.109  0.5722 -2.5910 -3.4344
16119TIP3    H269849   4.151   0.709  17.047 -0.0639  0.5140  0.5258
16120TIP3   OH269850   0.487   3.560   4.016  0.3547 -0.1971  0.1941
16120TIP3    H169851   0.467   3.538   3.925 -0.3096  0.6201  0.1241
16120TIP3    H269852   0.477   3.656   4.019 -0.4433 -0.3077  1.3229
16121TIP3   OH269853   2.260   3.168  13.777 -0.2979  0.0820  0.5635
16121TIP3    H169854   2.195   3.116  13.730 -0.1412  1.0509 -0.7929
16121TIP3    H269855   2.319   3.104  13.817 -0.4561 -0.7865 -0.5546
16122TIP3   OH269856   4.083   6.270  15.346 -0.3488  0.6942 -0.7078
16122TIP3    H169857   4.128   6.330  15.406  1.9706 -1.6532  0.1137
16122TIP3    H269858   4.039   6.207  15.404  0.0081 -0.2837 -1.4782
16123TIP3   OH269859   5.286   1.261   5.183 -0.2304 -0.1252 -0.2442
16123TIP3    H169860   5.314   1.352   5.192  0.8337 -0.5801  1.4752
16123TIP3    H269861   5.367   1.212   5.176 -0.7115 -1.1055  0.7756
16124TIP3   OH269862   4.277   2.316  13.021  0.7081  0.4678  0.5982
16124TIP3    H169863   4.285   2.256  13.096  0.8412 -0.2788  0.0034
16124TIP3    H269864   4.228   2.390  13.055 -2.4833 -1.4341  0.5525
16125TIP3   OH269865   5.762   5.310   3.127 -0.4478  0.3824  0.3864
16125TIP3    H169866   5.731   5.394   3.162 -0.0785  0.6929 -0.0408
16125TIP3    H269867   5.742   5.313   3.034 -2.0100 -0.7033  0.6326
16126TIP3   OH269868   1.822   6.709   4.175 -0.2993  0.0005  0.3521
16126TIP3    H169869   1.741   6.659   4.189  0.1628 -0.9740 -0.3995
16126TIP3    H269870   1.892   6.646   4.189  0.3141  0.5719 -0.0905
16127TIP3   OH269871   0.616   6.052  11.194 -0.1232  0.0482 -0.3039
16127TIP3    H169872   0.624   6.125  11.133  0.4201  0.0819 -0.1934
16127TIP3    H269873   0.571   5.984  11.144 -0.9030  0.5594 -0.3128
16128TIP3   OH269874   2.252   5.769   1.366  0.1573  0.1229  0.3007
16128TIP3    H169875   2.311   5.744   1.295 -0.6927  0.4093 -0.5332
16128TIP3    H269876   2.165   5.770   1.326 -0.0822  2.7457  0.6714
16129TIP3   OH269877   4.379   2.880   5.309  0.1010  0.3278  0.1448
16129TIP3    H169878   4.405   2.968   5.338  0.4602  0.4721 -0.5867
16129TIP3    H269879   4.439   2.821   5.355 -0.9005  0.3689  1.5475
16130TIP3   OH269880   6.261   6.456  16.187  0.3369 -0.1636  0.4066
16130TIP3    H169881   6.237   6.494  16.102 -0.7571 -0.0913  0.7401
16130TIP3    H269882   6.209   6.376  16.193  0.4545 -0.2005  0.9857
16131TIP3   OH269883   3.332   2.095   0.356 -0.4951  0.2309 -0.2310
16131TIP3    H169884   3.321   2.190   0.356  0.7337  0.3936  0.4456
16131TIP3    H269885   3.352   2.073   0.265  2.9202  1.1457  0.1843
16132TIP3   OH269886   5.376   4.510  11.688 -0.0506  0.2595 -0.1501
16132TIP3    H169887   5.417   4.431  11.724  0.5085  0.5613 -0.1072
16132TIP3    H269888   5.399   4.509  11.595 -0.5361  0.0688 -0.2686
16133TIP3   OH269889   4.636   5.872   0.192 -0.0567  0.6725 -0.5595
16133TIP3    H169890   4.550   5.829   0.184  0.9905 -1.6146 -0.1143
16133TIP3    H269891   4.698   5.801   0.206  2.0016  2.2389 -1.1725
16134TIP3   OH269892   0.365   0.722  12.780 -0.0791 -0.6120  0.5564
16134TIP3    H169893   0.423   0.798  12.788 -1.3534  0.4706 -0.0495
16134TIP3    H269894   0.303   0.731  12.853 -1.7269  0.3361 -0.8588
16135TIP3   OH269895   5.610   2.766   0.390  0.1996 -0.0533 -0.1964
16135TIP3    H169896   5.603   2.820   0.311  2.2868  0.0394 -0.3768
16135TIP3    H269897   5.691   2.796   0.431 -0.7381 -0.2296  1.9107
16136TIP3   OH269898   5.887   4.516   3.060  0.7761 -0.2989  0.2554
16136TIP3    H169899   5.848   4.598   3.090  1.0263 -0.6805  1.7348
16136TIP3    H269900   5.815   4.453   3.061  1.0416 -0.6198  1.4101
16137TIP3   OH269901   3.879   0.512   4.113 -0.1731  0.0577 -0.4469
16137TIP3    H169902   3.887   0.606   4.131 -0.6635  0.1122 -0.5052
16137TIP3    H269903   3.842   0.474   4.193  2.0661 -0.4439  0.4164
16138TIP3   OH269904   4.310   4.405  11.464  0.5439 -0.5281  0.3828
16138TIP3    H169905   4.304   4.370  11.553 -0.7599 -2.8130 -0.5321
16138TIP3    H269906   4.380   4.355  11.423 -0.0176 -0.6975 -0.3805
16139TIP3   OH269907   4.173   3.809  16.161  0.5527 -0.3333  0.2352
16139TIP3    H169908   4.116   3.734  16.143  1.5887 -1.1484  0.2056
16139TIP3    H269909   4.176   3.857  16.079 -0.3916 -0.0610  0.3510
16140TIP3   OH269910   3.866   6.634   6.102 -0.7872 -0.4054  0.1412
16140TIP3    H169911   3.782   6.615   6.145 -1.2405  0.9107 -0.1179
16140TIP3    H269912   3.932   6.599   6.162 -1.4599  0.0349  1.1712
16141TIP3   OH269913   1.764   4.247  11.252  0.1183 -0.0411  0.1859
16141TIP3    H169914   1.692   4.256  11.315  0.6236  0.6573  0.6816
16141TIP3    H269915   1.771   4.152  11.237 -1.3972 -0.0679 -0.4709
16142TIP3   OH269916   0.934   0.802  12.666 -0.5101  0.0747 -0.1187
16142TIP3    H169917   0.967   0.773  12.581  0.8292  0.0557  0.3875
16142TIP3    H269918   0.865   0.864  12.644  0.3288  0.6623 -1.2417
16143TIP3   OH269919   4.754   2.166   4.087 -0.0622  0.3328  0.5279
16143TIP3    H169920   4.732   2.257   4.069 -1.4774 -0.0582  0.1329
16143TIP3    H269921   4.742   2.157   4.182 -0.3609  0.4444  0.5008
16144TIP3   OH269922   0.851   4.163   4.587 -0.3647 -0.1059  0.0184
16144TIP3    H169923   0.930   4.218   4.590 -0.6644  0.4327 -1.2128
16144TIP3    H269924   0.883   4.074   4.599  0.4187  0.1242 -0.2826
16145TIP3   OH269925   6.175   6.647  11.166 -0.2951 -0.3829 -0.9899
16145TIP3    H169926   6.152   6.580  11.230  1.0553 -0.6056 -0.7039
16145TIP3    H269927   6.253   6.612  11.123 -0.5434  0.2646 -1.9961
16146TIP3   OH269928   6.136   4.066   2.936 -0.0120  0.1899  0.4252
16146TIP3    H169929   6.041   4.069   2.950 -0.0998 -1.8846  0.6479
16146TIP3    H269930   6.170   4.020   3.013  0.8401 -1.3752 -0.8337
16147TIP3   OH269931   4.220   4.876   5.020 -0.2401  0.4611 -0.0930
16147TIP3    H169932   4.145   4.935   5.022  0.8055  1.9374  2.9214
16147TIP3    H269933   4.182   4.788   5.017 -1.9592  1.1916 -0.9276
16148TIP3   OH269934   2.233   3.677  11.912  0.1311  0.7452  0.0029
16148TIP3    H169935   2.236   3.613  11.841  2.5681  0.0007  0.6692
16148TIP3    H269936   2.141   3.699  11.921 -0.5504 -1.1715 -1.5692
16149TIP3   OH269937   4.071   3.447   5.851 -0.1291 -0.9555 -0.4073
16149TIP3    H169938   4.074   3.354   5.827  0.9779 -1.1146  0.2547
16149TIP3    H269939   4.003   3.452   5.917 -0.8125 -1.1272 -1.0843
16150TIP3   OH269940   5.453   6.551   3.326  0.4765  0.2173  0.1400
16150TIP3    H169941   5.448   6.503   3.409 -0.5579 -0.1468 -0.1141
16150TIP3    H269942   5.375   6.606   3.325  1.2884  1.4046  0.0995
16151TIP3   OH269943   6.798   5.147   0.579 -0.1071 -0.7340 -0.1056
16151TIP3    H169944   6.790   5.051   0.581  1.1759 -0.8929 -1.2363
16151TIP3    H269945   6.803   5.169   0.486  1.8620  0.1942  0.1646
16152TIP3   OH269946   6.667   3.175   2.439 -0.0066  0.0098 -0.2786
16152TIP3    H169947   6.736   3.204   2.378 -1.5916  1.3746 -1.4959
16152TIP3    H269948   6.647   3.086   2.410  0.9181 -0.2353 -0.2009
16153TIP3   OH269949   6.098   4.440  14.729 -0.1432 -0.1537  0.2858
16153TIP3    H169950   6.129   4.350  14.717  0.2179  0.2052 -1.9190
16153TIP3    H269951   6.110   4.481  14.643  2.1363  2.7782  1.8141
16154TIP3   OH269952   0.288   2.610   5.187 -0.0517 -0.1338 -0.0730
16154TIP3    H169953   0.212   2.646   5.233 -0.4616  0.0573 -0.8775
16154TIP3    H269954   0.283   2.649   5.100  1.4428  0.5245  0.1188
16155TIP3   OH269955   1.567   5.628   0.369  0.3109 -0.0049 -0.4688
16155TIP3    H169956   1.498   5.693   0.386  1.3502  0.7329  1.1654
16155TIP3    H269957   1.549   5.598   0.280 -2.2407 -0.0023 -0.0422
16156TIP3   OH269958   0.888   2.989   4.461  0.2006 -0.2544 -0.3932
16156TIP3    H169959   0.810   3.034   4.494  0.4928 -1.4432  2.1491
16156TIP3    H269960   0.941   3.059   4.422 -1.5518  0.7576 -1.0942
16157TIP3   OH269961   5.768   1.702   0.262 -0.4520 -0.3197 -0.6197
16157TIP3    H169962   5.749   1.608   0.258 -1.2994 -0.1832  0.0130
16157TIP3    H269963   5.725   1.732   0.341  1.2922  0.2847  0.1546
16158TIP3   OH269964   1.335   0.498   7.107  0.6359  0.0981 -0.2123
16158TIP3    H169965   1.278   0.428   7.140  0.4297  0.3839  0.0420
16158TIP3    H269966   1.274   0.565   7.076  0.8223 -0.2364 -1.3368
16159TIP3   OH269967   4.318   5.134   2.478 -0.1229 -0.6409 -0.1406
16159TIP3    H169968   4.289   5.079   2.406 -2.1401 -0.8970  0.8036
16159TIP3    H269969   4.239   5.153   2.528  1.0627  0.2351  1.5312
16160TIP3   OH269970   5.581   6.810   5.244 -0.0882 -0.8321  0.0025
16160TIP3    H169971   5.566   6.800   5.150  2.6234  1.9859 -0.8823
16160TIP3    H269972   5.531   6.888   5.269  2.9021  1.3380 -0.3153
16161TIP3   OH269973   3.803   2.058  11.335  0.4087  0.3723 -0.0389
16161TIP3    H169974   3.853   2.014  11.404  0.6516  0.7303  0.0162
16161TIP3    H269975   3.753   1.988  11.294 -0.2811  0.2558  0.9613
16162TIP3   OH269976   4.764   3.990  11.954  0.0568 -0.5105  0.3480
16162TIP3    H169977   4.830   3.929  11.919  0.7546 -0.1350  0.9814
16162TIP3    H269978   4.682   3.963  11.912  0.7447 -0.4892 -1.0903
16163TIP3   OH269979   0.823   3.601   3.388 -0.5076 -0.0064 -0.1157
16163TIP3    H169980   0.795   3.535   3.451  2.0380 -0.1497  0.9532
16163TIP3    H269981   0.906   3.568   3.353 -0.1858  1.6662 -1.0621
16164TIP3   OH269982   2.098   6.340   5.828  0.6683 -0.0499  0.7208
16164TIP3    H169983   2.193   6.340   5.842  0.7075 -1.9622  0.6524
16164TIP3    H269984   2.062   6.304   5.909  0.1572 -1.0977  0.0485
16165TIP3   OH269985   0.467   5.393   5.274  0.1791 -0.0743  0.5226
16165TIP3    H169986   0.423   5.314   5.244 -1.1556  0.8646 -0.1504
16165TIP3    H269987   0.425   5.464   5.224 -0.3497  1.3148  2.7804
16166TIP3   OH269988   1.060   0.340  13.547 -0.1930  0.3006  0.2610
16166TIP3    H169989   1.044   0.428  13.580 -0.9668 -0.1950  1.2492
16166TIP3    H269990   0.993   0.327  13.481 -1.3127 -0.2333  1.4647
16167TIP3   OH269991   0.745   0.738   0.465 -0.1304 -0.2723 -0.2819
16167TIP3    H169992   0.671   0.678   0.477  1.3375 -1.7757  1.8961
16167TIP3    H269993   0.779   0.752   0.554  1.8579  0.8042 -1.1552
16168TIP3   OH269994   4.454   1.744  13.899 -0.3097 -0.1938 -0.2615
16168TIP3    H169995   4.368   1.710  13.876 -0.2293  0.4725 -1.6725
16168TIP3    H269996   4.515   1.676  13.870 -0.3632 -1.1618  1.7234
16169TIP3   OH269997   4.249   2.614  13.565  0.7056 -0.6983  0.4966
16169TIP3    H169998   4.322   2.625  13.504 -0.5897 -1.0801 -1.1861
16169TIP3    H269999   4.171   2.634  13.514 -0.5990 -2.8830  1.4932
16170TIP3   OH270000   6.720   2.143   4.399  0.4131  0.4765  0.5228
16170TIP3    H170001   6.629   2.171   4.389 -1.5649 -5.0967 -0.4218
16170TIP3    H270002   6.723   2.099   4.484  1.8699 -0.5648 -0.0309
16171TIP3   OH270003   1.103   4.272  12.872  0.1142  0.7388  0.2172
16171TIP3    H170004   1.094   4.218  12.950  0.7432 -0.7938 -0.7185
16171TIP3    H270005   1.174   4.230  12.822 -0.6763  1.2966 -1.4509
16172TIP3   OH270006   3.159   4.252  13.404 -0.0468 -0.2173 -0.6305
16172TIP3    H170007   3.092   4.274  13.339 -2.0043  1.4605  1.7682
16172TIP3    H270008   3.139   4.162  13.429  0.8274 -0.9439 -2.3533
16173TIP3   OH270009   6.366   0.954  16.972  0.0997  0.3969 -0.0970
16173TIP3    H170010   6.413   1.009  17.034  0.8373 -0.0817 -0.2275
16173TIP3    H270011   6.385   0.864  16.999  0.1734  0.1856 -0.8276
16174TIP3   OH270012   6.346   6.731   0.958  0.1687 -0.7870  0.0872
16174TIP3    H170013   6.299   6.686   0.888  0.4674 -3.2951  1.3788
16174TIP3    H270014   6.438   6.715   0.939  0.3149 -0.1564  0.2391
16175TIP3   OH270015   2.052   3.051  12.247 -0.0103 -0.0659 -0.1277
16175TIP3    H170016   2.106   3.020  12.320 -0.4563 -1.1176 -0.2390
16175TIP3    H270017   1.974   2.996  12.249 -0.6996  0.8680 -0.5055
16176TIP3   OH270018   0.042   0.733  11.441 -0.5540  0.0868 -0.5617
16176TIP3    H170019   0.001   0.813  11.407 -0.2957 -0.6352 -2.7199
16176TIP3    H270020   0.001   0.662  11.392 -0.7193 -1.1388  1.2673
16177TIP3   OH270021   2.413   5.774   2.423 -0.0362  0.1670  0.3446
16177TIP3    H170022   2.487   5.814   2.470 -0.3650  0.7304  0.3943
16177TIP3    H270023   2.336   5.815   2.462 -0.3129  0.7462 -0.7949
16178TIP3   OH270024   6.552   5.053   2.600 -0.0003 -0.0726 -0.2041
16178TIP3    H170025   6.495   5.000   2.544  0.0814  1.6887 -2.1102
16178TIP3    H270026   6.539   5.143   2.568  1.5966  0.7598  1.3223
16179TIP3   OH270027   2.809   0.603  15.811 -0.5710 -0.4053 -0.3261
16179TIP3    H170028   2.857   0.680  15.842 -2.0072 -0.2387  1.7014
16179TIP3    H270029   2.848   0.583  15.727  1.2738  1.2670  0.0501
16180TIP3   OH270030   3.210   6.813  16.219  0.0719  0.3796  0.6013
16180TIP3    H170031   3.240   6.883  16.276 -0.5139  1.0073  0.1621
16180TIP3    H270032   3.172   6.859  16.143 -4.2369 -0.1923  2.1494
16181TIP3   OH270033   2.351   0.539  12.924 -0.2728 -0.6666 -0.0240
16181TIP3    H170034   2.288   0.513  12.991  0.7901  2.0320  2.2777
16181TIP3    H270035   2.433   0.496  12.950 -0.3063 -1.2073 -0.7927
16182TIP3   OH270036   0.095   6.667  11.543 -0.2217 -0.0434 -0.1600
16182TIP3    H170037   0.124   6.596  11.601  0.4784 -0.5964 -1.1614
16182TIP3    H270038   0.174   6.691  11.493 -0.5473  1.1651 -0.1290
16183TIP3   OH270039   6.763   5.936  15.941 -0.3669 -0.2675  0.2484
16183TIP3    H170040   6.763   5.892  16.026 -0.5539  0.9217  0.8720
16183TIP3    H270041   6.776   5.865  15.878 -0.4386 -1.1909  1.2465
16184TIP3   OH270042   2.996   4.603  16.978 -0.3192  1.1558  0.3758
16184TIP3    H170043   2.952   4.548  16.914 -0.0191  1.2394  0.0936
16184TIP3    H270044   3.087   4.573  16.978  0.3026  2.8545 -1.1667
16185TIP3   OH270045   4.685   2.278  13.105  0.0883 -0.0184 -0.2492
16185TIP3    H170046   4.711   2.370  13.095 -2.3221  0.8973  1.0434
16185TIP3    H270047   4.719   2.254  13.191  0.0296 -0.0679 -0.2407
16186TIP3   OH270048   6.110   1.602  14.309 -0.3043  0.7743 -0.1492
16186TIP3    H170049   6.068   1.679  14.349 -1.1173 -1.2714  3.4076
16186TIP3    H270050   6.036   1.549  14.277  0.1128  0.6047 -0.8399
16187TIP3   OH270051   4.878   0.547  15.849 -0.2856 -0.3165  0.2260
16187TIP3    H170052   4.824   0.607  15.901 -1.4125 -0.6309 -0.5438
16187TIP3    H270053   4.839   0.461  15.864  0.5766 -0.6909  0.3708
16188TIP3   OH270054   0.368   6.530  15.702  0.1801  0.4231  0.4661
16188TIP3    H170055   0.324   6.574  15.775 -2.0936  0.0948 -0.5975
16188TIP3    H270056   0.454   6.571  15.698 -0.2377  1.6253  2.2757
16189TIP3   OH270057   1.620   4.666   3.208  0.5713  0.1995  0.1918
16189TIP3    H170058   1.587   4.645   3.121 -0.4043  0.4374  0.4878
16189TIP3    H270059   1.715   4.656   3.202  0.5104  0.2443 -0.9014
16190TIP3   OH270060   1.869   5.529  15.289  0.6117  0.0979 -0.2020
16190TIP3    H170061   1.955   5.508  15.251  0.5002  0.2853 -0.5614
16190TIP3    H270062   1.886   5.542  15.382  1.2025  1.4232 -0.4742
16191TIP3   OH270063   4.997   0.840  12.937 -0.0247 -0.1569 -0.6590
16191TIP3    H170064   4.992   0.851  12.842  0.8578  2.7367 -0.4685
16191TIP3    H270065   4.914   0.874  12.970  0.1045 -0.1420 -0.3422
16192TIP3   OH270066   0.190   5.952  13.675  0.2030  0.0109  0.1692
16192TIP3    H170067   0.127   5.907  13.731  0.6594 -1.1395 -0.2113
16192TIP3    H270068   0.147   5.960  13.590  1.2711 -2.6904 -0.7259
16193TIP3   OH270069   3.378   1.423   0.074  0.3374 -0.6371 -0.2496
16193TIP3    H170070   3.399   1.425   0.168  0.4150  1.3059 -0.2711
16193TIP3    H270071   3.461   1.437   0.030  0.4084 -2.1711 -0.6772
16194TIP3   OH270072   4.711   1.409   1.599 -0.4818 -0.4911  0.1629
16194TIP3    H170073   4.752   1.454   1.525 -1.7259  0.6852  0.1545
16194TIP3    H270074   4.624   1.384   1.568 -1.1042  0.1956  1.2695
16195TIP3   OH270075   0.764   1.161   4.114 -0.1164  0.6941  0.7297
16195TIP3    H170076   0.752   1.089   4.176 -0.7438  0.8819  0.8358
16195TIP3    H270077   0.754   1.240   4.167  1.0676  0.8747  0.7077
16196TIP3   OH270078   1.306   1.628   3.493  0.0123  0.0021 -0.3676
16196TIP3    H170079   1.317   1.712   3.448  0.2648 -0.1389 -0.5743
16196TIP3    H270080   1.286   1.651   3.584 -1.2182  0.2982 -0.7071
16197TIP3   OH270081   3.801   5.316   6.363  0.6784  0.6163  0.7689
16197TIP3    H170082   3.729   5.252   6.355  1.8038 -0.5212 -1.4295
16197TIP3    H270083   3.760   5.394   6.399 -1.5852 -0.1572  0.0715
16198TIP3   OH270084   5.223   6.138  15.545  0.6247 -0.1176 -0.4573
16198TIP3    H170085   5.144   6.118  15.594 -0.8454  2.2087 -1.6839
16198TIP3    H270086   5.292   6.089  15.589 -1.3839 -1.8245  0.9800
16199TIP3   OH270087   6.493   5.555  14.182  0.1363  0.5996 -0.6658
16199TIP3    H170088   6.534   5.568  14.096  3.5722  2.2251  0.9958
16199TIP3    H270089   6.563   5.576  14.244 -2.7640  1.5335  2.5572
16200TIP3   OH270090   6.440   2.327  14.319  0.4162 -0.4674  0.1385
16200TIP3    H170091   6.387   2.298  14.245  0.9165 -1.2920  0.0944
16200TIP3    H270092   6.528   2.339  14.282  0.7131 -1.0658  0.6245
16201TIP3   OH270093   2.605   1.872  16.334  0.1839  0.0750  0.5222
16201TIP3    H170094   2.653   1.955  16.341  3.0295 -1.3992  0.1901
16201TIP3    H270095   2.586   1.847  16.424 -2.3610  1.8559  0.5896
16202TIP3   OH270096   0.098   1.276   5.454  0.6830  0.2699  0.5826
16202TIP3    H170097   0.030   1.246   5.515 -0.1017  0.5235 -0.1421
16202TIP3    H270098   0.170   1.215   5.466  0.3090 -0.0342  1.3428
16203TIP3   OH270099   2.039   3.305  15.036 -0.0418  0.2850 -0.1719
16203TIP3    H170100   2.063   3.341  14.951 -0.5945 -3.0078 -1.8630
16203TIP3    H270101   2.107   3.239  15.054 -1.3169 -0.8457  0.6917
16204TIP3   OH270102   3.574   3.866  13.435 -0.3326 -0.3945 -0.1066
16204TIP3    H170103   3.513   3.893  13.504 -1.0715  2.6641 -1.7950
16204TIP3    H270104   3.620   3.946  13.410  1.5847 -1.8683 -1.5786
16205TIP3   OH270105   1.661   4.615  12.018  0.0382 -0.2519  0.2442
16205TIP3    H170106   1.600   4.570  11.959  0.7900 -1.1780  0.1462
16205TIP3    H270107   1.660   4.706  11.990 -0.7241 -0.4004 -0.2382
16206TIP3   OH270108   6.777   0.942   1.557  0.5093 -0.0483 -0.1816
16206TIP3    H170109   6.835   0.867   1.543  1.4654  0.5756  0.3192
16206TIP3    H270110   6.765   0.980   1.469 -0.6679 -1.2365 -0.5823
16207TIP3   OH270111   4.717   5.816  16.322  0.1360  0.0349  0.1410
16207TIP3    H170112   4.801   5.859  16.311  0.7204 -1.4813 -1.8392
16207TIP3    H270113   4.653   5.879  16.289  0.8445 -0.0613 -1.4801
16208TIP3   OH270114   0.632   6.759  16.126 -0.1191 -0.3109  0.3759
16208TIP3    H170115   0.685   6.837  16.113  0.9020 -1.1130 -0.4979
16208TIP3    H270116   0.561   6.767  16.062  1.2939 -1.1750 -1.3827
16209TIP3   OH270117   3.817   3.666   3.047  0.0607  0.1023 -0.2362
16209TIP3    H170118   3.843   3.755   3.070 -1.4674  0.5660 -0.2224
16209TIP3    H270119   3.762   3.637   3.120  0.5648 -0.8695 -0.2288
16210TIP3   OH270120   3.563   4.647   4.325  0.3084 -0.2347 -0.8121
16210TIP3    H170121   3.579   4.604   4.241  0.6666 -0.7073 -0.5065
16210TIP3    H270122   3.647   4.640   4.372  0.2230  0.3599 -0.5645
16211TIP3   OH270123   6.339   2.808  14.513  0.1191 -0.1789 -0.5742
16211TIP3    H170124   6.304   2.721  14.491 -0.6097  0.0615 -0.4124
16211TIP3    H270125   6.393   2.832  14.438  0.6085 -0.9178 -0.4649
16212TIP3   OH270126   4.610   0.554  13.100  0.5972  0.1241 -0.2386
16212TIP3    H170127   4.552   0.527  13.171  0.7312 -0.1314 -0.2240
16212TIP3    H270128   4.634   0.472  13.056  1.2681  0.1862  0.0017
16213TIP3   OH270129   4.912   2.250   3.308  0.8057 -0.0390 -0.3173
16213TIP3    H170130   4.977   2.259   3.238 -1.0549  1.6447 -1.9849
16213TIP3    H270131   4.874   2.163   3.294  1.3853 -0.2689 -0.5111
16214TIP3   OH270132   4.573   0.802   3.677  0.4528 -0.8360  0.6484
16214TIP3    H170133   4.622   0.818   3.596  0.6441  1.6056  1.1752
16214TIP3    H270134   4.561   0.707   3.679  0.8214 -1.0153 -2.0094
16215TIP3   OH270135   2.702   3.368  16.442 -0.1256 -0.2066 -0.2654
16215TIP3    H170136   2.756   3.351  16.365  0.1921 -1.4090  0.1827
16215TIP3    H270137   2.612   3.366  16.410 -0.0415 -1.5520 -0.4947
16216TIP3   OH270138   0.191   1.536   2.670 -0.0894  0.3479  0.1370
16216TIP3    H170139   0.112   1.482   2.665 -1.4457  2.1031  1.2879
16216TIP3    H270140   0.205   1.550   2.764  1.3784  0.3969 -0.0654
16217TIP3   OH270141   0.148   2.891  14.693 -0.6231  0.0651  0.2849
16217TIP3    H170142   0.103   2.838  14.759 -0.4245  0.4304  0.7178
16217TIP3    H270143   0.234   2.850  14.684  0.3901  1.5920  2.2704
16218TIP3   OH270144   5.618   1.450   0.227  0.2888  0.2166  0.3582
16218TIP3    H170145   5.619   1.371   0.282  2.2527 -1.1947 -1.5615
16218TIP3    H270146   5.553   1.431   0.159 -0.5634  1.0619  0.9097
16219TIP3   OH270147   6.370   1.107  14.758 -0.5234  0.0542 -0.3311
16219TIP3    H170148   6.392   1.018  14.786 -1.0252  0.9651  3.5619
16219TIP3    H270149   6.275   1.111  14.766 -0.3238  1.6218  2.3716
16220TIP3   OH270150   4.050   4.972  15.340  0.2060 -0.7022 -0.3923
16220TIP3    H170151   4.144   4.967  15.360 -0.0325 -3.5313  0.5591
16220TIP3    H270152   4.035   4.898  15.281 -1.4427 -0.3524 -0.4489
16221TIP3   OH270153   0.313   5.557  12.352 -0.0916  0.0461  0.3090
16221TIP3    H170154   0.333   5.650  12.356  1.4714 -0.1411 -1.5727
16221TIP3    H270155   0.309   5.529  12.443  2.6967  1.3411  0.9192
16222TIP3   OH270156   6.034   5.382  11.887  0.8315 -0.2280  0.7417
16222TIP3    H170157   6.025   5.473  11.859 -1.6746 -0.5871  0.1429
16222TIP3    H270158   6.099   5.345  11.827  0.3035  0.6647 -0.4193
16223TIP3   OH270159   3.831   6.641  12.405  0.0543 -0.1967 -0.0853
16223TIP3    H170160   3.808   6.630  12.497 -0.0312 -1.5992 -0.2596
16223TIP3    H270161   3.769   6.707  12.373 -0.3019 -0.1343  0.7068
16224TIP3   OH270162   1.575   5.974  14.584  0.1371 -0.1407 -0.2790
16224TIP3    H170163   1.615   5.966  14.497 -0.1881 -0.7177 -0.3824
16224TIP3    H270164   1.487   5.939  14.573 -0.4679  1.2501 -0.0947
16225TIP3   OH270165   4.268   6.102   5.222 -0.5094 -0.1757 -0.5559
16225TIP3    H170166   4.298   6.147   5.143 -0.7023 -0.2450 -0.6697
16225TIP3    H270167   4.348   6.083   5.271 -0.1714 -2.0343 -1.7378
16226TIP3   OH270168   1.865   1.549  12.755 -0.1295  0.2079 -0.0771
16226TIP3    H170169   1.886   1.463  12.720  3.4862  0.9671 -0.1451
16226TIP3    H270170   1.793   1.580  12.700 -0.1070 -1.9051 -1.4083
16227TIP3   OH270171   2.669   4.001  12.658 -0.0789 -0.5925 -0.2980
16227TIP3    H170172   2.754   3.975  12.624  0.7023 -0.0963  1.1900
16227TIP3    H270173   2.657   4.091  12.626 -0.4667 -0.9601 -1.2284
16228TIP3   OH270174   2.405   1.342  14.169  0.2664 -0.0772  0.3033
16228TIP3    H170175   2.319   1.346  14.126  0.3192 -2.1857 -0.0674
16228TIP3    H270176   2.393   1.279  14.241  0.6762  1.9875  2.3229
16229TIP3   OH270177   5.013   0.782   2.513  0.0407 -0.3652 -0.3083
16229TIP3    H170178   5.097   0.825   2.494  0.5753 -0.2246  2.0221
16229TIP3    H270179   5.038   0.701   2.559 -1.0710  0.2238  1.4369
16230TIP3   OH270180   3.309   2.749   2.460 -0.2715  0.2849 -0.2086
16230TIP3    H170181   3.282   2.746   2.552 -0.3559 -1.6247 -0.2525
16230TIP3    H270182   3.228   2.739   2.410  0.0949 -3.1561 -0.3639
16231TIP3   OH270183   0.066   2.595  11.937  0.1457 -0.3809 -0.1837
16231TIP3    H170184   0.133   2.622  11.874  0.9461 -0.5073  0.5913
16231TIP3    H270185   0.108   2.525  11.987  0.4374  1.2959  2.0858
16232TIP3   OH270186   4.421   1.929   3.214 -0.8875 -0.1838 -0.2394
16232TIP3    H170187   4.370   1.944   3.134 -0.9882  0.4371 -0.0624
16232TIP3    H270188   4.437   2.016   3.249  1.5966 -0.2212 -1.0737
16233TIP3   OH270189   2.480   5.867   4.844  0.6358  0.0677  0.9512
16233TIP3    H170190   2.535   5.938   4.811 -1.5015  1.2449 -0.3080
16233TIP3    H270191   2.501   5.792   4.789  0.8000  0.5742  0.3212
16234TIP3   OH270192   5.760   6.497  13.307 -0.0424 -0.4765 -0.5349
16234TIP3    H170193   5.801   6.578  13.276  2.1012 -0.4748  1.9107
16234TIP3    H270194   5.696   6.525  13.372 -0.8812 -0.6795 -1.2587
16235TIP3   OH270195   5.246   3.384  13.287 -0.5232  0.5218  0.2514
16235TIP3    H170196   5.211   3.302  13.321  1.4114 -1.2197 -1.7533
16235TIP3    H270197   5.232   3.380  13.193  1.8171  1.3142 -0.2000
16236TIP3   OH270198   2.391   3.018  13.960 -0.2240  0.4033 -0.2004
16236TIP3    H170199   2.438   3.101  13.971 -1.1871  1.2576 -1.9733
16236TIP3    H270200   2.350   3.003  14.045 -0.7441  2.2448 -0.0625
16237TIP3   OH270201   2.917   6.113   1.872 -0.0973 -0.3406 -0.0451
16237TIP3    H170202   2.838   6.129   1.923  0.0857 -1.9181  0.7919
16237TIP3    H270203   2.886   6.106   1.782 -0.7109  0.4113  0.0978
16238TIP3   OH270204   2.778   3.647   2.234 -0.2228  0.0480  0.3553
16238TIP3    H170205   2.859   3.663   2.186 -1.2936  0.8543 -1.3048
16238TIP3    H270206   2.758   3.730   2.276 -1.8471  0.9841 -2.0133
16239TIP3   OH270207   1.208   1.053  11.117  0.3423 -0.5416 -0.6799
16239TIP3    H170208   1.284   0.998  11.135  0.0049 -0.9802 -0.5850
16239TIP3    H270209   1.241   1.121  11.059  1.2836  0.4816  0.9926
16240TIP3   OH270210   2.315   2.616   0.722  0.4145 -0.1467  0.3213
16240TIP3    H170211   2.340   2.625   0.815 -1.6354  2.5404  0.7321
16240TIP3    H270212   2.278   2.701   0.699  1.5832 -0.4415 -3.2676
16241TIP3   OH270213   6.675   1.350   4.122  0.1544 -0.2100  0.2637
16241TIP3    H170214   6.615   1.400   4.176 -0.6848  0.6126 -1.3396
16241TIP3    H270215   6.748   1.328   4.179 -1.5095 -0.9740  2.2028
16242TIP3   OH270216   5.787   2.141  15.103 -0.0601 -0.8097 -0.6802
16242TIP3    H170217   5.866   2.115  15.151  0.2981  0.3819 -0.5944
16242TIP3    H270218   5.787   2.236  15.106 -1.9289 -0.7881 -0.0119
16243TIP3   OH270219   0.679   5.897  11.395 -0.3557 -0.5899  0.2389
16243TIP3    H170220   0.766   5.931  11.415  0.0301 -0.9319 -0.7874
16243TIP3    H270221   0.642   5.961  11.334 -2.4376  1.7070  3.5517
16244TIP3   OH270222   5.224   0.237  15.187 -0.2356 -0.2146 -0.4813
16244TIP3    H170223   5.174   0.211  15.110  1.3512 -0.9154 -1.3313
16244TIP3    H270224   5.292   0.169  15.196  2.0478  1.8624 -0.8508
16245TIP3   OH270225   0.443   6.012   1.730 -0.2341  0.1016 -0.1886
16245TIP3    H170226   0.514   6.034   1.790  0.4359  0.2282 -1.0082
16245TIP3    H270227   0.425   6.094   1.683  1.8995 -0.8338 -2.8788
16246TIP3   OH270228   1.611   0.277   5.023 -0.2640 -0.2383  0.3812
16246TIP3    H170229   1.576   0.366   5.019  2.9318  1.1153 -0.8495
16246TIP3    H270230   1.548   0.224   4.973 -2.4112  1.1566  1.4321
16247TIP3   OH270231   0.729   3.307  16.384 -0.3704 -0.2141  0.0384
16247TIP3    H170232   0.814   3.272  16.360 -0.4302 -1.4132  1.4481
16247TIP3    H270233   0.741   3.341  16.473 -1.2644 -0.0661  0.1163
16248TIP3   OH270234   3.155   3.166   5.333  0.0676  0.4754  0.2831
16248TIP3    H170235   3.089   3.225   5.296 -1.0196  0.2627  1.7617
16248TIP3    H270236   3.120   3.142   5.419  1.7509 -0.2328  0.8193
16249TIP3   OH270237   3.076   0.649   4.289 -0.0988 -0.0366 -0.2061
16249TIP3    H170238   3.131   0.627   4.365  0.1789 -2.7878 -1.1096
16249TIP3    H270239   3.000   0.593   4.297 -0.2161 -0.1499 -1.7877
16250TIP3   OH270240   0.460   5.845  11.815 -0.6182 -0.3200 -0.4420
16250TIP3    H170241   0.528   5.905  11.786  0.5306  0.5508  3.4549
16250TIP3    H270242   0.503   5.760  11.822 -0.4679 -0.2048  0.0786
16251TIP3   OH270243   3.210   5.875  16.511 -0.4859  0.3769  0.1819
16251TIP3    H170244   3.119   5.895  16.491 -0.3077 -0.1976 -1.3910
16251TIP3    H270245   3.261   5.928  16.449  0.2797  1.0281  1.3352
16252TIP3   OH270246   4.931   3.855   0.250 -0.4410  0.4321 -0.8906
16252TIP3    H170247   4.845   3.838   0.212 -0.9836  1.4005 -0.1369
16252TIP3    H270248   4.992   3.813   0.189 -1.3807  0.6015 -2.0004
16253TIP3   OH270249   2.926   6.151  14.766  0.2217  0.7142  0.2013
16253TIP3    H170250   2.894   6.136  14.855 -1.5592 -2.2270 -0.8000
16253TIP3    H270251   3.001   6.092  14.758  0.3762  0.9746 -0.2712
16254TIP3   OH270252   6.414   5.331  11.356  0.6851  0.1094  0.1752
16254TIP3    H170253   6.382   5.400  11.298  0.6309 -0.1822 -0.1453
16254TIP3    H270254   6.391   5.250  11.311 -2.5866 -0.2722  2.1981
16255TIP3   OH270255   1.359   0.021   1.368  0.5425 -0.3927 -0.2932
16255TIP3    H170256   1.419   0.061   1.431  0.5698  0.5475 -0.8897
16255TIP3    H270257   1.272   0.045   1.399  0.5171 -0.7990 -0.0498
16256TIP3   OH270258   3.493   5.833   1.822 -0.1303 -0.4478  0.2929
16256TIP3    H170259   3.454   5.803   1.740  1.2188  1.5202 -1.1783
16256TIP3    H270260   3.575   5.784   1.829  0.6847  0.7115 -0.6125
16257TIP3   OH270261   5.992   3.351  13.536  0.3201  0.2899  0.3714
16257TIP3    H170262   5.914   3.296  13.526 -1.3081  2.5297 -0.0894
16257TIP3    H270263   6.064   3.297  13.505 -1.1406 -1.6252  0.1328
16258TIP3   OH270264   4.271   5.224  11.104  0.2632  0.2071 -0.1420
16258TIP3    H170265   4.232   5.141  11.133  2.4943 -0.8991 -0.0951
16258TIP3    H270266   4.243   5.288  11.169 -1.5035 -0.4925 -0.1738
16259TIP3   OH270267   4.672   1.496   1.111  0.3965  0.1236 -0.1261
16259TIP3    H170268   4.625   1.499   1.027 -1.2917  0.1259  0.7806
16259TIP3    H270269   4.691   1.587   1.131  0.0806  0.1881 -0.1156
16260TIP3   OH270270   2.141   2.722  14.094 -0.1853 -0.4165  0.6303
16260TIP3    H170271   2.180   2.664  14.028  2.0998  0.1730  1.3874
16260TIP3    H270272   2.153   2.810  14.059 -2.6534 -0.2474  0.0047
16261TIP3   OH270273   2.732   2.099   0.094  0.0820  0.6938  0.5079
16261TIP3    H170274   2.639   2.078   0.094  0.4105 -0.9310  1.2385
16261TIP3    H270275   2.736   2.193   0.113 -1.3773  0.6704  1.0463
16262TIP3   OH270276   6.777   5.880   0.025  0.4425 -0.1035 -0.0791
16262TIP3    H170277   6.854   5.836   0.060  1.4647  1.7184  0.0902
16262TIP3    H270278   6.788   5.878  -0.070  0.3441 -0.4331 -0.0844
16263TIP3   OH270279   0.607   4.579  14.507  0.2343 -0.0525 -0.3755
16263TIP3    H170280   0.558   4.660  14.518  1.6147  0.6300  1.1719
16263TIP3    H270281   0.663   4.574  14.584 -0.5096 -2.9946  0.0990
16264TIP3   OH270282   3.814   0.090  14.377 -0.1067 -0.4300 -0.7635
16264TIP3    H170283   3.881   0.100  14.310 -0.1282 -2.6025 -1.1627
16264TIP3    H270284   3.734   0.071  14.329 -0.8258  1.0942 -0.2371
16265TIP3   OH270285   4.746   3.999  13.028 -0.1682 -0.1974  0.0183
16265TIP3    H170286   4.697   3.995  12.946 -2.4850  0.8277  1.2577
16265TIP3    H270287   4.798   3.919  13.029 -4.5742 -3.4122  0.1995
16266TIP3   OH270288   4.972   1.173   4.375  0.5488  0.6759  0.1500
16266TIP3    H170289   4.926   1.171   4.459 -0.0887  1.5257 -0.1663
16266TIP3    H270290   5.064   1.187   4.398  0.6117 -0.6580  0.7694
16267TIP3   OH270291   4.306   2.168   2.465 -0.1446 -0.4298  0.3006
16267TIP3    H170292   4.212   2.155   2.476 -0.7436  1.6859 -1.5214
16267TIP3    H270293   4.315   2.261   2.443  2.5527 -0.2212  1.8309
16268TIP3   OH270294   4.108   0.504   1.599  0.3136 -0.3907  0.1883
16268TIP3    H170295   4.095   0.491   1.505 -0.6240 -0.8452  0.3656
16268TIP3    H270296   4.188   0.556   1.605  1.0733 -1.4025 -0.7935
16269TIP3   OH270297   5.779   3.825  12.735  0.1870  0.6266 -0.0029
16269TIP3    H170298   5.700   3.855  12.690  0.4310  0.9284 -0.2364
16269TIP3    H270299   5.818   3.761  12.674 -0.0060  0.2940  0.2200
16270TIP3   OH270300   5.192   1.663   2.301 -0.1161  0.5099  0.6330
16270TIP3    H170301   5.161   1.753   2.288 -1.4690 -0.0853 -0.4305
16270TIP3    H270302   5.287   1.672   2.306 -0.1193  1.8427 -0.8932
16271TIP3   OH270303   5.159   0.465   1.435  0.3230 -0.6796  0.1057
16271TIP3    H170304   5.101   0.404   1.389 -1.7911  0.8333  0.6368
16271TIP3    H270305   5.150   0.547   1.388  0.1640  0.2226  1.6449
16272TIP3   OH270306   6.115   3.438  14.864 -0.0137  0.2201  0.2579
16272TIP3    H170307   6.204   3.467  14.884 -0.0044  1.4995 -1.4272
16272TIP3    H270308   6.126   3.374  14.794 -0.3847  0.0661  0.3403
16273TIP3   OH270309   1.275   4.158   5.413  0.5325 -0.1586 -0.1095
16273TIP3    H170310   1.240   4.174   5.326 -0.0796 -0.3157  0.0968
16273TIP3    H270311   1.207   4.105   5.457  1.3784 -1.1565  0.0482
16274TIP3   OH270312   6.708   3.218  11.242  0.7051  0.0625  0.0185
16274TIP3    H170313   6.681   3.129  11.263  0.0431  0.6540  1.8745
16274TIP3    H270314   6.731   3.215  11.149  3.9547 -2.8231  0.6964
16275TIP3   OH270315   1.314   5.117  10.646 -0.5786  0.0482  0.4418
16275TIP3    H170316   1.386   5.059  10.621 -1.0427 -0.6460  0.7099
16275TIP3    H270317   1.236   5.080  10.605 -0.7725  0.8956  0.0099
16276TIP3   OH270318   5.974   0.767   1.576 -0.0893  0.2485 -0.4317
16276TIP3    H170319   5.967   0.672   1.588  1.0385 -0.2986 -3.2975
16276TIP3    H270320   6.025   0.797   1.651 -0.2184 -1.4456  0.3828
16277TIP3   OH270321   0.477   6.092  13.637 -0.0407 -0.1900 -0.6190
16277TIP3    H170322   0.393   6.120  13.601  0.2650  0.8339 -0.5679
16277TIP3    H270323   0.503   6.019  13.583 -0.4596  0.1669 -1.3196
16278TIP3   OH270324   4.507   0.835  11.026 -0.0997  0.1500  0.3001
16278TIP3    H170325   4.527   0.916  10.979 -3.6509  0.1511 -1.5360
16278TIP3    H270326   4.436   0.858  11.085 -2.0496 -1.7463 -1.1297
16279TIP3   OH270327   2.988   5.502  13.854 -0.2380 -0.2713 -0.3549
16279TIP3    H170328   2.989   5.593  13.884  2.1522 -0.1516 -0.6220
16279TIP3    H270329   3.015   5.452  13.931 -1.9596 -0.8592 -0.0816
16280TIP3   OH270330   3.670   4.108  17.050  0.2311  0.0023 -0.2511
16280TIP3    H170331   3.673   4.023  17.006  1.6348 -0.2090  0.1719
16280TIP3    H270332   3.611   4.161  16.998 -3.3285 -2.1504  1.2157
16281TIP3   OH270333   5.636   3.211   2.645 -0.0860  0.0933  0.0306
16281TIP3    H170334   5.675   3.137   2.598  1.0460  0.1695  0.8104
16281TIP3    H270335   5.649   3.286   2.587  2.3697  0.4223  0.8871
16282TIP3   OH270336   5.469   5.677   1.484  0.8046  0.1421 -0.3131
16282TIP3    H170337   5.551   5.715   1.453 -0.1918  1.3884 -1.6121
16282TIP3    H270338   5.408   5.690   1.411 -0.1848 -2.0518  0.0492
16283TIP3   OH270339   6.524   0.491   1.759 -0.6123 -0.3444  0.2572
16283TIP3    H170340   6.487   0.578   1.742  0.6600  0.0341 -0.7215
16283TIP3    H270341   6.552   0.460   1.674  0.1745 -1.1511  0.7979
16284TIP3   OH270342   4.678   0.831  15.628 -0.1598 -0.4587  0.8741
16284TIP3    H170343   4.600   0.830  15.572 -0.0661 -1.1437  0.7406
16284TIP3    H270344   4.689   0.739  15.654  0.8819 -0.4547  0.5001
16285TIP3   OH270345   1.590   4.245   6.407 -0.0031  0.2732 -0.0151
16285TIP3    H170346   1.640   4.204   6.477 -0.4323 -1.2158 -0.5565
16285TIP3    H270347   1.550   4.322   6.448 -0.1100 -0.4746  1.3195
16286TIP3   OH270348   4.180   5.097   0.739 -0.4344  0.6145  0.2537
16286TIP3    H170349   4.204   5.175   0.689 -0.0343  1.0352  1.0751
16286TIP3    H270350   4.190   5.024   0.677 -0.9888  1.2286 -0.5720
16287TIP3   OH270351   1.923   4.196   2.457  0.8491  0.2063  0.3281
16287TIP3    H170352   1.883   4.127   2.404  1.7483  0.0873 -0.2289
16287TIP3    H270353   1.850   4.252   2.482  0.1764 -0.6472  0.3462
16288TIP3   OH270354   2.008   4.863  11.153 -0.2528 -0.1580 -0.0495
16288TIP3    H170355   2.030   4.775  11.184 -1.2079  0.3917  2.3926
16288TIP3    H270356   1.933   4.850  11.095 -0.9054 -0.9198  0.9298
16289TIP3   OH270357   3.701   3.265   3.365 -0.0645  0.7270 -0.1076
16289TIP3    H170358   3.662   3.203   3.303  0.3504  1.5757 -1.2532
16289TIP3    H270359   3.796   3.256   3.350  0.1223  0.1132  1.2428
16290TIP3   OH270360   5.789   3.512   0.202  0.8494 -1.3216 -0.3176
16290TIP3    H170361   5.872   3.559   0.196 -0.0034  0.1629 -0.8568
16290TIP3    H270362   5.752   3.518   0.114  0.8530 -3.3144 -0.5030
16291TIP3   OH270363   3.058   1.519  10.460 -0.0327 -0.2501 -1.1567
16291TIP3    H170364   3.136   1.568  10.485 -1.0716  0.5778  0.6619
16291TIP3    H270365   3.027   1.480  10.542 -1.3701 -0.7932 -1.8901
16292TIP3   OH270366   5.354   5.007  14.620 -0.3625 -1.1536  0.1643
16292TIP3    H170367   5.405   5.083  14.651 -0.2772 -1.0622 -0.1938
16292TIP3    H270368   5.410   4.932  14.640 -1.0967 -1.2891  1.9446
16293TIP3   OH270369   1.229   4.683  13.674  0.4441  0.8834  0.2978
16293TIP3    H170370   1.301   4.664  13.734 -0.7683  0.7911  1.8002
16293TIP3    H270371   1.262   4.659  13.588  0.9568 -2.7966  1.3612
16294TIP3   OH270372   4.632   3.860   5.619 -0.2182  0.0481 -0.4585
16294TIP3    H170373   4.664   3.788   5.673  0.7229  0.9006  0.1498
16294TIP3    H270374   4.665   3.841   5.531  1.7940  0.7472  0.0865
16295TIP3   OH270375   4.377   2.923   4.265 -0.3123 -0.1519  0.5718
16295TIP3    H170376   4.307   2.946   4.203 -1.2362  0.3171  1.7490
16295TIP3    H270377   4.334   2.923   4.351  1.7278  3.1694  1.7512
16296TIP3   OH270378   6.505   4.437   3.383  0.0576 -0.1064 -0.0402
16296TIP3    H170379   6.555   4.512   3.350  1.0280 -0.7981 -0.2170
16296TIP3    H270380   6.422   4.440   3.335  0.7187 -0.0369 -1.2393
16297TIP3   OH270381   5.568   0.735  10.673  0.2788 -0.1351  0.3323
16297TIP3    H170382   5.502   0.762  10.610  0.6128  1.3295  0.5763
16297TIP3    H270383   5.647   0.784  10.649  0.6491 -0.1875  1.3599
16298TIP3   OH270384   2.885   3.789   6.472 -0.3389  0.4533  0.5679
16298TIP3    H170385   2.861   3.872   6.432  0.4670  1.8297  2.7827
16298TIP3    H270386   2.894   3.728   6.398 -2.1707  1.9696 -1.0087
16299TIP3   OH270387   5.012   2.162   5.114 -0.8215  0.0986  0.1260
16299TIP3    H170388   5.073   2.187   5.044  1.2448 -0.8015  1.5215
16299TIP3    H270389   4.976   2.245   5.145  1.2052  0.8798  0.5423
16300TIP3   OH270390   3.990   3.143  15.380 -0.2723 -0.4843 -0.4567
16300TIP3    H170391   4.048   3.088  15.327  1.4291  0.7921 -0.0332
16300TIP3    H270392   3.933   3.186  15.317  2.2726  1.6623 -1.4771
16301TIP3   OH270393   1.892   0.532  14.940  0.2044 -0.1269  0.4159
16301TIP3    H170394   1.978   0.531  14.980  1.0865  0.9607 -1.3262
16301TIP3    H270395   1.858   0.620  14.957 -0.3295 -0.3596  0.5919
16302TIP3   OH270396   0.785   3.045   1.402 -0.0593  0.6464  0.4047
16302TIP3    H170397   0.876   3.023   1.379 -0.1652  0.1254  0.4722
16302TIP3    H270398   0.778   3.139   1.385 -0.0210  0.3711 -1.3405
16303TIP3   OH270399   1.422   3.786  16.025 -0.3865  0.9050  0.6366
16303TIP3    H170400   1.422   3.700  16.068 -0.5380  0.9218  0.6696
16303TIP3    H270401   1.515   3.803  16.007 -0.4851 -0.3826 -1.5772
16304TIP3   OH270402   5.527   6.053   1.367 -0.0050  0.2409 -0.5793
16304TIP3    H170403   5.602   6.096   1.409 -0.1697  1.6693 -1.6370
16304TIP3    H270404   5.549   5.960   1.368  0.6827  0.3845  1.2200
16305TIP3   OH270405   3.100   1.314  13.140  0.3052  0.2029  0.4266
16305TIP3    H170406   3.180   1.363  13.161  0.7559 -0.9138  1.4219
16305TIP3    H270407   3.089   1.253  13.213 -1.6535  0.5577  0.4718
16306TIP3   OH270408   6.366   3.247   4.804 -0.1160  0.2290 -0.0753
16306TIP3    H170409   6.412   3.171   4.838 -0.9898 -0.4454 -0.3670
16306TIP3    H270410   6.363   3.309   4.877  0.8033  0.0809  0.0883
16307TIP3   OH270411   1.589   2.877   3.026  0.4034  0.1024  1.0178
16307TIP3    H170412   1.620   2.787   3.023  0.4987  0.0664  2.3364
16307TIP3    H270413   1.561   2.897   2.937  0.3787 -1.2302  0.7162
16308TIP3   OH270414   6.590   3.559  11.937  0.2145  0.8810  0.2309
16308TIP3    H170415   6.516   3.591  11.989 -0.8830 -2.2992  0.8671
16308TIP3    H270416   6.650   3.523  12.002  0.4192 -0.1197 -0.4963
16309TIP3   OH270417   5.429   6.286   3.091 -0.2143  0.2664  0.5156
16309TIP3    H170418   5.377   6.270   3.170  0.6570 -1.5133  0.7917
16309TIP3    H270419   5.518   6.298   3.123 -0.0059  0.4754 -0.1343
16310TIP3   OH270420   2.518   1.886   5.722  0.4154 -0.6169  0.2951
16310TIP3    H170421   2.571   1.878   5.643  0.3814  2.7035 -0.2081
16310TIP3    H270422   2.579   1.873   5.794  1.0343 -0.8242 -0.2572
16311TIP3   OH270423   0.437   2.583  14.662  0.2167  0.9835  0.2492
16311TIP3    H170424   0.527   2.576  14.629  0.1421  0.3028  0.1807
16311TIP3    H270425   0.410   2.492  14.677 -0.1274  1.2222  1.1563
16312TIP3   OH270426   6.632   0.183  11.048  0.0539  0.5934 -0.0609
16312TIP3    H170427   6.606   0.099  11.009  0.2543  0.2639  0.5048
16312TIP3    H270428   6.600   0.249  10.986  0.8697  0.0657 -1.0842
16313TIP3   OH270429   4.731   1.665  10.069  0.2853  0.4805  0.3745
16313TIP3    H170430   4.747   1.688  10.161 -1.5394 -2.0042  1.4524
16313TIP3    H270431   4.663   1.597  10.073  0.5848 -0.1736 -2.8017
16314TIP3   OH270432   5.910   5.851  13.682  0.1897  0.1152 -0.0511
16314TIP3    H170433   5.995   5.834  13.725  0.3913  0.1405 -0.4373
16314TIP3    H270434   5.925   5.828  13.590 -0.0346  0.7606 -0.2522
16315TIP3   OH270435   6.042   6.048   3.198 -0.2765 -0.1330 -0.0809
16315TIP3    H170436   6.002   5.993   3.266 -2.0548  0.6609 -0.4424
16315TIP3    H270437   6.094   6.112   3.246  0.6469 -1.2181  0.4005
16316TIP3   OH270438   4.666   1.278   0.064 -0.0646  0.7250  0.4976
16316TIP3    H170439   4.651   1.365   0.029 -0.9587  0.3221 -0.1554
16316TIP3    H270440   4.642   1.285   0.157 -0.5760  1.0540  0.3416
16317TIP3   OH270441   3.540   3.829  13.949  0.1142 -0.1990  0.2555
16317TIP3    H170442   3.563   3.914  13.912  0.3648  0.1173  1.1047
16317TIP3    H270443   3.619   3.800  13.995 -0.0530 -0.7670  0.1958
16318TIP3   OH270444   4.296   2.973   3.089  0.2213 -0.2664  0.1780
16318TIP3    H170445   4.380   2.935   3.114 -0.2943 -1.2886  0.3982
16318TIP3    H270446   4.290   2.959   2.995  0.1307 -0.5204  0.2227
16319TIP3   OH270447   3.365   1.911  16.963 -0.9981 -0.1441  0.4849
16319TIP3    H170448   3.442   1.876  16.918 -1.2567  0.2100 -0.2483
16319TIP3    H270449   3.324   1.835  17.004  0.0082 -0.2654  1.3080
16320TIP3   OH270450   6.736   3.627   1.645 -0.2476  0.2659  0.0736
16320TIP3    H170451   6.743   3.663   1.734  0.1993  1.0690 -0.2780
16320TIP3    H270452   6.753   3.533   1.656  1.3573  0.5985  0.6349
16321TIP3   OH270453   4.610   1.499   0.818  0.1064 -0.0664  0.1463
16321TIP3    H170454   4.543   1.433   0.833 -1.4766  1.0761 -1.4600
16321TIP3    H270455   4.583   1.544   0.737  2.1186  1.2993  0.1381
16322TIP3   OH270456   3.448   4.082  15.127 -0.0793  0.1227 -0.2361
16322TIP3    H170457   3.543   4.073  15.136 -0.1126 -1.8624 -1.1524
16322TIP3    H270458   3.436   4.153  15.064  0.6978  1.4695  1.0695
16323TIP3   OH270459   5.741   5.526   2.255  0.0861 -0.3323 -0.1024
16323TIP3    H170460   5.823   5.575   2.254  0.1838 -0.4202  1.3798
16323TIP3    H270461   5.765   5.439   2.224  0.5127 -0.2918  0.1063
16324TIP3   OH270462   4.089   4.074  11.603  0.1042 -0.0917 -0.5341
16324TIP3    H170463   4.064   4.151  11.655  0.1735  1.3714 -2.5633
16324TIP3    H270464   4.060   4.095  11.514  1.0506 -1.9948 -1.3370
16325TIP3   OH270465   2.675   5.841  13.498  0.7161  0.1738 -0.4690
16325TIP3    H170466   2.705   5.770  13.441 -0.7338  0.1126 -1.2001
16325TIP3    H270467   2.698   5.814  13.586  2.9429  0.2213 -0.9782
16326TIP3   OH270468   2.709   3.645   3.496 -0.3624 -0.2845  0.1369
16326TIP3    H170469   2.639   3.700   3.531  0.3710  0.0632  1.0759
16326TIP3    H270470   2.734   3.687   3.414  0.6083  1.1674  1.1307
16327TIP3   OH270471   2.877   4.061  15.149  0.1845 -0.0081  0.6750
16327TIP3    H170472   2.940   4.089  15.083  2.0086  1.4251  2.8313
16327TIP3    H270473   2.822   4.138  15.163  1.0657  0.3991  2.1143
16328TIP3   OH270474   2.356   3.983  14.382  0.1475  0.2282  0.4121
16328TIP3    H170475   2.428   4.046  14.388  1.4621 -1.2930  1.1371
16328TIP3    H270476   2.395   3.907  14.339 -1.5544  0.0773 -0.9584
16329TIP3   OH270477   2.169   1.654   2.839 -0.9254 -0.1391 -0.0012
16329TIP3    H170478   2.096   1.592   2.830 -2.0112  0.9340  1.1277
16329TIP3    H270479   2.219   1.622   2.914 -0.4835 -0.6118 -0.4891
16330TIP3   OH270480   5.972   2.792  15.766  0.0351  0.2099 -0.3331
16330TIP3    H170481   6.008   2.830  15.686 -0.4220  0.1434 -0.5710
16330TIP3    H270482   5.888   2.756  15.740  0.0877 -0.2189  0.0794
16331TIP3   OH270483   4.584   0.736  14.739 -0.2178  0.1669 -0.3532
16331TIP3    H170484   4.590   0.641  14.753  0.4930  0.2982  0.2952
16331TIP3    H270485   4.654   0.773  14.792 -1.1269  1.1414  0.2175
16332TIP3   OH270486   0.830   3.548  13.389 -0.6659  0.3505 -0.3566
16332TIP3    H170487   0.836   3.610  13.316 -1.3984 -0.9407 -1.5747
16332TIP3    H270488   0.894   3.579  13.453  0.0719  1.4729 -1.5907
16333TIP3   OH270489   6.302   3.603  15.637 -0.2846  0.4067 -0.0885
16333TIP3    H170490   6.295   3.521  15.588 -1.0239  0.1708  0.3976
16333TIP3    H270491   6.386   3.597  15.683  0.1709  0.3999 -0.8913
16334TIP3   OH270492   5.467   5.458   5.592 -0.1629  0.1149  0.0370
16334TIP3    H170493   5.486   5.475   5.684 -0.3086  2.3738 -0.2911
16334TIP3    H270494   5.544   5.490   5.545  0.2607 -1.7464 -0.6390
16335TIP3   OH270495   6.746   1.231  15.088  1.0465 -0.4423 -0.1743
16335TIP3    H170496   6.793   1.303  15.045 -0.2096  1.4008  1.3169
16335TIP3    H270497   6.752   1.158  15.027  0.0260  1.7543 -3.1839
16336TIP3   OH270498   4.728   2.349  16.504  0.2133 -0.0097 -0.0746
16336TIP3    H170499   4.824   2.348  16.496  0.3234  0.2480  1.0813
16336TIP3    H270500   4.712   2.365  16.597 -0.9698 -1.8647  0.0712
16337TIP3   OH270501   0.094   6.414  13.916  0.3221 -0.0482 -0.5454
16337TIP3    H170502   0.154   6.477  13.875  0.7680 -0.3846 -0.4114
16337TIP3    H270503   0.094   6.339  13.857 -1.8435  0.8634 -1.8345
16338TIP3   OH270504   4.398   1.431   1.824 -0.1175 -0.2097 -0.5084
16338TIP3    H170505   4.380   1.365   1.758 -0.0745  0.8051 -1.5536
16338TIP3    H270506   4.315   1.443   1.870 -0.4991  0.0535 -1.2696
16339TIP3   OH270507   4.397   0.980  16.730  0.7355  0.3358 -0.6218
16339TIP3    H170508   4.459   0.946  16.666 -0.0069 -0.3542 -1.0001
16339TIP3    H270509   4.346   1.045  16.683 -1.1512 -1.5689 -1.3858
16340TIP3   OH270510   0.389   1.000   0.542  0.5335  0.1644 -0.0960
16340TIP3    H170511   0.381   1.080   0.594  0.7762  0.2111 -0.1324
16340TIP3    H270512   0.352   1.023   0.457  1.4694  0.5215 -0.4151
16341TIP3   OH270513   5.566   4.523  17.036  0.2522 -0.2896  0.0068
16341TIP3    H170514   5.648   4.563  17.005 -0.3955  0.9642 -0.1634
16341TIP3    H270515   5.528   4.483  16.958  0.3637 -0.2566 -0.0649
16342TIP3   OH270516   1.252   4.089  12.293  0.4106 -0.3974 -0.2515
16342TIP3    H170517   1.293   4.018  12.342 -1.0317  0.1642  1.9105
16342TIP3    H270518   1.158   4.070  12.296  0.0274  1.3684  0.0452
16343TIP3   OH270519   3.170   2.972   3.909  0.0787  0.3044 -0.0892
16343TIP3    H170520   3.196   2.909   3.976  2.1061 -0.8810 -1.8437
16343TIP3    H270521   3.156   3.054   3.956 -0.7428 -0.9750  2.0152
16344TIP3   OH270522   2.514   0.327   1.988  0.0813  0.2626  0.1895
16344TIP3    H170523   2.581   0.378   2.034  0.3157  0.4134 -0.3150
16344TIP3    H270524   2.489   0.259   2.051 -0.2058  0.9643  0.8557
16345TIP3   OH270525   5.380   0.932  11.066  0.0250  0.3760 -0.2452
16345TIP3    H170526   5.374   0.836  11.073 -0.1943  0.3990 -0.0990
16345TIP3    H270527   5.359   0.951  10.975  2.7463  0.0790 -1.0206
16346TIP3   OH270528   3.299   4.705  15.628 -0.3257 -0.2026 -0.0583
16346TIP3    H170529   3.233   4.739  15.569 -0.6666  0.6377  0.7860
16346TIP3    H270530   3.301   4.611  15.611  0.4579  0.1576 -2.2503
16347TIP3   OH270531   0.984   5.845  15.758  0.2570 -0.4975  0.7083
16347TIP3    H170532   0.934   5.764  15.757  0.0294 -0.3590  0.8273
16347TIP3    H270533   1.076   5.817  15.759  0.2572 -0.7603 -1.4362
16348TIP3   OH270534   3.480   2.671  15.293 -0.2491  0.0393 -0.4164
16348TIP3    H170535   3.493   2.744  15.233  2.1903  0.2665  0.2631
16348TIP3    H270536   3.423   2.611  15.246 -1.5165  1.9107 -1.3763
16349TIP3   OH270537   2.984   0.787   1.205 -0.2565 -0.3274  0.5458
16349TIP3    H170538   3.024   0.755   1.124 -0.1807 -0.9679  0.8311
16349TIP3    H270539   2.978   0.882   1.192 -1.0307 -0.5013 -0.5605
16350TIP3   OH270540   6.195   2.732  16.274  0.6823 -0.1033  0.3459
16350TIP3    H170541   6.143   2.810  16.254  0.6900 -0.2928 -0.4330
16350TIP3    H270542   6.209   2.690  16.189 -0.5853 -1.7567  0.8989
16351TIP3   OH270543   4.919   1.904  11.469 -0.0330  0.3196  0.1305
16351TIP3    H170544   5.008   1.918  11.437 -0.0634 -1.8071 -1.0756
16351TIP3    H270545   4.864   1.946  11.403  0.0331  0.4641  0.1658
16352TIP3   OH270546   6.305   2.188   3.683  0.4969  0.5510 -0.4523
16352TIP3    H170547   6.392   2.149   3.674  0.6624  1.0521 -1.0938
16352TIP3    H270548   6.245   2.120   3.653  0.4681 -0.6353  2.0754
16353TIP3   OH270549   5.420   6.589  14.742  0.0455  0.7434  0.5801
16353TIP3    H170550   5.364   6.535  14.688  0.8403 -0.9808  1.4104
16353TIP3    H270551   5.509   6.570  14.712  0.4572  0.1986  2.0657
16354TIP3   OH270552   0.707   1.142  13.451 -0.1399 -0.3389  0.2733
16354TIP3    H170553   0.748   1.212  13.502 -0.3079 -0.6804  0.8972
16354TIP3    H270554   0.779   1.085  13.426 -0.0950 -0.3428  0.4106
16355TIP3   OH270555   6.844   4.322   5.021 -0.3240  0.1813  0.6422
16355TIP3    H170556   6.767   4.379   5.010  0.3351  1.5940  2.7557
16355TIP3    H270557   6.919   4.379   5.004  0.3447 -0.0968  2.4537
16356TIP3   OH270558   1.614   3.757  13.755  0.0480 -0.3419 -0.3306
16356TIP3    H170559   1.603   3.725  13.666 -1.1467  1.0837 -0.7465
16356TIP3    H270560   1.600   3.852  13.748  0.5790 -0.1150  1.2675
16357TIP3   OH270561   6.195   3.852  15.717 -0.1678  0.1526 -0.0885
16357TIP3    H170562   6.226   3.761  15.709 -0.5771 -0.0092  0.1213
16357TIP3    H270563   6.251   3.902  15.659  0.3446 -0.1725  0.1206
16358TIP3   OH270564   2.064   3.984  12.121 -0.5944 -0.3876  0.3505
16358TIP3    H170565   2.154   3.968  12.091 -0.4484 -0.2023  0.6775
16358TIP3    H270566   2.055   3.928  12.199 -1.4741 -2.0269 -0.8775
16359TIP3   OH270567   5.173   3.455   3.572 -0.0201  0.2678  0.4262
16359TIP3    H170568   5.167   3.550   3.580  2.8817  0.4371  1.9462
16359TIP3    H270569   5.108   3.422   3.635  0.4911  1.2944  1.5344
16360TIP3   OH270570   6.597   4.705   2.577 -0.0101 -0.1872 -0.5276
16360TIP3    H170571   6.554   4.789   2.563 -0.1473 -0.1520  0.0772
16360TIP3    H270572   6.636   4.713   2.664  2.2025  0.2103 -1.4863
16361TIP3   OH270573   6.229   4.651  15.623  0.5059  0.2083  0.0687
16361TIP3    H170574   6.199   4.741  15.613  1.6400  0.6568  0.5401
16361TIP3    H270575   6.159   4.608  15.673  0.1169  0.9165  0.1450
16362TIP3   OH270576   6.543   4.182  15.329 -0.3632 -0.3181  0.3697
16362TIP3    H170577   6.545   4.274  15.355 -0.2346 -0.3287  0.3977
16362TIP3    H270578   6.603   4.176  15.255 -0.6572 -0.3058  0.1274
16363TIP3   OH270579   4.341   2.431   0.013  0.2803  0.3433 -0.3983
16363TIP3    H170580   4.371   2.442  -0.077  1.6662  2.0643  0.2127
16363TIP3    H270581   4.341   2.336   0.027  1.4854  0.1182 -1.7411
16364TIP3   OH270582   5.561   2.084   1.765 -0.1847  0.3301  0.3280
16364TIP3    H170583   5.499   2.154   1.787 -0.7373  0.0338 -0.2328
16364TIP3    H270584   5.521   2.040   1.690  1.3566  0.9601 -0.9083
16365TIP3   OH270585   5.572   5.945   3.320 -0.0550 -0.2874  0.0149
16365TIP3    H170586   5.500   5.966   3.262  0.0623  0.9328  0.2761
16365TIP3    H270587   5.559   5.852   3.342 -0.9000 -0.3817 -0.8023
16366TIP3   OH270588   0.350   3.579   4.866  0.1875 -0.2074 -0.3534
16366TIP3    H170589   0.424   3.631   4.897 -0.8516  3.1089 -2.7814
16366TIP3    H270590   0.357   3.496   4.912  3.3142  1.2626  2.1845
16367TIP3   OH270591   1.861   0.121   5.026  0.4608 -0.0868  0.6100
16367TIP3    H170592   1.780   0.171   5.019  0.7330  0.3401  0.5017
16367TIP3    H270593   1.899   0.122   4.938  0.0515 -1.1971  0.4097
16368TIP3   OH270594   3.854   1.522   1.673  0.1048  0.0318 -0.0283
16368TIP3    H170595   3.820   1.455   1.732  0.7326  0.0950  0.4182
16368TIP3    H270596   3.787   1.531   1.606 -1.2173  0.8672  1.3594
16369TIP3   OH270597   0.769   2.199   5.219 -0.9000 -0.3121 -0.6089
16369TIP3    H170598   0.790   2.107   5.201  1.4953  0.1973 -0.7198
16369TIP3    H270599   0.724   2.197   5.304 -0.1829 -1.5243 -0.2246
16370TIP3   OH270600   0.368   4.637   4.109  0.1715 -0.1091 -0.1584
16370TIP3    H170601   0.410   4.551   4.101  2.8761  1.1164 -0.0570
16370TIP3    H270602   0.433   4.692   4.152 -2.4500  1.3789  2.3139
16371TIP3   OH270603   2.837   1.633  16.958 -0.2154 -0.4687 -0.2652
16371TIP3    H170604   2.795   1.640  16.872  1.7085 -1.1888 -1.3287
16371TIP3    H270605   2.879   1.548  16.958 -0.8875 -0.8641  1.7897
16372TIP3   OH270606   1.989   3.730  11.568  0.1207  0.1439 -0.3595
16372TIP3    H170607   1.982   3.780  11.487 -0.0184 -1.3819 -1.3133
16372TIP3    H270608   1.919   3.765  11.624 -0.9320  0.0364 -1.5558
16373TIP3   OH270609   0.244   4.520   2.912 -0.0147 -0.4215 -1.2827
16373TIP3    H170610   0.219   4.560   2.829 -2.6998 -1.0459 -0.8584
16373TIP3    H270611   0.185   4.446   2.922 -1.7527  1.1975  2.4409
16374TIP3   OH270612   4.475   6.232  12.567 -0.2327  0.3572 -0.0531
16374TIP3    H170613   4.470   6.259  12.659  0.1710 -0.4396  0.2139
16374TIP3    H270614   4.564   6.198  12.557 -0.4717 -0.1277 -0.5758
16375TIP3   OH270615   0.711   0.210  13.081 -0.3156  0.0459  0.3158
16375TIP3    H170616   0.786   0.266  13.103 -0.2990  1.1797 -2.2914
16375TIP3    H270617   0.710   0.143  13.150  0.7374  2.1974  2.5858
16376TIP3   OH270618   2.604   4.021  16.589  0.3719 -0.1038 -0.1625
16376TIP3    H170619   2.532   4.050  16.534 -0.2549  0.9152  1.1444
16376TIP3    H270620   2.675   4.003  16.528 -0.6772 -0.2209 -1.3955
16377TIP3   OH270621   6.128   2.806   3.006  0.8737 -0.1334 -0.0316
16377TIP3    H170622   6.200   2.857   2.970  1.2778  0.0684  1.0172
16377TIP3    H270623   6.115   2.843   3.094 -0.6896  0.0295 -0.2961
16378TIP3   OH270624   3.820   0.952  15.832  0.4649  0.0472  0.0311
16378TIP3    H170625   3.763   1.028  15.826  0.3251 -0.0915 -0.5310
16378TIP3    H270626   3.880   0.961  15.757  0.4253 -0.4078 -0.0598
16379TIP3   OH270627   1.703   4.864   2.937  0.2075 -0.4186 -0.1358
16379TIP3    H170628   1.646   4.805   2.986  1.3240 -0.5933  0.9806
16379TIP3    H270629   1.678   4.850   2.845 -3.5071  1.5606  0.3838
16380TIP3   OH270630   5.388   5.427  15.610 -0.1008 -0.1100  0.4446
16380TIP3    H170631   5.341   5.486  15.669  0.9006  0.5068  0.6618
16380TIP3    H270632   5.473   5.415  15.652  0.5634  0.1714 -0.7679
16381TIP3   OH270633   4.358   0.421  17.132 -0.4956  0.6323 -0.0646
16381TIP3    H170634   4.318   0.343  17.094  0.0030  1.2468 -1.9226
16381TIP3    H270635   4.353   0.406  17.227 -1.1074 -1.2803 -0.3549
16382TIP3   OH270636   0.704   5.553  16.659 -0.1313  0.4844  0.5459
16382TIP3    H170637   0.751   5.511  16.731 -1.5758 -0.4902  0.9654
16382TIP3    H270638   0.710   5.647  16.678 -1.4578  0.2111  2.6165
16383TIP3   OH270639   1.800   1.232  11.070 -1.0001  0.2282 -0.2593
16383TIP3    H170640   1.770   1.255  11.158  0.6348 -0.3473  0.4807
16383TIP3    H270641   1.842   1.311  11.037  0.5458 -0.2383  0.4794
16384TIP3   OH270642   1.894   5.137  13.326 -0.0873  0.6892  0.7898
16384TIP3    H170643   1.872   5.170  13.413 -0.9598  0.6838  0.5769
16384TIP3    H270644   1.883   5.213  13.268 -0.0194  0.5628  0.6098
16385TIP3   OH270645   3.467   2.501  11.643  0.3159  0.3965 -0.3275
16385TIP3    H170646   3.502   2.586  11.671  2.2251 -0.4089 -0.0683
16385TIP3    H270647   3.507   2.486  11.557 -0.4801  0.0219 -0.6389
16386TIP3   OH270648   6.188   1.231   3.952 -0.3159 -0.4422  0.8108
16386TIP3    H170649   6.257   1.204   3.891 -1.5486 -0.5030 -0.6117
16386TIP3    H270650   6.107   1.219   3.903 -1.3095  0.2086  2.2362
16387TIP3   OH270651   1.513   0.979  15.794 -0.2933  0.0347  0.5647
16387TIP3    H170652   1.580   0.916  15.818 -0.9735 -1.0949 -0.4090
16387TIP3    H270653   1.475   1.006  15.878  0.2912 -0.5143  1.0151
16388TIP3   OH270654   0.441   5.449   0.360  0.3605 -0.4856  1.0733
16388TIP3    H170655   0.506   5.447   0.290 -0.1425  0.2559  0.5646
16388TIP3    H270656   0.482   5.502   0.429  0.6580 -0.7932  1.1318
16389TIP3   OH270657   1.443   3.521  16.965  0.0230 -0.2728  0.1325
16389TIP3    H170658   1.503   3.453  16.937 -0.4429 -0.9027  0.6187
16389TIP3    H270659   1.358   3.495  16.929 -0.3194 -0.3918  0.9906
16390TIP3   OH270660   1.497   1.355  15.555  0.1574 -0.5689 -0.0224
16390TIP3    H170661   1.571   1.303  15.587  1.9058  1.1170 -1.1373
16390TIP3    H270662   1.512   1.442  15.592 -1.9510 -0.4728  0.6896
16391TIP3   OH270663   0.622   0.328  15.892  0.4139 -0.3168 -0.3685
16391TIP3    H170664   0.700   0.350  15.841  0.5752 -0.5905 -0.2376
16391TIP3    H270665   0.644   0.247  15.937  1.0728  0.9787  1.8045
16392TIP3   OH270666   1.274   3.633   1.070  0.3198  0.0155  0.0260
16392TIP3    H170667   1.351   3.598   1.024  0.3752  0.9553 -0.6178
16392TIP3    H270668   1.234   3.556   1.110  1.6767 -0.4738  0.5114
16393TIP3   OH270669   1.115   6.471  11.556 -0.2928  0.2381  0.0451
16393TIP3    H170670   1.151   6.471  11.467 -1.4368  0.1789 -0.4429
16393TIP3    H270671   1.027   6.506  11.546 -2.0238 -3.4570  0.4475
16394TIP3   OH270672   4.163   3.567   4.928  0.3125 -0.3526 -0.3284
16394TIP3    H170673   4.249   3.610   4.931  0.4127 -0.5691 -0.0689
16394TIP3    H270674   4.102   3.634   4.959  0.1194  0.4409 -2.3282
16395TIP3   OH270675   3.094   2.343   1.886 -0.0627 -0.1596  0.0310
16395TIP3    H170676   3.108   2.278   1.818 -1.2183 -0.3123 -0.0813
16395TIP3    H270677   3.035   2.408   1.847 -1.1850 -0.5316  1.0160
16396TIP3   OH270678   3.657   0.250   5.638 -0.7375  0.0581 -0.5589
16396TIP3    H170679   3.692   0.190   5.572  0.8577 -0.5726  0.7741
16396TIP3    H270680   3.588   0.200   5.683  1.5122 -1.4747  1.4880
16397TIP3   OH270681   4.077   0.440   1.301 -0.6838  0.0386  0.4440
16397TIP3    H170682   4.027   0.380   1.246  0.7378 -0.1156 -0.7655
16397TIP3    H270683   4.166   0.437   1.264  0.0061  0.9550  1.9512
16398TIP3   OH270684   3.178   1.590   0.891 -0.5701 -0.1449 -0.4468
16398TIP3    H170685   3.215   1.661   0.840 -0.1409 -1.3221 -1.8356
16398TIP3    H270686   3.095   1.569   0.847  1.1596 -3.1326 -2.6462
16399TIP3   OH270687   2.056   1.002   2.473 -0.1947 -0.1324  0.9214
16399TIP3    H170688   2.057   0.933   2.407 -1.7957  0.2671  0.4411
16399TIP3    H270689   2.148   1.015   2.495  0.4520  0.0633 -1.5816
16400TIP3   OH270690   4.804   4.500   0.639  0.0553 -0.0171 -0.4418
16400TIP3    H170691   4.849   4.560   0.580 -0.9979  0.6028 -0.6381
16400TIP3    H270692   4.863   4.490   0.714  0.7965  0.2606 -0.9883
16401TIP3   OH270693   5.649   1.872   3.187  0.0440  0.2315  0.4178
16401TIP3    H170694   5.744   1.879   3.198 -0.0265  1.1152  0.5076
16401TIP3    H270695   5.638   1.820   3.107  0.6134  0.8177 -0.0499
16402TIP3   OH270696   2.049   3.276  11.879 -0.2476  0.1418 -0.5088
16402TIP3    H170697   2.033   3.301  11.788 -1.5263 -1.7060 -0.8517
16402TIP3    H270698   2.143   3.288  11.891  0.0276  0.0314 -2.2096
16403TIP3   OH270699   4.049   6.274   3.715 -0.1135 -0.1331  0.1225
16403TIP3    H170700   3.977   6.270   3.652 -0.2434 -0.9800  0.3052
16403TIP3    H270701   4.041   6.192   3.764 -1.1050  1.2554  2.4462
16404TIP3   OH270702   2.663   0.625   4.013 -0.0888 -0.0772 -0.2348
16404TIP3    H170703   2.659   0.719   3.994 -0.3111  0.7732  3.2333
16404TIP3    H270704   2.756   0.609   4.028 -0.1011 -0.3043 -0.4118
16405TIP3   OH270705   4.305   1.400   4.743 -0.0569  0.5184  0.0131
16405TIP3    H170706   4.322   1.464   4.674 -0.2732  0.4826 -0.0743
16405TIP3    H270707   4.388   1.352   4.752 -0.0639  0.4446 -0.3019
16406TIP3   OH270708   6.756   1.853   1.362  0.0163  0.1971 -0.0999
16406TIP3    H170709   6.794   1.928   1.318  0.2460  0.4627  0.5332
16406TIP3    H270710   6.770   1.870   1.455 -2.2809  0.6639  0.2098
16407TIP3   OH270711   0.560   4.928  15.773 -0.6539  0.4518  0.5312
16407TIP3    H170712   0.647   4.906  15.742 -1.2200 -0.8132 -0.2490
16407TIP3    H270713   0.568   4.931  15.868  0.2563  0.5038  0.4593
16408TIP3   OH270714   6.048   5.136  13.953 -0.2940 -0.7324 -0.2772
16408TIP3    H170715   6.052   5.231  13.966 -0.7785 -0.8363  0.6729
16408TIP3    H270716   5.959   5.121  13.920 -0.4282 -0.9228  0.1692
16409TIP3   OH270717   1.861   3.200  14.442  0.3320 -0.1803 -0.2415
16409TIP3    H170718   1.772   3.169  14.429  0.7350 -1.6917  0.4242
16409TIP3    H270719   1.866   3.220  14.535  0.8426 -0.6059 -0.1768
16410TIP3   OH270720   1.417   3.736  13.242 -0.0885 -0.0861 -0.0268
16410TIP3    H170721   1.369   3.657  13.217 -0.2774 -0.4950  1.5114
16410TIP3    H270722   1.491   3.739  13.181  0.0041 -1.5439 -0.0397
16411TIP3   OH270723   5.620   4.893   3.487  0.0817 -0.2883  0.2696
16411TIP3    H170724   5.605   4.808   3.447 -0.9568 -0.4010  0.8654
16411TIP3    H270725   5.538   4.941   3.473  0.3154  0.2725  0.7680
16412TIP3   OH270726   5.620   6.602  11.939 -0.1735 -0.3873  0.3917
16412TIP3    H170727   5.667   6.521  11.920  0.0098  0.0441 -1.1240
16412TIP3    H270728   5.532   6.575  11.964  0.2728 -1.1026  1.2383
16413TIP3   OH270729   4.633   3.494   4.852 -0.4463 -0.1739  0.0245
16413TIP3    H170730   4.660   3.510   4.942 -0.0557 -0.0406 -0.1108
16413TIP3    H270731   4.716   3.480   4.805 -0.7375 -2.9010  0.1650
16414TIP3   OH270732   1.827   3.576   3.231 -0.2151 -0.8562 -0.6789
16414TIP3    H170733   1.834   3.495   3.282 -2.6260 -0.1422  0.9458
16414TIP3    H270734   1.907   3.625   3.251  0.0266 -1.6788  0.4534
16415TIP3   OH270735   0.153   3.323  16.484  0.0746  0.8438 -0.2843
16415TIP3    H170736   0.085   3.278  16.533  0.2779  1.1507  0.2920
16415TIP3    H270737   0.201   3.254  16.440 -0.8502  0.6473 -1.0252
16416TIP3   OH270738   0.827   5.274   2.633 -0.7215  0.1041 -0.0861
16416TIP3    H170739   0.825   5.223   2.552 -1.9039  0.2982 -0.1914
16416TIP3    H270740   0.737   5.301   2.647 -0.2910  1.2933  0.5282
16417TIP3   OH270741   4.486   5.750   0.862  0.1923  0.5546  0.6763
16417TIP3    H170742   4.392   5.735   0.870 -0.3171  2.5575 -0.9442
16417TIP3    H270743   4.511   5.701   0.784  0.1376  1.3800  0.1305
16418TIP3   OH270744   2.653   0.315  16.138 -0.4290  0.6064 -0.3454
16418TIP3    H170745   2.671   0.353  16.224  0.1168  1.1027 -0.6706
16418TIP3    H270746   2.633   0.223  16.156 -2.3950  1.1450  0.5268
16419TIP3   OH270747   3.693   1.535  13.866  0.3480  0.0443 -0.2055
16419TIP3    H170748   3.598   1.522  13.867  0.5914 -2.3833 -0.7953
16419TIP3    H270749   3.724   1.487  13.943  1.2251 -1.0831 -1.2208
16420TIP3   OH270750   1.873   4.175   0.713  0.1610 -0.8501 -0.0192
16420TIP3    H170751   1.942   4.116   0.682  1.5954  1.0531 -0.6050
16420TIP3    H270752   1.836   4.213   0.633  2.7138  2.7848  0.3011
16421TIP3   OH270753   0.616   3.757   1.556 -0.1693  0.2435 -0.1392
16421TIP3    H170754   0.675   3.822   1.518  1.1148 -1.0300 -0.4157
16421TIP3    H270755   0.665   3.719   1.628 -1.7316  1.0589  1.4308
16422TIP3   OH270756   4.556   1.803   5.120  0.1991  0.0507  0.0928
16422TIP3    H170757   4.576   1.712   5.101  1.2163 -0.0104  1.3008
16422TIP3    H270758   4.626   1.831   5.179  0.8626  2.1088 -1.5393
16423TIP3   OH270759   3.236   3.253   1.952  0.2049  0.0726  0.5336
16423TIP3    H170760   3.327   3.270   1.927  0.5119 -2.4307 -0.4021
16423TIP3    H270761   3.193   3.227   1.871 -0.7883 -0.7818  1.3039
16424TIP3   OH270762   2.030   2.857  13.278 -0.0755 -0.0272 -0.3442
16424TIP3    H170763   2.107   2.914  13.278 -0.1177  0.0533  0.6406
16424TIP3    H270764   1.973   2.892  13.210 -0.1611  1.2188  0.3352
16425TIP3   OH270765   0.062   1.154   5.204  0.0993  0.2173 -0.3012
16425TIP3    H170766   0.129   1.169   5.271  0.1332  0.9193 -0.4812
16425TIP3    H270767  -0.011   1.114   5.251  0.6449 -0.5510 -0.1034
16426TIP3   OH270768   0.336   3.479   5.217  0.3272  0.3681 -0.2457
16426TIP3    H170769   0.290   3.442   5.293 -0.4087 -0.0145 -0.8644
16426TIP3    H270770   0.293   3.563   5.201  1.1166  0.8966  0.3370
16427TIP3   OH270771   2.764   0.079  11.115  0.4196  0.1718  0.8555
16427TIP3    H170772   2.701   0.150  11.127  0.1501 -0.0538  0.7990
16427TIP3    H270773   2.827   0.112  11.051  1.8181  1.3665  2.7261
16428TIP3   OH270774   4.072   3.694  11.162 -0.1382  0.3371 -0.6842
16428TIP3    H170775   4.084   3.729  11.073  0.9968 -1.4860 -1.3121
16428TIP3    H270776   4.114   3.608  11.159 -2.4564 -0.9485  0.8571
16429TIP3   OH270777   6.014   3.186  11.645 -0.7394 -0.1447  0.5171
16429TIP3    H170778   6.104   3.154  11.638 -1.0149 -0.8350 -0.0764
16429TIP3    H270779   5.988   3.203  11.555 -0.1470  3.2112  0.8622
16430TIP3   OH270780   5.307   6.316  12.274  0.7080 -0.0240  0.2614
16430TIP3    H170781   5.275   6.406  12.282  0.6388  0.1892 -1.7678
16430TIP3    H270782   5.301   6.281  12.362 -3.7326  0.4659  0.4221
16431TIP3   OH270783   5.746   5.860   3.107 -0.1359  0.2375 -0.2092
16431TIP3    H170784   5.715   5.933   3.161 -1.3955  0.8424 -1.6810
16431TIP3    H270785   5.801   5.901   3.040  0.5900 -0.3855 -0.0124
16432TIP3   OH270786   0.705   3.027   5.310 -0.3242  0.3671  0.0849
16432TIP3    H170787   0.641   3.097   5.322 -0.6461 -0.2344  2.1641
16432TIP3    H270788   0.700   2.975   5.390  0.5845 -1.5067 -1.0021
16433TIP3   OH270789   6.777   5.324  16.414  0.2815  0.3260 -0.6029
16433TIP3    H170790   6.752   5.300  16.325 -0.5279  0.2116 -0.3504
16433TIP3    H270791   6.747   5.414  16.424  0.0099  0.2036 -0.3065
16434TIP3   OH270792   4.130   5.433  13.616 -0.2114  0.0129  0.0477
16434TIP3    H170793   4.140   5.385  13.699 -0.5757  2.7286  1.7787
16434TIP3    H270794   4.052   5.395  13.576 -2.3068  1.0390  2.8365
16435TIP3   OH270795   0.338   3.462   0.245 -0.1272  0.3499  0.0968
16435TIP3    H170796   0.351   3.448   0.339 -1.3901  1.1611  0.4155
16435TIP3    H270797   0.422   3.496   0.214  0.7009 -1.0966  0.6695
16436TIP3   OH270798   5.526   4.051  11.237 -1.1540 -0.2591 -0.6492
16436TIP3    H170799   5.535   4.114  11.165 -0.4382 -2.1633 -2.3178
16436TIP3    H270800   5.431   4.038  11.246 -1.3441  1.4268  0.1173
16437TIP3   OH270801   2.996   6.636  10.803 -0.0821  0.4340  0.1739
16437TIP3    H170802   3.042   6.666  10.725 -0.9692  1.6435  0.0815
16437TIP3    H270803   2.937   6.568  10.771  1.5296 -1.0921  0.2878
16438TIP3   OH270804   5.434   4.201  12.275  0.2421 -0.3149  0.1973
16438TIP3    H170805   5.485   4.170  12.200  1.7416 -1.1080  1.4941
16438TIP3    H270806   5.378   4.127  12.298 -0.1730 -0.0931 -0.0835
16439TIP3   OH270807   0.693   4.979   5.004  0.1171  0.2865 -0.4152
16439TIP3    H170808   0.682   4.982   4.909 -1.9906  0.4625 -0.1985
16439TIP3    H270809   0.652   5.059   5.036  0.3309 -0.0277  0.6980
16440TIP3   OH270810   2.018   5.153   4.444  0.2927  0.4637  0.5393
16440TIP3    H170811   1.974   5.230   4.480  1.1635  1.7875 -1.0539
16440TIP3    H270812   2.112   5.173   4.452  0.5240  0.0414 -0.7516
16441TIP3   OH270813   5.306   3.059  11.129 -0.0525 -0.4023  0.0531
16441TIP3    H170814   5.384   3.036  11.180 -0.1966  1.2094  1.0626
16441TIP3    H270815   5.337   3.061  11.038  1.1030  0.2162  0.4325
16442TIP3   OH270816   0.630   2.065  14.860  0.3965  0.6559  0.1140
16442TIP3    H170817   0.653   2.097  14.773  0.0256 -0.2145 -0.3165
16442TIP3    H270818   0.637   2.142  14.917 -2.9410  2.2146 -1.3062
16443TIP3   OH270819   0.803   6.450   4.098  0.6688 -0.1864 -0.3207
16443TIP3    H170820   0.861   6.429   4.171  0.5052 -0.8286 -0.3668
16443TIP3    H270821   0.806   6.545   4.091 -0.5160  0.0474  1.5207
16444TIP3   OH270822   0.135   5.593   5.972 -0.0937  0.1781  0.1940
16444TIP3    H170823   0.180   5.613   6.053 -0.8351 -1.4898  1.0712
16444TIP3    H270824   0.058   5.543   5.999  0.5709 -2.0062 -1.5923
16445TIP3   OH270825   5.310   3.558   2.201  0.5882  0.8498 -0.0881
16445TIP3    H170826   5.351   3.491   2.146  0.2060  0.3440  0.2384
16445TIP3    H270827   5.379   3.586   2.261  0.5836  0.3144  0.1725
16446TIP3   OH270828   1.406   4.288   3.404 -0.1504  0.5195 -0.3473
16446TIP3    H170829   1.403   4.382   3.387 -1.5737  0.4688 -0.4866
16446TIP3    H270830   1.486   4.258   3.360 -0.0572  1.5402 -0.9017
16447TIP3   OH270831   2.899   4.579  13.746  0.4880 -0.3056 -0.0021
16447TIP3    H170832   2.817   4.535  13.724  1.0990 -2.1437  1.1345
16447TIP3    H270833   2.873   4.667  13.771 -1.3813 -1.2760  1.8014
16448TIP3   OH270834   6.555   3.973  16.292  0.1268 -0.5727 -0.2466
16448TIP3    H170835   6.601   3.892  16.316  2.4176  0.2525 -1.5493
16448TIP3    H270836   6.603   4.042  16.336 -2.4770  0.1263  1.7833
16449TIP3   OH270837   3.145   5.124   2.920  0.4724  0.4134 -0.1622
16449TIP3    H170838   3.162   5.115   2.826 -0.1780 -3.9242 -0.0894
16449TIP3    H270839   3.218   5.078   2.962 -0.3579  0.3630  1.2959
16450TIP3   OH270840   3.105   5.770  12.392  0.3243  0.2059 -0.1552
16450TIP3    H170841   3.113   5.834  12.322 -1.0329 -0.2944 -0.8103
16450TIP3    H270842   3.140   5.689  12.354 -1.8144 -0.4557 -0.8645
16451TIP3   OH270843   3.309   0.699  15.386  0.5409  0.3748  0.2738
16451TIP3    H170844   3.234   0.641  15.369  0.6529  0.4938 -0.6855
16451TIP3    H270845   3.283   0.783  15.348  0.6007  0.8103  1.1803
16452TIP3   OH270846   2.175   2.060  13.762 -0.0967 -0.0660  0.7434
16452TIP3    H170847   2.257   2.013  13.780 -0.5612 -1.1572  0.0882
16452TIP3    H270848   2.187   2.096  13.674 -0.5607 -0.7650  0.3910
16453TIP3   OH270849   2.420   5.594   1.519  0.0583  0.1743 -1.2165
16453TIP3    H170850   2.341   5.647   1.530 -1.0024 -1.4562 -0.6446
16453TIP3    H270851   2.463   5.631   1.442 -0.5071  1.9967 -0.6966
16454TIP3   OH270852   4.049   0.107  14.721  0.1561 -0.3726 -0.0890
16454TIP3    H170853   4.135   0.065  14.720  0.6082  0.4287  1.4161
16454TIP3    H270854   3.991   0.039  14.757  0.5245 -0.3550  0.5704
16455TIP3   OH270855   2.739   1.174   0.769 -0.1593 -0.7156 -0.4829
16455TIP3    H170856   2.695   1.179   0.854  0.4241  1.5220 -0.2484
16455TIP3    H270857   2.682   1.221   0.709 -0.1754 -1.5926 -1.1812
16456TIP3   OH270858   6.289   6.522  11.604 -0.2635 -0.7870 -0.1515
16456TIP3    H170859   6.227   6.537  11.533  0.9645  0.4076 -1.0162
16456TIP3    H270860   6.329   6.607  11.619  2.0862 -1.7533 -0.5257
16457TIP3   OH270861   3.864   5.358   5.482 -0.1611  0.1113  0.3804
16457TIP3    H170862   3.906   5.284   5.440 -4.1477 -0.5000 -3.1942
16457TIP3    H270863   3.895   5.434   5.433 -0.1158  0.1893  0.5270
16458TIP3   OH270864   4.505   6.752   5.085 -0.2926  0.3216 -0.0837
16458TIP3    H170865   4.428   6.746   5.028  1.0456 -1.9033 -1.7874
16458TIP3    H270866   4.558   6.821   5.045 -0.3536  0.2591 -0.2758
16459TIP3   OH270867   5.497   4.830  14.073 -0.5071  0.4807 -0.6305
16459TIP3    H170868   5.533   4.899  14.018  1.0741  1.3672  1.3571
16459TIP3    H270869   5.531   4.850  14.161 -1.2893 -1.9385  0.2993
16460TIP3   OH270870   6.580   5.117  13.833 -0.0735  0.6272  0.4173
16460TIP3    H170871   6.528   5.073  13.766  0.7007  0.9662 -0.4425
16460TIP3    H270872   6.533   5.103  13.915 -2.0193  1.7342 -0.4407
16461TIP3   OH270873   6.229   4.329  15.034 -0.0155 -0.4079  0.5180
16461TIP3    H170874   6.222   4.262  15.101  2.0627 -1.6951 -0.4456
16461TIP3    H270875   6.253   4.282  14.955 -0.0423  1.3130 -0.5764
16462TIP3   OH270876   4.654   6.007  11.321  0.5418 -0.5549  0.1323
16462TIP3    H170877   4.701   6.058  11.255  1.1574 -1.0785  0.1579
16462TIP3    H270878   4.563   6.007  11.291  0.7211 -0.3164 -0.4212
16463TIP3   OH270879   5.917   4.714  12.729  0.2713  0.0959 -0.1095
16463TIP3    H170880   5.878   4.682  12.810 -0.9342 -0.1322 -0.7484
16463TIP3    H270881   5.850   4.699  12.663  1.4846 -0.3524 -1.2824
16464TIP3   OH270882   1.923   6.398   2.901 -0.6411  0.3070  0.0156
16464TIP3    H170883   1.973   6.399   2.983 -0.2734 -1.9347 -0.1193
16464TIP3    H270884   1.833   6.386   2.928 -1.0472  2.9983  0.1865
16465TIP3   OH270885   0.808   2.825   4.855 -0.0005 -0.6347  0.1810
16465TIP3    H170886   0.860   2.902   4.879 -3.9037  2.0536  0.9590
16465TIP3    H270887   0.791   2.782   4.939 -1.2054  0.0653  0.3079
16466TIP3   OH270888   1.761   1.813   0.756  0.4471 -0.4072 -0.5929
16466TIP3    H170889   1.793   1.724   0.774  1.9943  0.0915 -0.7256
16466TIP3    H270890   1.684   1.822   0.812  0.4422 -1.7275 -0.3523
16467TIP3   OH270891   4.365   3.898  12.307 -0.5987  0.0079  0.2624
16467TIP3    H170892   4.393   3.836  12.240 -0.0889  0.7318 -0.2079
16467TIP3    H270893   4.395   3.984  12.275 -1.1464  0.4800  0.9740
16468TIP3   OH270894   3.595   6.840  10.665  0.1688  0.2345  0.0026
16468TIP3    H170895   3.640   6.921  10.686  2.7127 -1.4995  1.8197
16468TIP3    H270896   3.550   6.815  10.746 -0.8244 -0.0586 -0.6167
16469TIP3   OH270897   0.830   4.854  15.708  0.4288 -0.1108 -0.4353
16469TIP3    H170898   0.922   4.863  15.730  0.5176  1.5833 -1.3114
16469TIP3    H270899   0.828   4.855  15.612 -0.5644  1.2342 -0.4398
16470TIP3   OH270900   6.362   3.585  14.926  0.1474 -0.1378 -0.3507
16470TIP3    H170901   6.375   3.564  14.834 -1.9132 -1.3695 -0.4284
16470TIP3    H270902   6.423   3.527  14.972  0.1441 -0.5719 -0.8826
16471TIP3   OH270903   6.801   3.702   1.364 -0.3569 -0.5519 -0.1964
16471TIP3    H170904   6.811   3.786   1.408 -0.1130  0.5590 -2.2237
16471TIP3    H270905   6.879   3.652   1.390 -0.7791 -0.3984  1.4577
16472TIP3   OH270906   2.491   3.320   5.042 -0.1256  0.1162 -0.6107
16472TIP3    H170907   2.550   3.250   5.072 -1.0913  0.0592  1.3398
16472TIP3    H270908   2.417   3.274   5.003 -1.3689 -0.0933  1.8236
16473TIP3   OH270909   1.945   5.546   3.635 -0.0645 -0.1179  0.2256
16473TIP3    H170910   2.031   5.504   3.635 -1.0329 -2.2075  0.1378
16473TIP3    H270911   1.948   5.606   3.709  1.2050 -0.7736  0.7307
16474TIP3   OH270912   0.223   4.973  14.644  0.5306 -0.3427 -0.0185
16474TIP3    H170913   0.179   4.965  14.560  0.0661  0.6465  0.1054
16474TIP3    H270914   0.292   5.039  14.629 -1.0804  1.6792  0.9086
16475TIP3   OH270915   6.388   0.545  15.234  0.1407  0.4197 -0.0390
16475TIP3    H170916   6.388   0.624  15.289 -0.2920  0.5735 -0.2527
16475TIP3    H270917   6.319   0.491  15.271  1.1985 -0.3879  0.8329
16476TIP3   OH270918   0.467   4.806  15.454 -0.0631 -0.0355  0.2921
16476TIP3    H170919   0.472   4.732  15.394 -1.3315  0.2179 -0.1703
16476TIP3    H270920   0.439   4.879  15.399  0.5981  0.6560  0.8546
16477TIP3   OH270921   1.746   3.975  11.221  0.1943  0.1505 -0.1023
16477TIP3    H170922   1.656   3.961  11.251  0.3584 -0.1738  0.2472
16477TIP3    H270923   1.756   3.916  11.146  0.2351 -0.0883  0.0920
16478TIP3   OH270924   5.211   5.229  11.749  0.2744  0.0567 -0.4278
16478TIP3    H170925   5.149   5.252  11.680 -0.9248  2.1323  1.2214
16478TIP3    H270926   5.156   5.196  11.820  1.5939 -3.6720 -0.9169
16479TIP3   OH270927   0.218   5.780   5.756  0.0802  0.0475  0.3231
16479TIP3    H170928   0.283   5.850   5.750  0.5190 -0.2968  0.9112
16479TIP3    H270929   0.269   5.699   5.754 -0.4893 -0.3255 -1.4547
16480TIP3   OH270930   4.021   6.734  16.225 -0.2355 -0.2342 -0.1094
16480TIP3    H170931   4.014   6.779  16.141  0.1516 -0.1139 -0.0763
16480TIP3    H270932   4.114   6.719  16.237 -0.4662 -2.9925 -1.1431
16481TIP3   OH270933   1.405   1.514  11.139  0.0562 -0.1152  0.0053
16481TIP3    H170934   1.311   1.528  11.133  0.1476  0.8661  0.6122
16481TIP3    H270935   1.435   1.577  11.205  1.3126  0.4585 -1.0515
16482TIP3   OH270936   1.539   6.630   6.051 -0.0299 -0.0021  0.1528
16482TIP3    H170937   1.514   6.636   6.144  1.9494  0.9828  0.6561
16482TIP3    H270938   1.634   6.637   6.051  0.0885 -1.0092 -1.8983
16483TIP3   OH270939   4.152   1.366   0.378  0.1024 -0.0257  0.1507
16483TIP3    H170940   4.160   1.368   0.283  1.3475 -1.5823  0.1838
16483TIP3    H270941   4.058   1.355   0.393 -0.2120  1.0679 -0.8502
16484TIP3   OH270942   5.900   2.328   2.490  0.3857 -0.3853 -0.1747
16484TIP3    H170943   5.821   2.284   2.521  0.8091 -0.4112  0.9024
16484TIP3    H270944   5.952   2.259   2.449  0.4792 -0.6549  0.3854
16485TIP3   OH270945   5.160   3.016   0.962  0.3667  0.1368 -0.1100
16485TIP3    H170946   5.185   3.092   0.909  1.0713  0.2990  0.4344
16485TIP3    H270947   5.069   3.032   0.985  0.1102  0.1682 -1.0821
16486TIP3   OH270948   2.493   3.344  13.044 -0.7267  0.6146 -0.0287
16486TIP3    H170949   2.585   3.366  13.027 -0.6324 -0.1709 -0.6554
16486TIP3    H270950   2.444   3.396  12.980 -0.5606 -0.3600 -0.9942
16487TIP3   OH270951   2.733   3.794  13.156  0.5206 -0.3934 -0.7749
16487TIP3    H170952   2.791   3.869  13.173  1.9743 -1.3779 -1.2612
16487TIP3    H270953   2.703   3.767  13.242 -1.0758  1.5098 -0.6545
16488TIP3   OH270954   6.059   5.717  14.009 -0.3380 -0.7817 -0.6703
16488TIP3    H170955   5.981   5.745  14.057  0.8837 -0.1408  1.0625
16488TIP3    H270956   6.124   5.701  14.077  1.3812 -0.2452 -2.1120
16489TIP3   OH270957   6.149   5.423   5.953 -0.6203 -0.2307  0.1610
16489TIP3    H170958   6.086   5.399   6.021  0.2510 -0.9629  0.7277
16489TIP3    H270959   6.123   5.512   5.927 -1.3177 -0.1592  1.0439
16490TIP3   OH270960   1.814   4.544   0.727  0.0904  0.1163 -0.5624
16490TIP3    H170961   1.880   4.537   0.659  1.2740  0.5227  0.5084
16490TIP3    H270962   1.828   4.467   0.782 -1.2507 -0.5361 -1.0832
16491TIP3   OH270963   4.463   5.204   6.716 -0.3035  0.2099 -0.0173
16491TIP3    H170964   4.500   5.116   6.714 -0.9400 -0.0675  0.1341
16491TIP3    H270965   4.444   5.224   6.624 -1.4339 -0.3732  0.0732
16492TIP3   OH270966   5.734   5.550  12.057  0.6961  0.0376  0.0289
16492TIP3    H170967   5.776   5.466  12.072  1.4723  0.3515 -0.3113
16492TIP3    H270968   5.806   5.609  12.036  0.2153  0.8942  0.7027
16493TIP3   OH270969   2.349   1.069  11.782  0.7589  0.1536 -0.2101
16493TIP3    H170970   2.402   1.027  11.850 -3.3350  0.6458  3.8271
16493TIP3    H270971   2.303   0.997  11.740 -1.7287 -0.0421  2.5153
16494TIP3   OH270972   3.993   4.406   2.526 -0.3229  0.0850  0.2696
16494TIP3    H170973   3.903   4.379   2.507 -0.1280 -1.3365  1.2011
16494TIP3    H270974   3.995   4.499   2.504 -1.7720 -0.0582 -0.6028
16495TIP3   OH270975   0.580   3.930   0.735  0.1290  0.5244  0.2467
16495TIP3    H170976   0.503   3.899   0.782 -0.8425  0.9408 -1.0211
16495TIP3    H270977   0.563   4.023   0.718  1.3017  0.8422  0.7017
16496TIP3   OH270978   1.920   2.265  16.966 -0.6037 -0.5141  0.3153
16496TIP3    H170979   1.871   2.343  16.941 -2.1950 -1.4144  0.4556
16496TIP3    H270980   1.995   2.298  17.016 -0.3979  0.9877 -0.9109
16497TIP3   OH270981   3.376   5.436  11.979 -0.3700  0.1416  0.1546
16497TIP3    H170982   3.396   5.520  12.021 -1.2777  1.3993 -1.7799
16497TIP3    H270983   3.285   5.446  11.949 -0.1462 -1.1417 -1.0003
16498TIP3   OH270984   5.459   3.646   3.595 -0.5468  0.0123  0.2883
16498TIP3    H170985   5.498   3.682   3.515 -0.2504 -1.1931 -0.1322
16498TIP3    H270986   5.497   3.558   3.602  0.9106  0.7352  2.7738
16499TIP3   OH270987   1.580   5.554  13.688  0.3266  0.2552 -0.2349
16499TIP3    H170988   1.590   5.463  13.660 -1.4967 -0.4486  1.2434
16499TIP3    H270989   1.664   5.595  13.667  0.3348 -1.0762 -3.3176
16500TIP3   OH270990   0.609   5.673   4.241  0.3577  0.2596  0.1925
16500TIP3    H170991   0.644   5.752   4.200  0.0583  0.2009 -0.1800
16500TIP3    H270992   0.633   5.682   4.334  2.6967 -0.5236 -0.2858
16501TIP3   OH270993   2.688   4.521  12.184 -0.1855  0.2733 -0.7148
16501TIP3    H170994   2.670   4.614  12.193 -1.0426  0.1967 -1.4652
16501TIP3    H270995   2.602   4.480  12.182  0.1800 -0.5381 -0.4266
16502TIP3   OH270996   4.533   3.531  11.308  0.3950  0.6530 -0.1466
16502TIP3    H170997   4.462   3.575  11.355 -0.2877 -0.1887 -0.3690
16502TIP3    H270998   4.563   3.595  11.243 -1.0606  0.5631 -0.9448
16503TIP3   OH270999   2.068   2.136  11.343  0.2620 -0.4441 -0.3365
16503TIP3    H171000   1.985   2.173  11.372  0.3593 -1.2186  0.9953
16503TIP3    H271001   2.047   2.093  11.260 -0.4712  0.0868 -0.4383
16504TIP3   OH271002   1.722   4.778  14.495 -0.0723 -0.1059 -0.4592
16504TIP3    H171003   1.699   4.699  14.447 -1.1736 -0.0727 -0.0268
16504TIP3    H271004   1.747   4.747  14.582 -1.8978  0.0802  0.1787
16505TIP3   OH271005   4.830   2.560   0.483  0.0936 -0.0000 -0.1817
16505TIP3    H171006   4.902   2.542   0.422  0.3283 -1.3175  0.4508
16505TIP3    H271007   4.844   2.651   0.510  2.1919 -0.5398  0.7749
16506TIP3   OH271008   5.251   2.991  13.784  0.1136 -0.2960  0.5973
16506TIP3    H171009   5.214   3.061  13.837  1.4086 -1.2397  2.8931
16506TIP3    H271010   5.256   2.916  13.844  1.7503 -1.3937 -0.8333
16507TIP3   OH271011   4.598   5.449   2.873  0.2331  0.2227  0.2304
16507TIP3    H171012   4.617   5.413   2.787  1.2821  0.3966  0.3849
16507TIP3    H271013   4.679   5.440   2.923 -0.1740  0.6772  1.0086
16508TIP3   OH271014   6.360   2.817   0.882  0.0668 -0.2138 -0.1256
16508TIP3    H171015   6.280   2.789   0.928  1.2285 -2.3941  0.6989
16508TIP3    H271016   6.350   2.912   0.872 -1.7650 -0.1529  1.6316
16509TIP3   OH271017   4.800   2.932   2.589 -0.2753  0.3307 -0.3801
16509TIP3    H171018   4.799   2.857   2.649 -1.3886  0.6064 -0.0419
16509TIP3    H271019   4.723   2.983   2.613  0.4115  1.5422 -0.6769
16510TIP3   OH271020   4.040   5.652  10.677  0.1089  0.2264  0.3004
16510TIP3    H171021   4.060   5.596  10.751 -1.4750  0.4058  0.9088
16510TIP3    H271022   4.062   5.600  10.600  0.3493 -0.5298  0.8723
16511TIP3   OH271023   0.383   4.130   2.084 -0.0321  0.3505  0.1814
16511TIP3    H171024   0.359   4.189   2.156 -0.8871  0.5454 -0.2596
16511TIP3    H271025   0.392   4.187   2.008  1.2928  0.2072  0.1922
16512TIP3   OH271026   4.612   0.054   2.362 -0.0670 -0.1976  0.0698
16512TIP3    H171027   4.579   0.009   2.440  1.2885 -0.8316  0.3242
16512TIP3    H271028   4.691   0.005   2.339  1.0314  1.5867 -0.1234
16513TIP3   OH271029   3.098   5.906  14.669  0.5065 -0.4372 -0.0506
16513TIP3    H171030   3.116   5.931  14.578 -0.4377  2.2117  0.3929
16513TIP3    H271031   3.031   5.839  14.662 -0.4645  0.6061 -1.3296
16514TIP3   OH271032   0.537   5.484   4.921 -0.4363  0.7129 -0.5231
16514TIP3    H171033   0.605   5.435   4.874  0.1099  1.6717 -0.7790
16514TIP3    H271034   0.570   5.574   4.921 -0.7270  0.8394  1.1749
16515TIP3   OH271035   1.595   1.932   3.070 -0.2484 -0.4208  0.4001
16515TIP3    H171036   1.592   1.849   3.021  2.7348  0.4977 -1.6193
16515TIP3    H271037   1.658   1.917   3.140 -0.3559 -0.1029  0.5686
16516TIP3   OH271038   6.389   2.683   2.306  0.0507  0.2762  0.1315
16516TIP3    H171039   6.296   2.659   2.300 -0.1361  0.8869  0.4281
16516TIP3    H271040   6.411   2.717   2.220 -0.6348  2.2338  0.6599
16517TIP3   OH271041   4.334   6.486   2.887  0.0833  0.6191  0.0388
16517TIP3    H171042   4.282   6.490   2.807 -0.4366  0.4952  0.3703
16517TIP3    H271043   4.301   6.409   2.933  1.2061 -0.0359 -0.1973
16518TIP3   OH271044   6.562   4.608  13.143  0.1111 -0.4152 -0.3468
16518TIP3    H171045   6.570   4.601  13.048  0.7466 -0.6180 -0.2860
16518TIP3    H271046   6.585   4.699  13.162  0.1725 -0.4247 -0.3735
16519TIP3   OH271047   6.724   6.563   2.873 -0.1485 -0.6961 -0.0592
16519TIP3    H171048   6.635   6.600   2.873 -0.5282 -1.5814 -0.1031
16519TIP3    H271049   6.769   6.608   2.945 -0.1260  0.9068 -1.0110
16520TIP3   OH271050   2.150   3.901  15.647  0.3432  0.2731 -0.3337
16520TIP3    H171051   2.055   3.889  15.645  0.5021 -0.9826 -1.0216
16520TIP3    H271052   2.175   3.907  15.555  0.9929  0.0629 -0.1702
16521TIP3   OH271053   1.461   2.125  14.809  0.0477 -0.2962  0.1613
16521TIP3    H171054   1.527   2.192  14.790 -0.9663  1.0785  1.2260
16521TIP3    H271055   1.482   2.095  14.898  0.2188 -1.0565 -0.1327
16522TIP3   OH271056   2.611   1.140  13.291 -0.0699  0.4422  0.0939
16522TIP3    H171057   2.559   1.165  13.367  0.2807  2.7722 -0.3526
16522TIP3    H271058   2.547   1.127  13.221 -0.2237  1.2404  0.0728
16523TIP3   OH271059   5.717   5.284   1.471 -0.1175  0.5000 -0.3140
16523TIP3    H171060   5.629   5.314   1.447 -0.2838  0.5288  0.3223
16523TIP3    H271061   5.729   5.313   1.561 -0.1637 -1.0678  0.2219
16524TIP3   OH271062   2.909   6.548  11.577  0.0223  0.0922 -0.5314
16524TIP3    H171063   2.883   6.489  11.506 -0.9377 -0.0321 -0.0845
16524TIP3    H271064   2.858   6.628  11.562 -0.7736 -0.2151  0.4505
16525TIP3   OH271065   3.201   3.719  11.275  0.2896  0.6069  0.5818
16525TIP3    H171066   3.296   3.734  11.285  0.6463 -0.9871 -0.0913
16525TIP3    H271067   3.194   3.657  11.202 -1.1770 -0.3894  1.5016
16526TIP3   OH271068   3.412   2.233  16.732 -0.1990  0.0417  0.3419
16526TIP3    H171069   3.495   2.190  16.754 -0.3039  0.2296  1.1246
16526TIP3    H271070   3.353   2.209  16.804 -0.5042  0.7927  0.3505
16527TIP3   OH271071   2.915   6.302   2.203  0.0366 -0.2812 -0.4440
16527TIP3    H171072   2.841   6.267   2.153  0.7867 -1.7609 -0.5912
16527TIP3    H271073   2.948   6.375   2.151 -0.0529 -0.9259 -1.4199
16528TIP3   OH271074   1.680   5.948  12.126 -0.1041 -0.5337 -0.1011
16528TIP3    H171075   1.734   5.978  12.199 -1.8646 -0.4103  1.2099
16528TIP3    H271076   1.669   6.025  12.071 -0.2449 -0.1385  0.4695
16529TIP3   OH271077   6.472   3.526  15.919 -0.4148 -0.0314 -0.3461
16529TIP3    H171078   6.478   3.452  15.858 -0.9898  0.2566 -0.7655
16529TIP3    H271079   6.524   3.595  15.877  0.3630 -0.2889  0.1869
16530TIP3   OH271080   6.228   0.570   0.540 -0.2269  0.0208 -0.0888
16530TIP3    H171081   6.209   0.499   0.478  1.7459 -0.6936  0.0706
16530TIP3    H271082   6.263   0.640   0.486  0.1329 -0.0589  0.0384
16531TIP3   OH271083   6.003   4.043  16.821 -0.0835  0.4762 -0.0423
16531TIP3    H171084   5.920   4.089  16.810 -0.3229 -0.0703 -0.6318
16531TIP3    H271085   6.004   4.015  16.912 -1.0353 -0.4090 -0.2914
16532TIP3   OH271086   2.334   4.111  16.788  0.1067 -0.1246 -0.0369
16532TIP3    H171087   2.246   4.086  16.816 -0.8599  1.6382 -1.2546
16532TIP3    H271088   2.359   4.042  16.726 -0.6674 -0.3800 -0.0869
16533TIP3   OH271089   3.740   2.396  15.075 -0.1332 -0.3800  0.4335
16533TIP3    H171090   3.739   2.424  15.167  1.1273 -0.3388  0.4444
16533TIP3    H271091   3.832   2.383  15.054 -0.4729 -1.4322 -0.5224
16534TIP3   OH271092   0.826   5.766   4.438  0.3370  0.0969  0.5200
16534TIP3    H171093   0.787   5.820   4.507  0.9065  1.4507 -0.1654
16534TIP3    H271094   0.919   5.763   4.460  0.7240  1.4863 -0.7344
16535TIP3   OH271095   5.827   3.167   1.653 -0.5614 -0.4691  0.1123
16535TIP3    H171096   5.850   3.083   1.691  0.9655  0.6215  1.7404
16535TIP3    H271097   5.734   3.179   1.675 -1.2039 -2.3131 -1.3997
16536TIP3   OH271098   1.207   6.210   5.690 -0.3370 -0.6557  0.1801
16536TIP3    H171099   1.163   6.246   5.612 -0.3472  0.5351  0.7083
16536TIP3    H271100   1.277   6.155   5.655 -0.4197 -0.2332 -0.6785
16537TIP3   OH271101   0.982   4.268  15.323  0.3072 -0.4665  0.0145
16537TIP3    H171102   1.064   4.243  15.364  1.0394 -0.2166 -1.2349
16537TIP3    H271103   0.916   4.211  15.363  1.0545 -0.5859  1.1102
16538TIP3   OH271104   4.975   6.390  12.248  0.1256  0.0065 -0.0924
16538TIP3    H171105   4.879   6.384  12.248  0.1358 -0.2642 -0.8101
16538TIP3    H271106   4.997   6.422  12.336 -0.6172  0.0121  0.1002
16539TIP3   OH271107   5.907   4.007  11.817 -0.0852 -1.0292 -0.0125
16539TIP3    H171108   5.973   4.053  11.868 -2.4017  0.3218  2.0116
16539TIP3    H271109   5.876   4.071  11.753 -1.7084 -0.4335  1.2942
16540TIP3   OH271110   5.149   0.411   4.054  0.4236  0.1066  0.0278
16540TIP3    H171111   5.063   0.371   4.048  1.2537 -1.7371 -0.3118
16540TIP3    H271112   5.153   0.472   3.980  0.1388 -1.3123 -1.1881
16541TIP3   OH271113   6.720   3.042  10.639  0.4035  0.9101 -0.9258
16541TIP3    H171114   6.714   2.959  10.591 -0.8473  1.1698 -1.2664
16541TIP3    H271115   6.778   3.096  10.586 -0.5141  0.9969 -1.8758
16542TIP3   OH271116   3.977   6.379  16.717  0.5313  0.0350  0.3411
16542TIP3    H171117   3.952   6.310  16.655  1.5784  1.4727 -1.8324
16542TIP3    H271118   4.052   6.343  16.763  0.5458 -0.6086 -0.1593
16543TIP3   OH271119   1.919   6.028   0.812  0.2832  0.6883 -0.4461
16543TIP3    H171120   1.895   6.117   0.836 -0.6200  0.0634  1.1332
16543TIP3    H271121   1.844   5.994   0.764 -0.1542  0.2263  0.5213
16544TIP3   OH271122   5.544   5.347   0.047 -0.2094 -0.2136  0.2672
16544TIP3    H171123   5.460   5.352   0.001  0.9251 -0.9458 -2.0745
16544TIP3    H271124   5.547   5.259   0.084  0.8162 -1.5219 -2.5980
16545TIP3   OH271125   5.019   3.393   5.664  0.1577 -0.2419  0.3022
16545TIP3    H171126   5.068   3.472   5.685  2.1481 -1.6953  1.4202
16545TIP3    H271127   4.969   3.374   5.744 -0.2028 -0.2139  0.0875
16546TIP3   OH271128   0.052   1.323   3.810  0.6283 -0.5763 -0.6310
16546TIP3    H171129   0.039   1.414   3.784 -0.0461 -0.0135  1.4538
16546TIP3    H271130   0.083   1.279   3.731  1.5438  1.5763 -1.5382
16547TIP3   OH271131   0.970   1.820   4.969  0.2042  1.0469 -0.1694
16547TIP3    H171132   1.019   1.815   4.887  1.6595  1.2282  0.6592
16547TIP3    H271133   0.900   1.882   4.951  1.7125  2.6797 -0.7081
16548TIP3   OH271134   1.359   4.761   6.129 -0.3765  0.2429  0.2979
16548TIP3    H171135   1.292   4.791   6.068  0.2840 -0.8516 -1.0124
16548TIP3    H271136   1.348   4.666   6.133  0.6903  0.1118  0.5562
16549TIP3   OH271137   0.370   3.886   0.877  0.5727  0.4255 -0.2007
16549TIP3    H171138   0.418   3.940   0.939 -0.5306 -0.4755  1.5214
16549TIP3    H271139   0.304   3.945   0.839 -0.1728  0.5030  1.1508
16550TIP3   OH271140   1.112   2.967  11.166 -0.8326 -0.7014  0.1582
16550TIP3    H171141   1.065   2.977  11.083  0.5889 -0.3475 -0.6357
16550TIP3    H271142   1.097   3.049  11.212  3.1918  1.8101 -2.3617
16551TIP3   OH271143   1.747   5.294   2.471  0.1015  0.1363 -0.1958
16551TIP3    H171144   1.788   5.243   2.401 -0.5992  0.4330 -0.8343
16551TIP3    H271145   1.818   5.308   2.534  1.2133  1.2911 -1.6201
16552TIP3   OH271146   5.451   4.302  10.777 -0.0784 -0.6161  0.0197
16552TIP3    H171147   5.536   4.259  10.769  0.6086  0.6855  0.0292
16552TIP3    H271148   5.466   4.390  10.744 -0.8296  0.3970  2.1994
16553TIP3   OH271149   6.553   6.147   0.333 -0.5500 -0.0915 -0.7732
16553TIP3    H171150   6.497   6.159   0.410  0.5239 -1.0088  0.1725
16553TIP3    H271151   6.590   6.234   0.317 -0.3967  0.0022  0.0502
16554TIP3   OH271152   4.405   1.056   1.967 -0.1608 -0.6329 -0.3531
16554TIP3    H171153   4.413   1.120   2.038  1.3022 -0.0546 -0.9880
16554TIP3    H271154   4.315   1.066   1.936 -0.4700 -0.0877  0.6596
16555TIP3   OH271155   2.897   4.324  12.288 -0.2321  0.4018 -0.6156
16555TIP3    H171156   2.815   4.318  12.239 -0.4820  0.5930 -0.2238
16555TIP3    H271157   2.895   4.412  12.327  0.8665  1.0267 -1.8490
16556TIP3   OH271158   0.528   4.506  13.884  0.0577  0.3258 -0.2484
16556TIP3    H171159   0.609   4.511  13.833 -0.1843 -0.3384 -0.7196
16556TIP3    H271160   0.500   4.597  13.894  2.4486  0.8917  2.5648
16557TIP3   OH271161   4.154   4.873   0.268  0.2655 -0.7602 -0.1942
16557TIP3    H171162   4.077   4.842   0.219  1.0228  1.3068 -2.9572
16557TIP3    H271163   4.218   4.802   0.258  1.1558  0.3419 -4.3376
16558TIP3   OH271164   3.015   5.216   3.752  0.1078 -0.8157 -0.4272
16558TIP3    H171165   2.925   5.217   3.721  0.0359  1.3306 -0.3431
16558TIP3    H271166   3.056   5.292   3.709  1.5676 -1.1260  0.3438
16559TIP3   OH271167   5.341   3.204  16.466  0.2296 -0.1400 -0.1555
16559TIP3    H171168   5.248   3.202  16.489  0.7099  0.0985  1.9690
16559TIP3    H271169   5.348   3.144  16.392 -1.2708 -1.9214  1.0586
16560TIP3   OH271170   6.188   0.900  15.879 -0.0603 -0.0811 -0.2692
16560TIP3    H171171   6.226   0.981  15.913 -1.0428  0.8145 -1.1958
16560TIP3    H271172   6.240   0.830  15.918 -0.7249  0.8593  2.5762
16561TIP3   OH271173   4.103   2.191   6.222  0.2009 -0.3756 -0.8565
16561TIP3    H171174   4.077   2.110   6.178  1.7695 -1.4466  0.0860
16561TIP3    H271175   4.197   2.199   6.204  0.2417  0.7974 -0.2266
16562TIP3   OH271176   3.166   1.609   0.263  0.0581  0.4167 -0.2275
16562TIP3    H171177   3.143   1.518   0.283  1.4280  0.3213  1.0553
16562TIP3    H271178   3.117   1.661   0.328  0.8527  0.4360  0.3702
16563TIP3   OH271179   4.572   5.379  12.252  0.3756 -0.3792  0.2477
16563TIP3    H171180   4.586   5.316  12.182  1.2998  2.4248 -2.3014
16563TIP3    H271181   4.649   5.369  12.309 -0.0673 -2.2445  0.5877
16564TIP3   OH271182   5.856   4.899   5.860  0.6055  0.6184  0.0771
16564TIP3    H171183   5.829   4.991   5.873 -0.0330  0.5688 -0.7810
16564TIP3    H271184   5.950   4.903   5.845  0.7697  1.0169  1.1505
16565TIP3   OH271185   4.250   2.070  14.999 -0.5710  0.0309  0.0743
16565TIP3    H171186   4.240   1.977  15.017  1.0370 -0.5540 -1.7904
16565TIP3    H271187   4.333   2.094  15.039  1.3726 -0.5209 -3.2530
16566TIP3   OH271188   2.447   6.190   0.493 -0.0830  0.1252 -0.4332
16566TIP3    H171189   2.467   6.281   0.469 -1.3610  0.8786  1.1532
16566TIP3    H271190   2.400   6.155   0.418 -0.1849  1.0083 -0.7897
16567TIP3   OH271191   1.253   4.961  15.512 -0.0923 -0.8981 -0.4715
16567TIP3    H171192   1.190   4.979  15.582  1.0511  1.3202  0.0675
16567TIP3    H271193   1.301   4.884  15.542 -0.3320 -0.6066  0.7073
16568TIP3   OH271194   1.680   0.237  15.824  0.3878  0.2082 -0.0758
16568TIP3    H171195   1.596   0.265  15.787  0.2650 -0.4992 -0.3636
16568TIP3    H271196   1.735   0.218  15.747  0.9191  0.9526  0.1083
16569TIP3   OH271197   2.028   2.738   3.223  0.1805  0.1453 -0.1354
16569TIP3    H171198   2.016   2.783   3.306  0.9633 -0.8686  0.5469
16569TIP3    H271199   1.952   2.680   3.215 -0.3415  0.8698 -0.5624
16570TIP3   OH271200   6.193   3.321   1.279 -0.0211  0.0931  0.2094
16570TIP3    H171201   6.177   3.231   1.306  0.2165 -0.3285 -0.9704
16570TIP3    H271202   6.269   3.348   1.330 -1.2914  0.3399  2.0483
16571TIP3   OH271203   0.055   2.583   0.813  0.3480 -0.0194 -0.1760
16571TIP3    H171204   0.076   2.517   0.746  3.4860 -1.5730  2.0920
16571TIP3    H271205   0.133   2.639   0.816 -0.7638  1.5590  0.5447
16572TIP3   OH271206   1.541   0.705   0.174 -0.1574  0.0862  0.2462
16572TIP3    H171207   1.485   0.781   0.157  0.3520  0.1545 -1.3163
16572TIP3    H271208   1.619   0.742   0.216  0.9067  0.7822 -2.1362
16573TIP3   OH271209   3.524   0.905   0.227  0.1139  0.0598 -0.3632
16573TIP3    H171210   3.488   0.856   0.152  1.1673 -0.7055 -0.3903
16573TIP3    H271211   3.450   0.955   0.260 -0.7200 -0.6782 -1.0518
16574TIP3   OH271212   2.746   6.512   1.908  0.2003 -0.1358  0.6011
16574TIP3    H171213   2.709   6.489   1.822  0.5491  0.6442  0.2302
16574TIP3    H271214   2.840   6.521   1.891  0.0808  1.5787  0.7097
16575TIP3   OH271215   1.477   1.613  16.318  0.5416  0.9986  0.0391
16575TIP3    H171216   1.491   1.654  16.233  3.0372  3.6359  1.5634
16575TIP3    H271217   1.562   1.575  16.341 -0.5536 -1.2558  0.6639
16576TIP3   OH271218   5.430   3.390   2.050 -0.3488  0.2164 -1.2255
16576TIP3    H171219   5.511   3.341   2.068 -1.0616 -0.8076 -0.7326
16576TIP3    H271220   5.394   3.349   1.972  0.1246  1.3603 -2.0692
16577TIP3   OH271221   4.385   3.416   3.260  0.3780 -0.1549 -0.1138
16577TIP3    H171222   4.463   3.391   3.210 -1.4818 -0.2812 -3.2172
16577TIP3    H271223   4.381   3.512   3.251  0.7968 -0.0093  1.0980
16578TIP3   OH271224   4.987   5.314   4.148  0.1529  0.5162  0.5582
16578TIP3    H171225   4.974   5.408   4.144  0.6421  0.6791  2.0624
16578TIP3    H271226   4.899   5.277   4.160 -0.0126  0.7890  0.1881
16579TIP3   OH271227   1.619   4.397   1.307  0.1180 -0.0349  0.2627
16579TIP3    H171228   1.658   4.318   1.270 -1.2886 -0.3974 -0.5295
16579TIP3    H271229   1.550   4.421   1.245  1.1068  2.3686 -0.0106
16580TIP3   OH271230   2.683   2.395   0.106  0.2305 -0.4195  0.0507
16580TIP3    H171231   2.767   2.433   0.133  0.7048 -1.3132 -0.0977
16580TIP3    H271232   2.632   2.468   0.073  1.0907  0.0898 -0.1659
16581TIP3   OH271233   0.017   2.049  14.372  0.2046  0.6078  0.1837
16581TIP3    H171234   0.018   2.009  14.285 -2.5735  1.2999 -0.2794
16581TIP3    H271235   0.059   2.134  14.360  0.9943  0.1781 -0.1573
16582TIP3   OH271236   4.834   3.070   5.552 -0.4141  0.5864  0.0640
16582TIP3    H171237   4.919   3.066   5.595 -0.3376 -0.9937 -0.1490
16582TIP3    H271238   4.821   2.981   5.518 -0.3614  1.7158 -3.3586
16583TIP3   OH271239   1.243   2.512  17.071 -0.6549 -0.3107  0.7273
16583TIP3    H171240   1.216   2.572  17.141 -1.2657 -1.5725  1.6222
16583TIP3    H271241   1.235   2.425  17.110 -1.2101 -1.0653 -0.9805
16584TIP3   OH271242   0.020   5.624   5.090  0.0351  0.6555 -0.0996
16584TIP3    H171243  -0.030   5.546   5.068 -0.5726  1.4747 -1.8365
16584TIP3    H271244  -0.033   5.669   5.156  0.4763 -0.4530  1.0429
16585TIP3   OH271245   3.448   5.603   4.257  0.0310  0.9639  0.1323
16585TIP3    H171246   3.528   5.572   4.215 -0.2191 -0.1242  0.4236
16585TIP3    H271247   3.392   5.631   4.184  0.6793  1.7782 -0.0688
16586TIP3   OH271248   4.002   5.149  16.694  0.1764 -0.0187 -0.2932
16586TIP3    H171249   3.914   5.158  16.732 -0.5388  0.4082 -1.9740
16586TIP3    H271250   4.056   5.211  16.743  0.1523 -1.8956  2.3522
16587TIP3   OH271251   2.214   6.759   0.076 -0.5424  0.3580  0.0308
16587TIP3    H171252   2.196   6.717   0.160 -0.4404 -3.0914 -1.4777
16587TIP3    H271253   2.301   6.798   0.086  0.1472 -1.3356  1.1455
16588TIP3   OH271254   0.931   3.133  10.355 -0.1852 -0.4625  0.2729
16588TIP3    H171255   1.003   3.071  10.364  0.5542  0.4054  0.5329
16588TIP3    H271256   0.861   3.083  10.314  0.8943 -1.0868 -0.8882
16589TIP3   OH271257   3.713   6.418  16.736 -0.5700 -0.2869  0.3408
16589TIP3    H171258   3.716   6.356  16.809  1.0793  0.8369  1.2904
16589TIP3    H271259   3.805   6.430  16.712 -0.7571  2.4183  0.7553
16590TIP3   OH271260   2.548   5.224  13.116 -0.2102  0.3786 -0.3158
16590TIP3    H171261   2.510   5.166  13.183  2.0643  0.1136  0.8373
16590TIP3    H271262   2.518   5.311  13.141 -1.6995 -0.0084 -0.6535
16591TIP3   OH271263   4.309   1.149   4.157 -0.0322 -0.1717 -0.3062
16591TIP3    H171264   4.320   1.116   4.246 -0.4873  2.1291  0.6701
16591TIP3    H271265   4.384   1.114   4.109  0.1833 -1.4998  0.9486
16592TIP3   OH271266   4.571   4.011   7.132  0.2994 -0.0544  0.1587
16592TIP3    H171267   4.633   4.015   7.060  0.4203 -0.2111  0.2518
16592TIP3    H271268   4.528   3.926   7.122  1.7202 -0.9813  1.3987
16593TIP3   OH271269   3.583   2.845  16.588 -0.0168 -0.3498 -0.3308
16593TIP3    H171270   3.581   2.838  16.493  1.0935 -2.0655 -0.2651
16593TIP3    H271271   3.652   2.909  16.605  1.6975 -2.0186 -0.6707
16594TIP3   OH271272   3.294   6.841  11.735  0.1035  0.4653  0.3083
16594TIP3    H171273   3.291   6.885  11.820 -0.0742  1.8556 -0.3871
16594TIP3    H271274   3.217   6.784  11.735  0.3514  0.1054  1.2429
16595TIP3   OH271275   6.336   6.583  12.463  0.1349  1.1418  0.3158
16595TIP3    H171276   6.251   6.625  12.450  0.3707  1.3205 -0.7069
16595TIP3    H271277   6.348   6.583  12.558 -1.0531  1.0073  0.4807
16596TIP3   OH271278   1.959   1.032   0.387 -0.0748 -0.0245 -0.2203
16596TIP3    H171279   2.036   1.089   0.397 -0.7153  0.6731  0.9549
16596TIP3    H271280   1.987   0.964   0.326  2.2675 -1.1511  1.9361
16597TIP3   OH271281   3.667   6.852   5.522  0.2926  0.3081  0.5284
16597TIP3    H171282   3.751   6.834   5.479  0.8574  2.1001  0.7892
16597TIP3    H271283   3.651   6.774   5.575  2.1099  0.1351  0.9219
16598TIP3   OH271284   0.001   5.189  12.362 -0.4113 -0.4703 -0.6766
16598TIP3    H171285   0.050   5.174  12.442 -1.4886 -2.2556 -0.2961
16598TIP3    H271286   0.008   5.283  12.346  0.2246 -0.1629  1.2269
16599TIP3   OH271287   2.751   6.368  12.417 -0.1537  0.1257  0.4305
16599TIP3    H171288   2.673   6.418  12.391  1.4753  2.2954 -0.6357
16599TIP3    H271289   2.769   6.312  12.342  0.1477  0.7547  0.0183
16600TIP3   OH271290   4.235   1.505   3.069 -0.0961  0.1232 -0.3984
16600TIP3    H171291   4.325   1.497   3.037 -0.0945  0.8745 -0.5941
16600TIP3    H271292   4.214   1.418   3.103  0.8480  0.0457  0.0255
16601TIP3   OH271293   2.958   2.292   4.023 -0.0666  0.5287  0.3087
16601TIP3    H171294   2.949   2.261   3.933  1.9588  1.1364 -0.1647
16601TIP3    H271295   2.951   2.213   4.076 -1.5864  0.1998 -0.3198
16602TIP3   OH271296   4.002   6.568   4.583  0.0262  0.1238 -0.2097
16602TIP3    H171297   4.044   6.645   4.545 -0.6946  0.2664 -0.7400
16602TIP3    H271298   4.038   6.562   4.672 -1.2909  2.1682  0.5232
16603TIP3   OH271299   1.115   2.505  16.108 -0.3208  0.2568 -0.3128
16603TIP3    H171300   1.054   2.546  16.169  0.7741  0.5202  0.6231
16603TIP3    H271301   1.105   2.555  16.027 -0.9509  0.6415 -0.0045
16604TIP3   OH271302   5.018   2.369   0.674  1.0363  0.5244 -0.5215
16604TIP3    H171303   4.963   2.299   0.711  1.2595 -0.4999 -2.0168
16604TIP3    H271304   4.957   2.420   0.620  1.1896  0.4627 -0.7551
16605TIP3   OH271305   0.121   1.553   2.950  0.0200  0.3313 -0.2471
16605TIP3    H171306   0.139   1.586   3.038 -0.5810 -0.3502  0.1448
16605TIP3    H271307   0.027   1.533   2.951  0.1967 -0.5737 -0.7364
16606TIP3   OH271308   3.303   5.994   5.093  0.3356 -0.1588 -0.1096
16606TIP3    H171309   3.225   6.036   5.057  0.4154  1.3039  1.3124
16606TIP3    H271310   3.332   6.052   5.163  2.5768 -0.7969 -0.4182
16607TIP3   OH271311   1.213   3.692  13.496 -0.1053  0.4573 -0.0385
16607TIP3    H171312   1.304   3.712  13.518  0.3155 -1.0680 -0.2473
16607TIP3    H271313   1.185   3.765  13.442  1.3145  0.5037 -0.7648
16608TIP3   OH271314   4.839   5.322  15.656 -0.2367  0.3737  0.3427
16608TIP3    H171315   4.871   5.411  15.666 -1.8614  0.9744  0.5367
16608TIP3    H271316   4.894   5.270  15.715  1.8447  0.9109 -1.0132
16609TIP3   OH271317   3.389   5.229   5.041  0.4491  0.5813  0.4682
16609TIP3    H171318   3.446   5.305   5.027 -0.5712  1.5221  1.2141
16609TIP3    H271319   3.435   5.177   5.107  0.7720  0.9810  0.5682
16610TIP3   OH271320   6.340   5.980  16.639 -0.0885  0.4988 -0.7199
16610TIP3    H171321   6.310   5.979  16.548 -0.1310 -0.0172 -0.7050
16610TIP3    H271322   6.323   5.891  16.670  1.7663  0.0809 -0.8175
16611TIP3   OH271323   2.375   3.122   4.512  0.5463  0.0319 -0.1753
16611TIP3    H171324   2.368   3.027   4.511  0.8514 -0.0113  0.8876
16611TIP3    H271325   2.436   3.143   4.442 -0.8969 -0.4146 -1.6143
16612TIP3   OH271326   3.355   5.598  14.508 -0.1429 -0.5835 -0.1997
16612TIP3    H171327   3.404   5.526  14.469  1.5596  0.3893  0.0480
16612TIP3    H271328   3.304   5.634  14.436  0.5285 -0.8017 -0.7910
16613TIP3   OH271329   5.840   2.496   0.379 -0.1247  0.2480  0.3533
16613TIP3    H171330   5.838   2.590   0.399  0.4743  0.3158  0.1109
16613TIP3    H271331   5.933   2.477   0.363 -0.1614 -0.5179  1.0234
16614TIP3   OH271332   5.713   3.995   6.054 -0.0754  0.0533  0.3071
16614TIP3    H171333   5.633   3.963   6.012  0.2188 -1.7657  1.0184
16614TIP3    H271334   5.770   3.918   6.056  0.7136  0.6445  2.1318
16615TIP3   OH271335   3.497   4.551   5.085 -0.6640  0.0369  0.5386
16615TIP3    H171336   3.508   4.456   5.083 -2.4944 -0.2139  0.9479
16615TIP3    H271337   3.488   4.576   4.994  1.3346  0.0643  0.2972
16616TIP3   OH271338   1.535   4.566  15.638 -0.2486  0.0923  0.3938
16616TIP3    H171339   1.485   4.522  15.569  0.1118 -0.1686  0.2944
16616TIP3    H271340   1.626   4.556  15.612 -0.0580 -0.6420  1.2566
16617TIP3   OH271341   5.492   5.509  14.681  0.3759 -0.0726  0.1316
16617TIP3    H171342   5.435   5.460  14.621  3.8784 -0.2200 -3.5231
16617TIP3    H271343   5.507   5.593  14.637  3.6766 -0.4460  0.2779
16618TIP3   OH271344   6.112   0.057  10.844  0.0613  0.0770  0.1123
16618TIP3    H171345   6.041   0.100  10.798  0.3946 -1.1800 -1.6559
16618TIP3    H271346   6.069  -0.003  10.905 -0.3777  0.2134 -0.0671
16619TIP3   OH271347   0.535   4.296   2.987  0.3999 -0.3268 -1.0169
16619TIP3    H171348   0.584   4.214   2.977  0.4461 -0.8008  2.0030
16619TIP3    H271349   0.445   4.267   3.006  0.4197  0.2872  0.0968
16620TIP3   OH271350   2.465   3.852  11.841  0.5985  0.1110 -0.6285
16620TIP3    H171351   2.413   3.918  11.887  0.7813 -0.9443  1.2006
16620TIP3    H271352   2.420   3.769  11.858  1.0051 -0.4030 -1.9118
16621TIP3   OH271353   6.843   4.326   5.637  0.1390 -0.1663  0.0603
16621TIP3    H171354   6.913   4.386   5.610  0.9559 -0.0743  2.2123
16621TIP3    H271355   6.873   4.290   5.720 -1.4448 -1.7474 -0.0078
16622TIP3   OH271356   2.488   5.373   2.918  0.6434  0.1350  0.6259
16622TIP3    H171357   2.455   5.292   2.956  2.3180 -0.6299  0.5239
16622TIP3    H271358   2.424   5.439   2.945 -0.5849 -1.1421  0.9754
16623TIP3   OH271359   4.525   1.138  13.278 -0.1158  0.6505 -0.0815
16623TIP3    H171360   4.582   1.072  13.317  0.0829  0.2051 -1.0940
16623TIP3    H271361   4.436   1.107  13.296 -0.1167 -1.6679 -3.2279
16624TIP3   OH271362   3.542   5.800  14.483  0.0627 -0.3973  0.4100
16624TIP3    H171363   3.475   5.740  14.514 -1.2630  1.6434  1.7819
16624TIP3    H271364   3.510   5.832  14.399 -0.3767  0.0631  0.7455
16625TIP3   OH271365   6.660   4.318   4.763  0.2469  0.2162 -0.2890
16625TIP3    H171366   6.750   4.347   4.781 -0.1005 -0.0635  2.3778
16625TIP3    H271367   6.609   4.399   4.758  0.2699  0.3090  0.7821
16626TIP3   OH271368   6.831   2.046  14.860  0.5270 -0.1756  0.5265
16626TIP3    H171369   6.860   2.129  14.898  0.3958 -0.3494  1.0040
16626TIP3    H271370   6.893   2.030  14.788  1.3608 -0.3216  1.2554
16627TIP3   OH271371   1.021   4.472  14.438  0.0260 -0.4095  0.6594
16627TIP3    H171372   0.962   4.532  14.393 -0.8926 -0.8234  1.2925
16627TIP3    H271373   1.011   4.492  14.531 -0.1525 -1.4017  0.8668
16628TIP3   OH271374   3.849   4.833   5.934  0.1020  0.1561 -0.2867
16628TIP3    H171375   3.891   4.846   6.018 -1.4624  0.9336  0.4069
16628TIP3    H271376   3.759   4.864   5.946 -0.5893 -1.0675 -1.8083
16629TIP3   OH271377   0.537   2.099   0.593 -0.4430 -0.3151  0.1937
16629TIP3    H171378   0.491   2.154   0.529 -0.5228  1.4262  1.6501
16629TIP3    H271379   0.471   2.079   0.659  0.3689  0.6682  1.3631
16630TIP3   OH271380   2.832   2.378  15.554  0.4869  0.0616 -0.4941
16630TIP3    H171381   2.765   2.433  15.594 -0.0594 -1.0655  0.2189
16630TIP3    H271382   2.798   2.358  15.467  0.6428  0.7413 -0.7197
16631TIP3   OH271383   1.142   5.186   5.171 -0.0138 -0.2846  0.0659
16631TIP3    H171384   1.212   5.135   5.130 -0.4833 -0.5324 -0.4307
16631TIP3    H271385   1.068   5.177   5.112 -0.5875 -0.3419  0.7793
16632TIP3   OH271386   5.647   1.400   1.639  0.3172  0.2122  0.8372
16632TIP3    H171387   5.586   1.468   1.613  0.3945 -0.3495 -0.9519
16632TIP3    H271388   5.674   1.359   1.557  1.1449 -1.2226  1.7724
16633TIP3   OH271389   3.730   2.488  13.584  0.2405  0.0984 -0.1266
16633TIP3    H171390   3.811   2.531  13.556  1.8743 -3.4141 -1.4086
16633TIP3    H271391   3.661   2.545  13.550  2.1710  1.9845 -1.1920
16634TIP3   OH271392   0.294   3.667  11.820  0.1989 -0.3472 -0.3918
16634TIP3    H171393   0.350   3.640  11.892 -2.0897 -1.6488  1.0366
16634TIP3    H271394   0.340   3.740  11.779  1.9706 -0.0898  1.8719
16635TIP3   OH271395   4.330   3.319  11.458  0.5102  0.4990  0.1311
16635TIP3    H171396   4.364   3.285  11.541 -1.0177 -0.6613  0.3187
16635TIP3    H271397   4.327   3.243  11.400  1.8603  1.3547 -1.1427
16636TIP3   OH271398   0.941   4.203  14.342 -0.3254 -0.1167 -0.1081
16636TIP3    H171399   0.999   4.158  14.403  1.9286  0.7769 -1.4736
16636TIP3    H271400   0.946   4.295  14.368 -0.8185  0.0277 -0.5058
16637TIP3   OH271401   5.982   5.520  12.703  0.1751 -0.1634 -0.5366
16637TIP3    H171402   5.919   5.451  12.683  0.7747 -0.4165 -1.6572
16637TIP3    H271403   6.024   5.492  12.784 -0.8886 -0.1666  0.0284
16638TIP3   OH271404   2.268   3.708   4.841 -0.8007 -0.4384  1.0512
16638TIP3    H171405   2.332   3.659   4.892 -0.2299  0.1139  0.8815
16638TIP3    H271406   2.304   3.711   4.753 -0.3791  1.0243  1.2453
16639TIP3   OH271407   4.090   1.213   1.243 -0.1557  0.1629 -1.0441
16639TIP3    H171408   4.074   1.120   1.258  1.2339  0.0143 -0.2748
16639TIP3    H271409   4.180   1.217   1.211  0.2170  1.3110  0.0449
16640TIP3   OH271410   4.655   3.031  11.259  0.1242 -0.0056 -0.0053
16640TIP3    H171411   4.678   3.001  11.171 -0.5794 -1.2579  0.2164
16640TIP3    H271412   4.739   3.059  11.297  0.5066  0.0981 -0.8866
16641TIP3   OH271413   2.398   4.002  12.751 -0.4543  0.1660 -0.1445
16641TIP3    H171414   2.382   4.095  12.734 -1.1696 -0.3349 -2.5879
16641TIP3    H271415   2.490   3.989  12.725 -0.0110  0.3790  1.2486
16642TIP3   OH271416   6.617   6.176   3.890 -0.6097 -0.1219  0.1009
16642TIP3    H171417   6.623   6.237   3.816 -0.0130 -0.5663 -0.2256
16642TIP3    H271418   6.558   6.107   3.859  0.6709 -0.9897 -0.4638
16643TIP3   OH271419   1.713   5.996   1.010 -0.3901  0.2109 -0.5295
16643TIP3    H171420   1.745   6.008   1.100 -0.0893 -0.8050 -0.4857
16643TIP3    H271421   1.753   5.914   0.982 -0.7341  0.3647 -1.4887
16644TIP3   OH271422   4.985   4.680   5.196 -0.0173 -0.2063 -0.0990
16644TIP3    H171423   5.044   4.621   5.242 -0.4924  0.3479  1.2633
16644TIP3    H271424   4.971   4.638   5.111 -0.1319 -1.9222  0.7186
16645TIP3   OH271425   4.892   3.307  12.497 -0.5293  0.5029 -0.6286
16645TIP3    H171426   4.980   3.343  12.498 -1.2429  2.3489  1.1324
16645TIP3    H271427   4.871   3.298  12.404  1.4578  0.0766 -1.0704
16646TIP3   OH271428   2.134   4.267   3.049 -0.2123  0.6383  0.1599
16646TIP3    H171429   2.074   4.254   2.975  0.0343 -0.0480  0.0658
16646TIP3    H271430   2.140   4.180   3.090  2.2022  0.1543 -0.9901
16647TIP3   OH271431   0.391   4.371   3.544  0.4751  0.4513 -0.5660
16647TIP3    H171432   0.437   4.296   3.582  0.7863  0.0343 -1.7113
16647TIP3    H271433   0.376   4.430   3.618  1.3842 -0.1524  0.1272
16648TIP3   OH271434   4.726   1.941  17.040  0.1120  0.4654  0.3998
16648TIP3    H171435   4.777   2.020  17.056 -2.1082  2.0022  0.4269
16648TIP3    H271436   4.736   1.924  16.946  1.3941  0.1479  0.5745
16649TIP3   OH271437   2.782   0.129   2.710  0.0507  0.0216  0.7763
16649TIP3    H171438   2.689   0.134   2.689  0.4790  0.4253 -1.2407
16649TIP3    H271439   2.802   0.214   2.750 -0.3663  0.1108  0.7986
16650TIP3   OH271440   1.078   4.664   3.333  0.2360  0.3778  0.4437
16650TIP3    H171441   1.070   4.590   3.273  1.5715 -0.9185  1.7654
16650TIP3    H271442   1.150   4.716   3.297 -0.0513  0.5046  0.0476
16651TIP3   OH271443   4.470   5.098  14.136  0.4436 -0.2675 -0.0950
16651TIP3    H171444   4.375   5.106  14.131  0.4987  0.4659  0.0214
16651TIP3    H271445   4.485   5.038  14.210  0.1177  1.1648  1.1864
16652TIP3   OH271446   4.162   4.030  15.952  0.1143  0.1779 -0.8517
16652TIP3    H171447   4.186   3.947  15.911  0.4181 -0.6861  0.9591
16652TIP3    H271448   4.239   4.053  16.005 -0.3536  1.0774 -0.5418
16653TIP3   OH271449   4.221   3.006   3.802  0.2054 -0.5005  1.0101
16653TIP3    H171450   4.135   2.978   3.773  0.1103 -0.5471  1.3373
16653TIP3    H271451   4.270   3.020   3.720  0.3921 -2.0259  0.8353
16654TIP3   OH271452   5.895   3.200   2.744  0.5358 -0.2070  0.4787
16654TIP3    H171453   5.828   3.253   2.702  1.3191 -0.5475 -1.2815
16654TIP3    H271454   5.911   3.243   2.828 -1.5315  0.1331  0.7544
16655TIP3   OH271455   4.988   1.325   1.655  0.0831 -0.6659  0.0425
16655TIP3    H171456   4.966   1.233   1.638 -1.2124 -0.3239 -0.3024
16655TIP3    H271457   5.043   1.350   1.581 -0.8268 -0.7637 -0.6989
16656TIP3   OH271458   5.837   6.449  12.817  0.0478 -0.4521 -0.2080
16656TIP3    H171459   5.862   6.490  12.735 -1.0248  0.6312 -0.0400
16656TIP3    H271460   5.824   6.523  12.877 -1.6254 -1.0243  0.2033
16657TIP3   OH271461   5.990   5.809   2.668 -0.2800  0.1636  0.3148
16657TIP3    H171462   5.918   5.794   2.606  1.4035  2.0634 -2.2979
16657TIP3    H271463   6.026   5.894   2.642  2.4351 -0.3670  2.0187
16658TIP3   OH271464   0.393   6.372   5.555 -0.5827 -1.0823  0.0365
16658TIP3    H171465   0.452   6.429   5.506 -1.1511  0.1523  0.7471
16658TIP3    H271466   0.349   6.430   5.617 -0.9269 -2.3622  1.0313
16659TIP3   OH271467   2.653   3.395  12.105 -0.3801  0.6982 -0.1854
16659TIP3    H171468   2.615   3.310  12.081  0.7469  0.0178  0.3262
16659TIP3    H271469   2.636   3.451  12.029 -3.4692  0.8508  0.5004
16660TIP3   OH271470   2.925   0.669  17.092 -0.3548 -0.8095 -0.0936
16660TIP3    H171471   2.835   0.698  17.107 -0.2288 -0.1844 -0.4834
16660TIP3    H271472   2.947   0.617  17.169 -1.1457 -1.2067 -0.1268
16661TIP3   OH271473   6.462   4.797  11.035 -0.0371 -0.0942  0.4760
16661TIP3    H171474   6.412   4.716  11.042  0.2578 -0.3112  0.0933
16661TIP3    H271475   6.411   4.861  11.084 -0.8362 -0.2363 -0.1554
16662TIP3   OH271476   5.868   3.559  15.014 -0.5327  0.2236  0.4402
16662TIP3    H171477   5.793   3.607  14.978 -0.2043  0.7036  0.3982
16662TIP3    H271478   5.912   3.522  14.937 -2.0911 -2.1524  0.5619
16663TIP3   OH271479   5.145   6.062  13.630 -0.2113 -0.3029  0.3833
16663TIP3    H171480   5.097   6.126  13.578 -1.0853 -1.9545 -0.9220
16663TIP3    H271481   5.128   5.978  13.588  1.5351 -1.3275  1.5681
16664TIP3   OH271482   0.413   4.924   4.318 -0.1882 -0.4633 -1.1287
16664TIP3    H171483   0.421   4.989   4.249  1.9242  1.4827  0.7956
16664TIP3    H271484   0.476   4.856   4.294  0.2115 -0.0233 -1.3376
16665TIP3   OH271485   2.253   5.413   0.269 -0.4630 -0.5049  0.6952
16665TIP3    H171486   2.316   5.344   0.290 -1.9125 -1.9469  0.4933
16665TIP3    H271487   2.228   5.449   0.354  1.0604  0.5303  0.7446
16666TIP3   OH271488   5.290   4.482   2.463  0.7581 -0.3473  0.3412
16666TIP3    H171489   5.385   4.470   2.467  0.8084  0.2733  1.2683
16666TIP3    H271490   5.274   4.567   2.506 -0.2869 -0.8237  0.9362
16667TIP3   OH271491   4.032   4.522   0.324  0.0716 -0.1402  0.0030
16667TIP3    H171492   4.009   4.580   0.396 -1.0631 -0.9311  0.3063
16667TIP3    H271493   4.074   4.447   0.366  0.5783 -0.0243 -0.2876
16668TIP3   OH271494   4.667   6.351  17.062 -0.5374  0.4032  0.1705
16668TIP3    H171495   4.632   6.434  17.094 -0.9089 -0.2978  1.7005
16668TIP3    H271496   4.746   6.337  17.114  0.1536  0.3304 -0.8752
16669TIP3   OH271497   0.384   0.199   5.149 -0.1582 -0.4772 -0.4533
16669TIP3    H171498   0.463   0.255   5.144 -0.1032 -0.5365 -0.2300
16669TIP3    H271499   0.313   0.261   5.164  0.2175 -0.6588  2.6960
16670TIP3   OH271500   5.907   4.205  15.243  0.2054 -0.1737 -0.2635
16670TIP3    H171501   5.899   4.194  15.338 -0.4476 -1.4897 -0.4566
16670TIP3    H271502   5.851   4.137  15.206  1.2301 -0.3285 -1.6004
16671TIP3   OH271503   3.672   3.974  15.330 -0.6159  0.3166  0.4144
16671TIP3    H171504   3.602   3.915  15.359 -2.1065  0.9033 -1.6797
16671TIP3    H271505   3.665   4.050  15.389 -0.0282 -0.6964  1.8290
16672TIP3   OH271506   6.552   0.856  12.461  0.0914 -0.2873 -0.0806
16672TIP3    H171507   6.603   0.909  12.400  0.3618  0.3891  0.7211
16672TIP3    H271508   6.465   0.895  12.460  0.0828 -0.3062 -0.0671
16673TIP3   OH271509   0.597   6.723  15.764  0.1838 -0.4614  0.2787
16673TIP3    H171510   0.682   6.733  15.806  1.0234 -0.5426 -1.3185
16673TIP3    H271511   0.548   6.801  15.790  0.5693 -0.6391  1.5812
16674TIP3   OH271512   3.304   0.625  12.927  0.8811 -0.4448 -0.3033
16674TIP3    H171513   3.288   0.534  12.948 -1.4846  0.3804  1.9901
16674TIP3    H271514   3.217   0.666  12.928  1.6813  1.5676 -2.8630
16675TIP3   OH271515   0.035   4.811  14.913 -0.6474  0.4265 -0.7391
16675TIP3    H171516   0.127   4.829  14.894  0.1095 -1.6813  0.5551
16675TIP3    H271517   0.007   4.753  14.842 -0.0099 -1.4196  0.4466
16676TIP3   OH271518   2.816   5.666  12.018  0.0852  0.1201  0.4779
16676TIP3    H171519   2.765   5.591  12.049  0.0524  0.5173  1.4393
16676TIP3    H271520   2.763   5.742  12.042 -0.7520  0.4523 -2.0883
16677TIP3   OH271521   4.442   5.542  15.123  0.0495 -0.4747 -0.0312
16677TIP3    H171522   4.386   5.568  15.050 -0.8037 -2.3038 -0.0812
16677TIP3    H271523   4.458   5.623  15.172 -0.9861  0.4239 -1.1413
16678TIP3   OH271524   4.921   2.392  15.251 -0.2051 -0.1095  0.2785
16678TIP3    H171525   4.878   2.383  15.165 -0.7123  1.0641  0.4009
16678TIP3    H271526   4.870   2.458  15.297 -0.2759 -1.1291  1.7177
16679TIP3   OH271527   2.499   3.764  13.926  0.4448 -0.1595 -0.1860
16679TIP3    H171528   2.435   3.699  13.952  0.2712 -1.1114 -2.6592
16679TIP3    H271529   2.451   3.847  13.923 -0.5163 -0.7416 -1.3323
16680TIP3   OH271530   2.370   5.590   4.983  0.0612 -0.1153 -0.3337
16680TIP3    H171531   2.454   5.622   5.017  0.7571 -0.5201 -1.6050
16680TIP3    H271532   2.381   5.591   4.888 -1.2794 -0.4690 -0.5136
16681TIP3   OH271533   4.595   5.207  16.496 -0.0894  0.0353  0.0188
16681TIP3    H171534   4.532   5.279  16.502  1.7232  1.7632 -0.4011
16681TIP3    H271535   4.595   5.167  16.582 -1.9970 -0.2495 -0.0850
16682TIP3   OH271536   0.818   6.009   1.153  0.3801 -0.4033  0.2932
16682TIP3    H171537   0.735   5.981   1.193 -0.6158  0.4634 -1.0456
16682TIP3    H271538   0.838   5.941   1.090 -0.0040 -0.0090 -0.2669
16683TIP3   OH271539   6.176   3.538  11.828  0.4939 -0.1452 -0.0956
16683TIP3    H171540   6.119   3.609  11.798  1.4508  0.9832  0.6302
16683TIP3    H271541   6.117   3.464  11.842 -1.0058  1.2791  1.6823
16684TIP3   OH271542   4.839   3.156  16.954 -0.1259 -0.0977  0.1594
16684TIP3    H171543   4.860   3.073  16.912  0.8817 -0.1225  0.6958
16684TIP3    H271544   4.861   3.142  17.046  0.7516  1.0024  0.1230
16685TIP3   OH271545   6.013   0.008   6.650  0.6291 -0.5199 -0.3365
16685TIP3    H171546   5.975  -0.058   6.591 -2.0124  0.0718  0.5411
16685TIP3    H271547   5.963   0.088   6.632  0.6733  0.0350  1.7305
16686TIP3   OH271548   2.833   0.991  13.005 -0.0481  0.1439  0.0816
16686TIP3    H171549   2.780   0.913  13.019  1.0582 -0.5048  0.8021
16686TIP3    H271550   2.843   1.029  13.093 -1.1491  1.4977 -0.3496
16687TIP3   OH271551   4.646   4.053  14.741  0.2534 -0.1166 -0.7701
16687TIP3    H171552   4.615   4.025  14.827  1.4328 -0.0688 -0.3142
16687TIP3    H271553   4.571   4.039  14.683 -0.5817 -0.0677  0.2729
16688TIP3   OH271554   2.718   1.600  11.864 -0.0909 -0.0312  0.1326
16688TIP3    H171555   2.767   1.677  11.837  0.2390 -0.6695 -1.2165
16688TIP3    H271556   2.626   1.626  11.854 -0.0105 -0.3888 -2.3726
16689TIP3   OH271557   3.528   1.060   2.755  0.2072  0.1390  0.3194
16689TIP3    H171558   3.474   1.139   2.745  0.3435  0.2878  0.7272
16689TIP3    H271559   3.535   1.049   2.850  0.9625  0.1600  0.2672
16690TIP3   OH271560   5.745   6.340  15.064 -0.3330  0.0627  0.1670
16690TIP3    H171561   5.684   6.375  15.129  3.0238  2.5265  2.3747
16690TIP3    H271562   5.756   6.411  15.001  0.4646 -0.2019 -0.0048
16691TIP3   OH271563   2.686   5.763  12.655  0.1919  0.4426 -0.0935
16691TIP3    H171564   2.685   5.753  12.560  1.7877 -2.8455  0.0907
16691TIP3    H271565   2.663   5.676  12.689 -1.3704  1.7606  2.5834
16692TIP3   OH271566   5.435   6.331   5.380  0.0055  0.2454  0.1375
16692TIP3    H171567   5.526   6.352   5.399 -0.2178  0.7684  0.6667
16692TIP3    H271568   5.416   6.254   5.434  0.0839  0.2346  0.1495
16693TIP3   OH271569   4.776   3.592  11.525 -0.3325  0.4207  0.2711
16693TIP3    H171570   4.738   3.504  11.522 -0.4890  0.5122 -1.1200
16693TIP3    H271571   4.726   3.642  11.462  0.8298  1.0591 -0.1796
16694TIP3   OH271572   4.310   4.217   1.846  0.0993 -0.4436  1.3832
16694TIP3    H171573   4.378   4.249   1.787 -0.6307  1.3306  1.4289
16694TIP3    H271574   4.320   4.270   1.925 -1.4524  0.0271  1.3017
16695TIP3   OH271575   4.715   4.724   5.771 -0.5310 -0.1185 -0.3272
16695TIP3    H171576   4.713   4.818   5.786 -1.2993  0.1028 -1.6063
16695TIP3    H271577   4.767   4.714   5.690 -1.1377 -0.7039 -0.6538
16696TIP3   OH271578   2.249   0.153  16.809  0.4238  0.2804 -0.3541
16696TIP3    H171579   2.182   0.177  16.872  0.3541 -0.0758 -0.2884
16696TIP3    H271580   2.282   0.236  16.775 -0.5841  0.4577 -0.9547
16697TIP3   OH271581   4.194   6.038   1.598 -0.0887 -0.1217  0.8804
16697TIP3    H171582   4.273   5.991   1.625  0.4650  0.6302  0.6082
16697TIP3    H271583   4.199   6.121   1.644 -0.9964 -0.2709  1.2657
16698TIP3   OH271584   0.211   5.196  14.866 -0.5485  0.0858  1.0386
16698TIP3    H171585   0.142   5.144  14.826  1.1869 -1.7312  0.2539
16698TIP3    H271586   0.177   5.286  14.865 -2.2274 -0.4957 -0.7631
16699TIP3   OH271587   2.360   4.312  15.712 -0.0251 -0.2761  0.1622
16699TIP3    H171588   2.357   4.380  15.780  0.4303 -0.4491  0.3616
16699TIP3    H271589   2.300   4.244  15.743 -0.8040  0.2153 -0.2423
16700TIP3   OH271590   0.536   2.967   0.406  0.1747 -0.9389  0.1295
16700TIP3    H171591   0.556   2.963   0.313  0.0249  1.0880 -0.0511
16700TIP3    H271592   0.557   2.880   0.440 -0.3623 -1.9083 -1.8936
16701TIP3   OH271593   4.484   0.789   5.254 -0.1360  0.4972  0.3133
16701TIP3    H171594   4.547   0.746   5.311  0.8573  1.2769 -0.1615
16701TIP3    H271595   4.489   0.739   5.172  0.9423  1.3937 -0.2035
16702TIP3   OH271596   5.340   4.513   5.554 -0.4151  0.0846  0.3127
16702TIP3    H171597   5.428   4.480   5.534 -1.0186 -0.3801 -1.8282
16702TIP3    H271598   5.302   4.448   5.613  0.1191 -0.5661 -0.0488
16703TIP3   OH271599   2.819   5.394   1.585  0.4383  0.3903 -0.6578
16703TIP3    H171600   2.728   5.384   1.612  0.0392  0.2229 -1.9581
16703TIP3    H271601   2.830   5.488   1.571  0.4525  0.4047 -0.5522
16704TIP3   OH271602   6.210   3.998  16.646 -0.1653  0.4030  0.0260
16704TIP3    H171603   6.288   4.036  16.687 -0.4299 -0.1832  1.1048
16704TIP3    H271604   6.149   3.983  16.719 -1.1205  0.4485 -0.7467
16705TIP3   OH271605   6.640   2.359   1.795  0.3596 -0.1196 -0.4440
16705TIP3    H171606   6.697   2.316   1.732 -1.7501 -0.0170 -2.5697
16705TIP3    H271607   6.589   2.287   1.834 -0.2996  0.0509 -0.9711
16706TIP3   OH271608   1.736   2.247   5.202  0.2139 -0.0337  0.2842
16706TIP3    H171609   1.644   2.260   5.179  0.2594  0.7048  0.4818
16706TIP3    H271610   1.736   2.224   5.294  0.1994 -0.5088  0.1681
16707TIP3   OH271611   1.535   2.961  12.377  0.3817 -0.2297 -0.0314
16707TIP3    H171612   1.550   3.015  12.300  2.5185  0.3494  0.7158
16707TIP3    H271613   1.522   3.024  12.448  3.3117 -0.5648  0.9243
16708TIP3   OH271614   3.401   2.276   1.677 -0.8474 -0.2259  0.3676
16708TIP3    H171615   3.307   2.260   1.677 -1.2117  1.6915  0.0492
16708TIP3    H271616   3.424   2.290   1.769 -0.3493 -3.1526  0.7775
16709TIP3   OH271617   0.015   6.523   5.935  0.7396 -0.6429 -0.7957
16709TIP3    H171618   0.004   6.470   6.013  1.2982 -0.0268 -0.2856
16709TIP3    H271619  -0.030   6.474   5.866 -1.0258 -0.4983  0.1957
16710TIP3   OH271620   4.236   2.307   3.665  0.4437 -0.2950  0.3307
16710TIP3    H171621   4.310   2.366   3.645  0.4615 -1.4960 -4.0749
16710TIP3    H271622   4.277   2.232   3.709  1.6936 -0.3912 -0.9362
16711TIP3   OH271623   6.357   2.146  14.526  0.1967  0.3144 -0.3272
16711TIP3    H171624   6.427   2.105  14.577 -0.2452 -2.0252 -1.4520
16711TIP3    H271625   6.402   2.204  14.465  1.2646 -1.3893 -1.2517
16712TIP3   OH271626   5.957   0.073   5.619 -0.2498  0.0959  0.6478
16712TIP3    H171627   6.009   0.023   5.556  0.5269 -1.1068  2.1704
16712TIP3    H271628   5.866   0.050   5.598 -0.0745  0.4782 -0.6214
16713TIP3   OH271629   6.282   4.249   1.824 -0.1568  0.8381  0.5535
16713TIP3    H171630   6.339   4.204   1.886  0.3227  2.1578  1.1193
16713TIP3    H271631   6.331   4.249   1.742  1.0415  2.5442  1.1947
16714TIP3   OH271632   2.991   5.926  11.768  0.5094  0.4255 -0.9171
16714TIP3    H171633   3.034   5.917  11.853  1.8453 -0.6676 -1.6619
16714TIP3    H271634   3.044   5.990  11.721 -0.2988  1.1214 -0.9047
16715TIP3   OH271635   1.312   5.306   2.125 -0.1791 -0.3602 -0.1548
16715TIP3    H171636   1.347   5.252   2.196 -0.5813  0.4314  0.6624
16715TIP3    H271637   1.218   5.287   2.125 -0.0662 -0.9827 -1.0404
16716TIP3   OH271638   3.315   4.215  15.393  0.3887  0.3159 -0.1477
16716TIP3    H171639   3.410   4.212  15.403  0.4935  0.4643 -0.9909
16716TIP3    H271640   3.301   4.224  15.298 -0.4477  0.7873  0.0057
16717TIP3   OH271641   6.363   4.833  13.298 -0.4858 -0.2778  0.4462
16717TIP3    H171642   6.331   4.914  13.338  0.9823  1.3444 -1.4060
16717TIP3    H271643   6.293   4.770  13.312 -1.1681  0.9257  3.0430
16718TIP3   OH271644   3.498   1.414   3.497 -0.5641 -0.1435  0.0852
16718TIP3    H171645   3.574   1.433   3.441  0.2809 -0.9098  0.9354
16718TIP3    H271646   3.492   1.490   3.555 -0.1022 -0.3307  0.3799
16719TIP3   OH271647   6.019   4.990  16.686  0.7156  0.3926 -0.1234
16719TIP3    H171648   5.930   4.990  16.720  1.0911 -1.3815  0.9616
16719TIP3    H271649   6.019   5.060  16.621 -1.8196 -0.4248 -1.1179
16720TIP3   OH271650   3.630   3.339   5.214 -0.1261  0.6112  0.8627
16720TIP3    H171651   3.655   3.364   5.303 -0.0106  0.6024  0.8329
16720TIP3    H271652   3.548   3.386   5.197 -0.4855  0.1217  1.2054
16721TIP3   OH271653   0.769   3.953  11.335  0.7381  0.1206 -0.0969
16721TIP3    H171654   0.782   4.041  11.299  2.3146 -0.4196 -0.9403
16721TIP3    H271655   0.727   3.904  11.264  0.9730 -0.1318 -0.0593
16722TIP3   OH271656   6.378   0.074   0.267  0.3659 -0.3429  0.0204
16722TIP3    H171657   6.473   0.073   0.255  0.6685 -0.2396  2.0221
16722TIP3    H271658   6.366   0.076   0.362 -1.6148  1.7754 -0.1845
16723TIP3   OH271659   3.922   5.770   1.357 -0.2315  0.4069 -0.0520
16723TIP3    H171660   3.894   5.827   1.286 -0.0025 -0.8209 -1.1660
16723TIP3    H271661   3.912   5.823   1.436  0.2475  2.0844 -1.0641
16724TIP3   OH271662   5.243   1.317   4.858 -0.5983  0.0621  0.6591
16724TIP3    H171663   5.280   1.398   4.822  0.1144 -1.0740 -1.2986
16724TIP3    H271664   5.314   1.279   4.910 -0.4463 -0.0124  0.3991
16725TIP3   OH271665   3.436   5.535  15.402 -0.0338  0.1858  0.9920
16725TIP3    H171666   3.453   5.628  15.387 -0.7388 -0.0572 -2.0964
16725TIP3    H271667   3.516   5.491  15.372 -0.3172 -0.2798  0.9072
16726TIP3   OH271668   4.255   5.731   0.472  0.5417 -0.1596  0.6743
16726TIP3    H171669   4.182   5.785   0.441  0.7121 -0.2232  0.1626
16726TIP3    H271670   4.212   5.657   0.515  0.3043  0.4368  1.5085
16727TIP3   OH271671   0.623   0.733   3.804  0.3066  0.4703 -0.2578
16727TIP3    H171672   0.661   0.790   3.738  0.0609  0.0937 -0.7273
16727TIP3    H271673   0.550   0.784   3.841  2.1705  1.8597  1.7822
16728TIP3   OH271674   4.257   1.678  13.467  0.5923 -0.0829 -0.0909
16728TIP3    H171675   4.342   1.650  13.503  1.4447 -0.3004 -2.1004
16728TIP3    H271676   4.277   1.701  13.376 -1.3267  0.9377 -0.2945
16729TIP3   OH271677   3.984   0.884   6.190  0.1381 -0.1528 -0.0481
16729TIP3    H171678   4.044   0.868   6.262  1.2966  0.8760 -0.7543
16729TIP3    H271679   3.961   0.977   6.197 -0.3536 -0.2238 -0.5508
16730TIP3   OH271680   6.714   3.813  16.992 -0.1596 -0.1499 -0.3737
16730TIP3    H171681   6.729   3.737  17.049  1.1245 -1.0603 -1.8524
16730TIP3    H271682   6.754   3.789  16.909  0.5886  2.2986 -0.8001
16731TIP3   OH271683   5.443   2.529   0.358 -0.2079 -0.7362 -0.6719
16731TIP3    H171684   5.474   2.618   0.378  0.9686 -0.5239 -3.1448
16731TIP3    H271685   5.377   2.512   0.426  0.0450  1.7243  0.3195
16732TIP3   OH271686   6.673   5.486  10.517  0.2949  0.1981  0.9247
16732TIP3    H171687   6.631   5.557  10.469  0.9760 -0.5709 -0.9254
16732TIP3    H271688   6.754   5.523  10.550  0.5935  0.3202  0.0655
16733TIP3   OH271689   5.131   4.530  13.982  0.6214 -0.2387  0.4471
16733TIP3    H171690   5.177   4.614  13.973  1.7301 -0.7672  1.0364
16733TIP3    H271691   5.097   4.513  13.894 -0.8031  1.4595  0.5968
16734TIP3   OH271692   2.095   6.274   0.539 -0.5510  0.2436  0.1297
16734TIP3    H171693   2.110   6.309   0.452  0.4156  1.3319  0.7206
16734TIP3    H271694   2.124   6.342   0.599 -0.1804 -0.9054  1.3177
16735TIP3   OH271695   4.490   4.078  13.226  0.0099 -0.2112 -0.2368
16735TIP3    H171696   4.549   4.078  13.150  2.1065  0.1344  1.2991
16735TIP3    H271697   4.518   4.003  13.277 -2.0290 -1.0135 -0.2214
16736TIP3   OH271698   4.955   2.938   3.742  0.0393 -0.1894 -0.1098
16736TIP3    H171699   4.861   2.943   3.758 -0.0600 -1.3142 -0.2261
16736TIP3    H271700   4.963   2.883   3.663  0.7747  0.2035 -0.3200
16737TIP3   OH271701   6.191   6.541   6.636 -0.3519 -0.1908 -0.1802
16737TIP3    H171702   6.251   6.615   6.632 -1.0376  0.3145 -2.1257
16737TIP3    H271703   6.248   6.464   6.633  0.3453  0.1924  1.5522
16738TIP3   OH271704   1.444   5.215  16.037 -0.1011 -0.5081  0.1972
16738TIP3    H171705   1.472   5.252  16.121 -0.3252 -0.3336  0.1953
16738TIP3    H271706   1.358   5.253  16.022  0.7717  1.0699 -1.0864
16739TIP3   OH271707   4.793   4.818   3.583 -0.1006 -0.0477  0.0603
16739TIP3    H171708   4.791   4.907   3.548  1.0827 -0.6111 -1.5658
16739TIP3    H271709   4.886   4.796   3.590 -0.3700 -1.2073  0.2652
16740TIP3   OH271710   4.995   1.018   1.579  0.0930  0.4904  0.8205
16740TIP3    H171711   4.968   1.025   1.487  0.4314  0.1608  0.6889
16740TIP3    H271712   4.933   0.956   1.618 -0.7751  1.5189  1.1176
16741TIP3   OH271713   0.658   1.750  16.973  0.3797  0.3448  0.1666
16741TIP3    H171714   0.657   1.688  17.046 -1.9565  0.0050 -0.0563
16741TIP3    H271715   0.737   1.729  16.924  0.0612 -1.9784  0.5297
16742TIP3   OH271716   1.124   6.427   1.951 -0.0495 -0.8474 -0.6142
16742TIP3    H171717   1.087   6.431   1.863 -0.7959 -2.0378 -0.3753
16742TIP3    H271718   1.099   6.511   1.991 -0.6083 -0.7349 -1.1823
16743TIP3   OH271719   3.622   6.663   4.392  0.2447 -1.0386 -0.2490
16743TIP3    H171720   3.530   6.638   4.396  0.2817 -1.4639 -1.4445
16743TIP3    H271721   3.670   6.587   4.426  0.1502 -0.6071  0.8949
16744TIP3   OH271722   4.880   6.520   3.094 -0.5346  0.3327 -0.4920
16744TIP3    H171723   4.934   6.524   3.173 -0.2393 -0.5052 -0.6416
16744TIP3    H271724   4.880   6.610   3.060 -0.0072  0.5294  0.0161
16745TIP3   OH271725   5.845   5.949   3.359  0.0783  0.1094 -0.2052
16745TIP3    H171726   5.751   5.964   3.368 -0.0340  0.7084 -1.9129
16745TIP3    H271727   5.877   5.938   3.449 -1.8008 -1.3176  0.3430
16746TIP3   OH271728   5.244   5.328   5.505 -0.6036 -0.3406 -0.1000
16746TIP3    H171729   5.324   5.375   5.529 -1.4648  1.0358  0.1030
16746TIP3    H271730   5.260   5.300   5.415 -0.3334  0.9314 -0.4673
16747TIP3   OH271731   3.544   5.940   3.334  0.4243 -0.0673 -0.6109
16747TIP3    H171732   3.497   5.934   3.251  0.4626  0.9944 -0.7337
16747TIP3    H271733   3.505   6.015   3.379 -0.5290 -1.4309  0.9616
16748TIP3   OH271734   5.229   1.893  13.317  0.9451 -0.4951 -0.3457
16748TIP3    H171735   5.235   1.808  13.361  0.5499 -0.3159  0.0592
16748TIP3    H271736   5.278   1.881  13.236  1.7245 -0.8163  0.1585
16749TIP3   OH271737   5.430   0.526   3.187 -0.3865 -0.2081  0.0394
16749TIP3    H171738   5.459   0.612   3.215  0.8743 -0.2178 -1.1305
16749TIP3    H271739   5.348   0.511   3.234 -1.5337  2.3487 -1.0040
16750TIP3   OH271740   1.614   3.489  12.723  0.4944  0.2747 -0.3385
16750TIP3    H171741   1.567   3.571  12.707 -0.4319  0.1958  1.6633
16750TIP3    H271742   1.551   3.434  12.771  0.9823 -1.7595 -1.8624
16751TIP3   OH271743   2.986   6.270  10.604  0.1983  0.6899  0.3836
16751TIP3    H171744   3.079   6.279  10.624  0.5043 -1.0398 -0.0254
16751TIP3    H271745   2.976   6.308  10.517  0.8204 -0.2425 -0.1198
16752TIP3   OH271746   3.803   2.619  12.254  0.2155 -0.0242 -0.7163
16752TIP3    H171747   3.804   2.662  12.168  0.1779 -1.0480 -1.2442
16752TIP3    H271748   3.838   2.532  12.237  1.2263  0.1125  0.5094
16753TIP3   OH271749   4.592   1.772   4.696  0.3077  0.0192  0.3119
16753TIP3    H171750   4.564   1.704   4.757 -1.1819 -0.4178 -0.8097
16753TIP3    H271751   4.541   1.756   4.617 -0.0241  2.3978 -0.0208
16754TIP3   OH271752   3.020   5.736   1.744 -0.1245 -0.1077  0.1003
16754TIP3    H171753   2.950   5.735   1.808  0.2989  0.2686  0.5780
16754TIP3    H271754   2.976   5.722   1.660 -0.6438 -0.9305  0.4991
16755TIP3   OH271755   0.664   0.619  13.532  0.2955 -0.4530  0.0646
16755TIP3    H171756   0.638   0.707  13.560 -0.0806 -0.2721 -0.8206
16755TIP3    H271757   0.760   0.619  13.540  0.6423  1.1093 -2.8114
16756TIP3   OH271758   4.788   3.157   1.312 -0.1410 -0.9033  0.2548
16756TIP3    H171759   4.856   3.156   1.245 -0.9499  0.6339 -0.6455
16756TIP3    H271760   4.715   3.109   1.273 -0.6985  0.1950 -0.1054
16757TIP3   OH271761   6.405   1.126  16.551  0.3013 -0.8113  0.4933
16757TIP3    H171762   6.368   1.040  16.529 -1.5427  0.5551 -2.2723
16757TIP3    H271763   6.496   1.121  16.520  0.8271 -2.3342  2.1294
16758TIP3   OH271764   6.464   4.250  17.063 -0.4217 -0.6589  0.0581
16758TIP3    H171765   6.552   4.274  17.033 -0.4679 -0.0313  0.3998
16758TIP3    H271766   6.478   4.171  17.114 -0.0916 -0.7241 -0.1249
16759TIP3   OH271767   3.199   2.988  16.092  0.4454  0.0824  0.2102
16759TIP3    H171768   3.156   2.909  16.062  1.7653 -0.9244  0.8385
16759TIP3    H271769   3.254   3.015  16.019 -0.4094  0.7501 -0.2010
16760TIP3   OH271770   4.256   6.554  16.031  0.1476 -0.1276 -1.1340
16760TIP3    H171771   4.284   6.600  16.110  1.2625 -0.6703 -1.1943
16760TIP3    H271772   4.328   6.495  16.010 -0.2622 -0.2323 -2.3758
16761TIP3   OH271773   2.514   2.205   5.408 -0.0775  0.2171  0.4455
16761TIP3    H171774   2.446   2.139   5.399 -0.0245  0.4497 -2.5938
16761TIP3    H271775   2.467   2.285   5.431 -0.7218  0.1538 -0.6091
16762TIP3   OH271776   6.775   1.762   0.188 -0.0155  0.7062  0.1937
16762TIP3    H171777   6.830   1.810   0.126 -0.6647  1.3358  0.0990
16762TIP3    H271778   6.837   1.723   0.250  0.6791 -0.2538 -1.0504
16763TIP3   OH271779   2.860   1.139  11.292 -0.4625  0.7027 -0.3350
16763TIP3    H171780   2.912   1.186  11.227  0.2504  1.1224  0.5126
16763TIP3    H271781   2.774   1.181  11.290 -0.6560  0.2958 -1.4350
16764TIP3   OH271782   5.372   2.583   4.995  0.3784 -0.3158 -0.0188
16764TIP3    H171783   5.450   2.639   5.003 -0.0347  0.2583  0.0324
16764TIP3    H271784   5.407   2.494   4.990  1.1002  0.0048 -0.9764
16765TIP3   OH271785   1.236   5.851  12.410  0.1262 -0.3794  1.1985
16765TIP3    H171786   1.285   5.775  12.439 -0.1623 -1.2565 -0.4880
16765TIP3    H271787   1.167   5.816  12.354  0.6890  1.1682 -0.5701
16766TIP3   OH271788   0.831   2.179  16.969 -0.1298  0.0735  0.4128
16766TIP3    H171789   0.917   2.142  16.988 -0.5302 -0.5286  1.0864
16766TIP3    H271790   0.832   2.194  16.874 -0.0148 -1.8560  0.0746
16767TIP3   OH271791   2.026   6.654  11.852 -0.1853 -0.2180  0.1992
16767TIP3    H171792   2.070   6.739  11.866 -0.2383 -0.0082 -0.8087
16767TIP3    H271793   2.019   6.616  11.939 -2.0907  1.7535  1.0127
16768TIP3   OH271794   4.080   4.645  12.690 -0.4294  0.0438  0.3669
16768TIP3    H171795   4.061   4.739  12.686  0.4787  0.2325 -2.7304
16768TIP3    H271796   3.995   4.603  12.697 -1.1913  1.1036 -1.5497
16769TIP3   OH271797   0.339   1.591   4.758 -0.3419 -0.6414  0.3847
16769TIP3    H171798   0.264   1.533   4.748 -0.3985 -0.3760 -0.9038
16769TIP3    H271799   0.319   1.643   4.836 -1.6025 -0.4247 -0.0591
16770TIP3   OH271800   0.453   2.080  16.457  0.0400  0.9380 -0.2182
16770TIP3    H171801   0.508   2.055  16.532 -1.0096  1.0450  0.6158
16770TIP3    H271802   0.451   2.175  16.458 -1.6510  0.9393  0.9322
16771TIP3   OH271803   2.046   1.433   0.423 -0.0770 -0.0914 -0.0091
16771TIP3    H171804   2.022   1.522   0.395  0.9471  0.4060  0.6239
16771TIP3    H271805   1.996   1.419   0.503 -0.4706 -0.2105 -0.2725
16772TIP3   OH271806   5.630   5.926  11.055 -0.3065  0.2521  0.3657
16772TIP3    H171807   5.667   6.006  11.092 -1.1283  0.5657  0.5416
16772TIP3    H271808   5.535   5.936  11.067 -0.3577 -1.3196  1.5540
16773TIP3   OH271809   2.732   4.611   3.957 -0.5816 -0.1458  0.5697
16773TIP3    H171810   2.713   4.705   3.961  0.4088  0.0364  1.6940
16773TIP3    H271811   2.730   4.582   4.048 -0.5348 -1.1449  0.2622
16774TIP3   OH271812   3.168   3.522  12.900 -0.2958 -0.3906  0.3068
16774TIP3    H171813   3.216   3.595  12.938  1.1077 -0.2958 -1.5280
16774TIP3    H271814   3.224   3.446  12.917 -0.1698 -0.5073 -0.5659
16775TIP3   OH271815   6.690   4.195  16.856  0.1489  0.6308 -0.0371
16775TIP3    H171816   6.740   4.147  16.922 -0.5509  0.4284  0.3609
16775TIP3    H271817   6.661   4.127  16.795 -1.6441  0.3762  1.0419
16776TIP3   OH271818   1.265   3.230   0.639 -0.0022  0.5244  0.2360
16776TIP3    H171819   1.296   3.271   0.719 -1.1147 -0.0631  0.9881
16776TIP3    H271820   1.242   3.304   0.582  0.2364  0.9428  0.6757
16777TIP3   OH271821   1.939   2.953   0.155  0.7433  0.4438 -0.3131
16777TIP3    H171822   1.948   3.043   0.188  1.0393 -0.2516  1.6153
16777TIP3    H271823   1.892   2.963   0.072  0.4504  2.3424  0.0261
16778TIP3   OH271824   4.545   5.404   3.213  0.3827 -0.1266  0.2777
16778TIP3    H171825   4.557   5.343   3.141 -0.7447 -0.1062  0.0571
16778TIP3    H271826   4.567   5.490   3.176  0.4641 -0.2019  0.1529
16779TIP3   OH271827   2.204   1.948   0.681  0.0510  0.1588  0.5146
16779TIP3    H171828   2.276   1.921   0.736  2.2571  1.2408 -1.6561
16779TIP3    H271829   2.194   2.042   0.698  0.0262  0.2764 -0.1287
16780TIP3   OH271830   5.473   5.750   0.579 -0.2438 -0.0330 -0.6977
16780TIP3    H171831   5.467   5.834   0.625 -1.9722 -0.1536 -0.6250
16780TIP3    H271832   5.554   5.755   0.529  0.9809  0.6546  1.2748
16781TIP3   OH271833   2.365   1.205  11.198  0.0986  0.6873 -0.1531
16781TIP3    H171834   2.314   1.124  11.195  1.8949 -0.5874  1.0750
16781TIP3    H271835   2.410   1.209  11.114  0.3693  0.1092 -0.0447
16782TIP3   OH271836   2.703   4.243   3.650  0.4101 -0.1730  0.2541
16782TIP3    H171837   2.665   4.307   3.590 -0.7193  0.5593  1.6984
16782TIP3    H271838   2.659   4.160   3.627 -2.0320  0.6096  1.7459
16783TIP3   OH271839   0.800   5.544   2.448 -0.3513  0.2956  0.3953
16783TIP3    H171840   0.883   5.590   2.460  0.0674 -0.6574  1.2989
16783TIP3    H271841   0.733   5.612   2.456  0.3008  0.9421  0.4373
16784TIP3   OH271842   2.619   1.807   5.491  0.4490  0.3052 -0.2714
16784TIP3    H171843   2.591   1.843   5.407 -0.6884  3.4120  1.2553
16784TIP3    H271844   2.714   1.799   5.484  0.7616  3.3279 -0.9926
16785TIP3   OH271845   4.773   0.644  11.971 -0.0462 -0.3760  0.0907
16785TIP3    H171846   4.734   0.607  12.051 -1.3396 -0.8950 -0.7433
16785TIP3    H271847   4.709   0.709  11.942 -0.5775 -1.5782 -1.5729
16786TIP3   OH271848   5.283   2.748  12.223 -0.4006 -0.0666  0.0914
16786TIP3    H171849   5.193   2.718  12.209 -0.7883  1.1978 -0.2137
16786TIP3    H271850   5.335   2.667  12.224 -0.7959 -0.6915 -4.8619
16787TIP3   OH271851   2.346   6.482   4.277 -0.2869 -0.1119 -0.1812
16787TIP3    H171852   2.424   6.524   4.312  0.6263  0.2014 -2.4152
16787TIP3    H271853   2.330   6.408   4.335  0.8499  0.6178  1.1113
16788TIP3   OH271854   3.775   4.454   1.249  0.1590 -0.2191  0.5796
16788TIP3    H171855   3.731   4.451   1.164 -0.6694 -0.1660  0.9956
16788TIP3    H271856   3.862   4.418   1.232 -0.5096 -1.6516  0.0199
16789TIP3   OH271857   4.550   1.198   1.274 -0.4140 -0.7968 -0.7223
16789TIP3    H171858   4.571   1.171   1.363 -0.5412 -2.4250 -1.1570
16789TIP3    H271859   4.630   1.240   1.242 -0.8137  1.0912  0.5943
16790TIP3   OH271860   2.256   1.230   1.435  0.0990  0.1512 -0.1826
16790TIP3    H171861   2.178   1.224   1.379  0.5467  0.2942 -0.8287
16790TIP3    H271862   2.221   1.236   1.524 -0.6116 -1.3678 -0.3171
16791TIP3   OH271863   0.199   0.856   5.263  0.0422 -0.0280  0.4684
16791TIP3    H171864   0.188   0.789   5.195  1.0321 -1.9523  2.1016
16791TIP3    H271865   0.119   0.850   5.316 -0.4691  1.0645 -0.1389
16792TIP3   OH271866   0.232   0.006  16.562 -0.1388 -0.0143 -0.7858
16792TIP3    H171867   0.273  -0.012  16.477  2.0621  0.3319  0.1507
16792TIP3    H271868   0.194   0.093  16.552 -2.0512 -0.9049 -2.1207
16793TIP3   OH271869   1.062   6.804  14.154 -0.1371  0.3260 -0.1477
16793TIP3    H171870   1.082   6.722  14.198  0.5129  0.4143 -0.2696
16793TIP3    H271871   1.016   6.779  14.074  0.8657  0.0252 -0.6397
16794TIP3   OH271872   5.662   5.180   4.808  0.5701 -0.1207 -1.2147
16794TIP3    H171873   5.620   5.215   4.887  0.1641 -3.7688  0.3425
16794TIP3    H271874   5.598   5.197   4.739  0.4977  2.2607 -0.6568
16795TIP3   OH271875   4.079   6.098  13.250  0.4560  1.0151  0.1998
16795TIP3    H171876   4.127   6.056  13.321  0.9656 -1.3002 -1.3769
16795TIP3    H271877   4.046   6.025  13.198 -0.4399  2.6113 -1.5945
16796TIP3   OH271878   3.939   4.637  16.552  0.5087 -0.9591  1.0679
16796TIP3    H171879   4.018   4.659  16.602 -0.2939 -0.2528  2.0581
16796TIP3    H271880   3.890   4.719  16.547  0.2404 -1.1723 -0.3175
16797TIP3   OH271881   5.218   1.192  14.606  0.6188  0.1462  0.0739
16797TIP3    H171882   5.144   1.196  14.667 -1.5051 -3.6282 -1.9026
16797TIP3    H271883   5.226   1.281  14.572 -1.0657  1.3294  2.4728
16798TIP3   OH271884   1.601   2.900  12.978 -0.1806  0.2421  0.3142
16798TIP3    H171885   1.545   2.845  13.032 -2.2354  3.1429  1.3905
16798TIP3    H271886   1.540   2.950  12.923  1.7007 -0.3490 -2.5157
16799TIP3   OH271887   3.658   3.767   1.285  0.1061 -0.4945 -0.3528
16799TIP3    H171888   3.578   3.805   1.320  0.3070 -1.5857  1.4800
16799TIP3    H271889   3.721   3.775   1.357  0.9443 -1.7170 -0.9148
16800TIP3   OH271890   5.867   2.256  16.603  0.0197 -0.2478 -0.1453
16800TIP3    H171891   5.944   2.304  16.573  0.3637 -1.3094 -0.9953
16800TIP3    H271892   5.900   2.170  16.627 -0.7396 -0.3738  0.4916
16801TIP3   OH271893   0.984   5.825   1.005 -0.4069 -0.7749  0.8162
16801TIP3    H171894   1.076   5.807   0.985  0.0083 -0.2412  2.1143
16801TIP3    H271895   0.935   5.783   0.935  0.8512 -0.6589 -0.1619
16802TIP3   OH271896   5.333   5.920   3.198  0.5068 -0.3103 -0.6568
16802TIP3    H171897   5.274   5.897   3.269  1.0443 -0.3736 -0.2239
16802TIP3    H271898   5.280   5.974   3.139 -0.0244 -0.5028 -0.3598
16803TIP3   OH271899   5.760   5.015  13.003  0.1741 -0.5569  0.4292
16803TIP3    H171900   5.736   4.932  13.045 -0.0062 -0.1192  1.2079
16803TIP3    H271901   5.702   5.021  12.927  0.7233 -1.5129 -0.0903
16804TIP3   OH271902   6.542   3.397   1.921  0.7210 -0.2172  0.0491
16804TIP3    H171903   6.583   3.334   1.981  1.2498 -0.3340 -0.4274
16804TIP3    H271904   6.530   3.348   1.839  2.6317  0.7314 -0.8597
16805TIP3   OH271905   2.132   6.760  16.716  0.6136 -0.2704  0.2382
16805TIP3    H171906   2.192   6.703  16.668  0.1621 -0.1495 -0.4806
16805TIP3    H271907   2.171   6.847  16.712  0.1975 -0.1144 -0.5771
16806TIP3   OH271908   1.785   3.667   2.022 -0.6661  0.1227 -0.5157
16806TIP3    H171909   1.856   3.614   2.059 -2.0489 -0.8180  0.9229
16806TIP3    H271910   1.705   3.625   2.054 -1.8683  3.3540  1.0873
16807TIP3   OH271911   4.638   2.879   4.219 -0.4161 -0.2622  0.3316
16807TIP3    H171912   4.659   2.962   4.262  0.4245  0.0528 -0.6405
16807TIP3    H271913   4.542   2.874   4.221 -0.4914  0.8694  0.1624
16808TIP3   OH271914   3.206   1.134   5.765 -0.7645  0.2941  0.0753
16808TIP3    H171915   3.218   1.225   5.793  0.1164 -0.1621  1.2599
16808TIP3    H271916   3.294   1.105   5.739 -0.4043 -1.0805  2.5116
16809TIP3   OH271917   5.395   1.803   2.635  0.2547 -0.5290  0.4290
16809TIP3    H171918   5.321   1.798   2.695 -0.0915 -2.1246 -0.0615
16809TIP3    H271919   5.365   1.860   2.564  0.3283  0.6085  1.2931
16810TIP3   OH271920   3.184   3.511  15.249 -0.8956  0.3622  0.1428
16810TIP3    H171921   3.219   3.443  15.192 -1.2138 -0.4978  0.9456
16810TIP3    H271922   3.212   3.593  15.209 -0.5328 -0.2397 -0.8609
16811TIP3   OH271923   0.385   0.483   3.454 -0.4098 -0.1334 -0.5375
16811TIP3    H171924   0.425   0.452   3.372  1.2600  2.0758 -0.6573
16811TIP3    H271925   0.452   0.466   3.521 -0.2666  1.3035 -0.2863
16812TIP3   OH271926   6.524   3.621   1.339  0.8252  0.0654 -0.2485
16812TIP3    H171927   6.616   3.613   1.365  0.7206  0.1951  0.1656
16812TIP3    H271928   6.524   3.690   1.273  1.0511 -0.0718 -0.3959
16813TIP3   OH271929   3.493   0.290  15.280 -0.1146  0.0454  0.0348
16813TIP3    H171930   3.489   0.314  15.187 -0.7647 -3.3410 -0.9252
16813TIP3    H271931   3.403   0.299  15.311  0.2987  2.3665  0.7839
16814TIP3   OH271932   1.966   5.714  13.896  0.3720  0.0082 -0.7585
16814TIP3    H171933   2.043   5.759  13.930 -0.2951  0.5531  0.0923
16814TIP3    H271934   1.951   5.642  13.957 -0.8009  0.9598  0.1365
16815TIP3   OH271935   6.370   3.951   2.628 -0.0310  0.1768  0.0258
16815TIP3    H171936   6.277   3.952   2.605  0.2110 -2.1209 -1.4052
16815TIP3    H271937   6.410   4.011   2.565 -0.4035  0.2271 -0.1717
16816TIP3   OH271938   5.673   1.109   4.105  0.2145  0.0936  0.2192
16816TIP3    H171939   5.732   1.095   4.179  2.5430 -0.3855 -1.5984
16816TIP3    H271940   5.710   1.183   4.057 -1.5476  0.7561 -0.1980
16817TIP3   OH271941   2.567   0.972  10.816  0.1770 -0.3045  0.3123
16817TIP3    H171942   2.485   0.988  10.770  1.4174 -0.0334 -1.9529
16817TIP3    H271943   2.606   0.898  10.770  0.5810 -1.3831  2.2716
16818TIP3   OH271944   6.109   1.130  13.462  0.0444  0.2594 -0.0424
16818TIP3    H171945   6.186   1.168  13.419  0.9323  0.7399  1.8813
16818TIP3    H271946   6.099   1.179  13.543 -0.9252 -1.2999  0.8410
16819TIP3   OH271947   4.399   0.757   5.546  0.0036 -0.6113 -0.0230
16819TIP3    H171948   4.422   0.833   5.601 -0.0096 -0.8342  0.2907
16819TIP3    H271949   4.313   0.730   5.577 -0.5064 -0.0480 -0.9127
16820TIP3   OH271950   2.805   3.621  16.615 -0.3312  0.1149 -0.0439
16820TIP3    H171951   2.775   3.535  16.585 -0.8254  0.5395 -0.7901
16820TIP3    H271952   2.879   3.602  16.673  0.0193 -0.7740 -0.7638
16821TIP3   OH271953   1.129   1.500  11.138  0.5006  0.5469  0.1159
16821TIP3    H171954   1.064   1.563  11.105  0.1972  0.6434  0.8712
16821TIP3    H271955   1.083   1.453  11.208  0.4003 -1.1896 -1.0415
16822TIP3   OH271956   6.007   5.520  16.583  0.2205  0.8230  0.8471
16822TIP3    H171957   6.100   5.500  16.587 -0.1553 -0.9669  2.1248
16822TIP3    H271958   5.971   5.482  16.663 -1.4633  2.4057  0.9225
16823TIP3   OH271959   4.873   2.825   5.820 -0.0154  0.3145  0.4457
16823TIP3    H171960   4.868   2.789   5.731  0.5518 -0.8723  0.8646
16823TIP3    H271961   4.899   2.916   5.808  0.2862  0.1027 -0.6001
16824TIP3   OH271962   6.448   4.185   4.820 -0.0921 -0.0306  0.4159
16824TIP3    H171963   6.403   4.225   4.745 -0.7224 -0.7555  0.3982
16824TIP3    H271964   6.538   4.216   4.813  0.0867 -0.8043 -1.1631
16825TIP3   OH271965   4.499   2.590   3.410 -0.0719 -0.5500 -0.3628
16825TIP3    H171966   4.551   2.670   3.410 -1.2227  0.2391  0.5930
16825TIP3    H271967   4.450   2.593   3.329 -2.0488  1.0986  0.7882
16826TIP3   OH271968   0.528   3.611   5.670 -0.1796 -0.4109  0.1200
16826TIP3    H171969   0.613   3.645   5.644 -0.4578  1.0574  1.0139
16826TIP3    H271970   0.521   3.629   5.764  0.0215 -3.8789  0.9445
16827TIP3   OH271971   1.600   0.932   4.334  0.0322  0.4664  0.1470
16827TIP3    H171972   1.584   1.018   4.373 -0.6846  0.0904  0.6903
16827TIP3    H271973   1.691   0.936   4.305  0.5275  0.8373  1.6591
16828TIP3   OH271974   2.923   6.246  16.738  0.3058  0.1918 -0.2429
16828TIP3    H171975   2.922   6.187  16.664  0.0194 -1.3130  0.9135
16828TIP3    H271976   2.881   6.326  16.705 -0.4063 -0.6636 -1.5106
16829TIP3   OH271977   2.265   2.527   1.101  0.6935  0.0421  0.8025
16829TIP3    H171978   2.203   2.487   1.039  2.1440 -1.7892  0.4259
16829TIP3    H271979   2.258   2.621   1.085 -1.4347 -0.1473  0.2838
16830TIP3   OH271980   0.909   1.801   2.590 -0.1180  0.8212  0.2401
16830TIP3    H171981   0.868   1.816   2.505  0.0043  0.3524  0.0957
16830TIP3    H271982   0.863   1.726   2.627  0.6610  0.2145  0.0276
16831TIP3   OH271983   4.004   1.471  14.861 -0.0517  0.0149  0.0958
16831TIP3    H171984   4.026   1.538  14.926  0.3559 -0.3925  0.3855
16831TIP3    H271985   4.069   1.484  14.791 -1.1988  1.2064 -0.7981
16832TIP3   OH271986   1.950   2.333  15.135 -0.1563 -0.2373  0.4683
16832TIP3    H171987   1.921   2.264  15.076  1.0195  0.1272 -0.5686
16832TIP3    H271988   1.877   2.344  15.196 -0.7835 -1.6612  0.0192
16833TIP3   OH271989   1.155   6.501  15.299  0.8466  0.0919 -0.3079
16833TIP3    H171990   1.190   6.474  15.384  0.1425  0.6741  0.1824
16833TIP3    H271991   1.067   6.464  15.297 -0.4712  2.8671  0.7332
16834TIP3   OH271992   2.448   3.672   6.518  0.2367 -0.4119 -0.2754
16834TIP3    H171993   2.534   3.639   6.544  0.3895  0.8379  0.8972
16834TIP3    H271994   2.427   3.739   6.583 -0.9957  0.2923 -1.3504
16835TIP3   OH271995   3.439   4.226   4.354  0.7304  0.1087 -0.4278
16835TIP3    H171996   3.469   4.253   4.267 -0.5078  0.3099 -0.8030
16835TIP3    H271997   3.506   4.260   4.413  1.0551  0.8685 -1.2077
16836TIP3   OH271998   3.611   0.085   6.099  0.7771 -0.4666  0.7762
16836TIP3    H171999   3.627   0.022   6.170  0.6830 -0.6922  0.6001
16836TIP3    H272000   3.624   0.034   6.019  2.5466  0.1906  0.5975
16837TIP3   OH272001   1.343   0.306  12.448  0.1861 -0.4023  0.4677
16837TIP3    H172002   1.341   0.297  12.353  0.0264  0.8350  0.3354
16837TIP3    H272003   1.363   0.399  12.463  1.2179 -0.7821  1.6392
16838TIP3   OH272004   6.194   4.404   1.606  0.1711  0.5061  0.0810
16838TIP3    H172005   6.203   4.405   1.701 -0.3528  2.9178  0.1463
16838TIP3    H272006   6.102   4.382   1.590  0.2362  0.2009  0.1040
16839TIP3   OH272007   3.651   6.835  16.033 -0.3571 -0.3764 -0.1486
16839TIP3    H172008   3.595   6.772  15.988  0.2496 -2.0991  1.3657
16839TIP3    H272009   3.602   6.858  16.112 -0.0813  0.1887 -0.1388
16840TIP3   OH272010   4.346   0.430   5.077 -0.1787  0.1190  0.4417
16840TIP3    H172011   4.258   0.440   5.039  0.1679  1.8248 -0.0060
16840TIP3    H272012   4.391   0.511   5.053  2.0679 -1.3836 -0.7120
16841TIP3   OH272013   1.154   1.635  11.571  0.3070 -0.8539 -0.7347
16841TIP3    H172014   1.162   1.588  11.654  0.8630 -0.1454 -0.3821
16841TIP3    H272015   1.221   1.596  11.514  0.1944 -1.0650 -0.7233
16842TIP3   OH272016   4.660   1.655  16.857 -0.0694  0.0879  0.3297
16842TIP3    H172017   4.688   1.741  16.826 -0.0388 -0.2411 -0.5863
16842TIP3    H272018   4.567   1.651  16.833  0.1623 -0.5030 -0.5075
16843TIP3   OH272019   3.211   5.957  12.896 -0.3325  0.1920  1.1582
16843TIP3    H172020   3.280   5.936  12.833  1.2026  3.1508  1.6637
16843TIP3    H272021   3.258   5.967  12.979 -1.7091  0.2028  1.9655
16844TIP3   OH272022   2.894   5.069  12.788 -0.0243 -0.0969  0.6916
16844TIP3    H172023   2.981   5.044  12.821  0.5019  2.3931  1.3608
16844TIP3    H272024   2.872   5.149  12.835 -1.6005  0.7074 -1.2491
16845TIP3   OH272025   2.443   6.064   5.589  0.2674  0.0272  0.0067
16845TIP3    H172026   2.386   6.001   5.633 -0.8267  1.1998  0.3183
16845TIP3    H272027   2.505   6.092   5.656  1.0519 -1.0336 -0.2546
16846TIP3   OH272028   4.936   2.161   0.860  0.0898 -1.2188  0.0770
16846TIP3    H172029   4.854   2.153   0.811 -0.3895 -0.9615  0.8170
16846TIP3    H272030   5.004   2.134   0.798 -0.3759  0.1217 -1.0858
16847TIP3   OH272031   5.107   2.590  16.839 -0.0888 -0.7973  0.5751
16847TIP3    H172032   5.135   2.673  16.799 -2.3677 -0.1608  0.1413
16847TIP3    H272033   5.128   2.600  16.931  1.9260 -0.7901  0.1640
16848TIP3   OH272034   3.121   0.760  11.149 -1.1203  0.1457  0.2659
16848TIP3    H172035   3.197   0.740  11.094 -1.1363  1.6193 -0.3378
16848TIP3    H272036   3.103   0.678  11.195  1.1942 -0.0883  0.8863
16849TIP3   OH272037   5.118   6.005  15.240 -0.1396 -0.1559  0.2827
16849TIP3    H172038   5.158   5.930  15.285 -0.2101 -0.7979 -0.6943
16849TIP3    H272039   5.181   6.028  15.172 -0.2712  0.4723  0.3672
16850TIP3   OH272040   1.756   0.891  16.568 -0.3559 -0.1792 -0.2025
16850TIP3    H172041   1.815   0.870  16.496 -0.2364 -0.0841 -0.1326
16850TIP3    H272042   1.668   0.881  16.530 -0.3075 -0.8821 -0.1484
16851TIP3   OH272043   6.452   3.566   3.925 -0.0087  0.1219  0.4390
16851TIP3    H172044   6.502   3.562   4.006 -0.6689 -1.2804  0.8236
16851TIP3    H272045   6.388   3.635   3.940 -0.2438 -0.2457  1.2090
16852TIP3   OH272046   0.648   4.472   6.272 -0.4583 -0.9030  0.0306
16852TIP3    H172047   0.580   4.438   6.330 -0.2077 -0.7766  0.4055
16852TIP3    H272048   0.603   4.537   6.218 -0.3047  0.4409  1.4311
16853TIP3   OH272049   5.207   4.580  14.553  0.0442  0.0302  0.0554
16853TIP3    H172050   5.140   4.640  14.586 -1.2344 -0.2238 -1.8983
16853TIP3    H272051   5.158   4.514  14.504  1.7051 -0.3482 -1.1708
16854TIP3   OH272052   4.145   0.797  13.534  0.1192 -0.6952 -0.0853
16854TIP3    H172053   4.090   0.805  13.456  0.8908 -1.8890 -0.8043
16854TIP3    H272054   4.083   0.784  13.606 -0.6141  0.5771 -0.4556
16855TIP3   OH272055   1.522   5.715   0.072  0.1995 -0.6757  0.1638
16855TIP3    H172056   1.509   5.620   0.079  0.4403 -0.6655  0.8445
16855TIP3    H272057   1.582   5.726  -0.002  1.4594 -1.1810  1.0728
16856TIP3   OH272058   4.183   5.822   1.408  0.3730 -0.3111 -1.1439
16856TIP3    H172059   4.174   5.899   1.464  1.3188  0.2980 -1.7974
16856TIP3    H272060   4.093   5.795   1.389  0.0310  0.7925 -1.1164
16857TIP3   OH272061   1.721   4.674  15.034  0.7750  0.2675 -0.4289
16857TIP3    H172062   1.778   4.721  15.094 -0.3867  0.8389  0.2681
16857TIP3    H272063   1.740   4.582  15.048  3.1718  0.4450 -1.8853
16858TIP3   OH272064   4.051   6.271  16.315  0.1048  0.0061  0.6450
16858TIP3    H172065   3.993   6.332  16.269  0.4604 -1.3044 -1.7261
16858TIP3    H272066   4.014   6.263  16.402 -0.3748  2.9951  0.8230
16859TIP3   OH272067   1.018   4.500  13.619 -0.0021 -0.0438  0.0817
16859TIP3    H172068   1.096   4.544  13.652  0.4887  0.0414 -1.1278
16859TIP3    H272069   1.048   4.452  13.542 -0.9253 -0.9123  0.2397
16860TIP3   OH272070   4.732   4.039   0.852  0.1597 -0.2190 -0.9871
16860TIP3    H172071   4.786   4.102   0.803 -0.3987 -0.9005 -2.5469
16860TIP3    H272072   4.643   4.052   0.818 -0.1684 -0.9945 -0.4497
16861TIP3   OH272073   1.828   3.759   3.494 -0.7129  0.2226 -0.3301
16861TIP3    H172074   1.766   3.691   3.470 -0.4172 -0.5434  0.9416
16861TIP3    H272075   1.844   3.744   3.588  0.6772  0.9538 -0.4229
16862TIP3   OH272076   5.187   3.354   1.350 -0.3994 -0.1324  0.3665
16862TIP3    H172077   5.280   3.349   1.329 -0.8347 -0.8839 -1.5726
16862TIP3    H272078   5.147   3.399   1.276 -1.8818 -1.9035  0.0011
16863TIP3   OH272079   5.426   6.314  14.439  0.0598 -0.0666  0.0587
16863TIP3    H172080   5.451   6.393  14.391  0.6252 -0.4119 -0.2271
16863TIP3    H272081   5.330   6.315  14.439  0.0496  0.9248  0.5722
16864TIP3   OH272082   3.126   1.658   6.626  0.3485  0.3699  0.1951
16864TIP3    H172083   3.130   1.601   6.549 -0.6408  0.5000  0.0253
16864TIP3    H272084   3.064   1.614   6.684  1.8238 -0.2370  1.3677
16865TIP3   OH272085   0.859   1.577   1.566  0.0271  0.4726  0.3474
16865TIP3    H172086   0.794   1.507   1.571 -0.7232  1.2213  1.4884
16865TIP3    H272087   0.936   1.535   1.528 -0.5850 -0.8283  0.4718
16866TIP3   OH272088   3.427   1.266   2.976  0.0642  0.0114 -0.0654
16866TIP3    H172089   3.450   1.313   2.896  0.3002  1.2272  0.6943
16866TIP3    H272090   3.511   1.238   3.012 -0.0127 -0.1518 -0.0142
16867TIP3   OH272091   6.064   0.575  16.524  0.3276 -0.5020 -0.4874
16867TIP3    H172092   6.058   0.642  16.592  0.0124 -1.2040  0.2114
16867TIP3    H272093   6.015   0.610  16.450  1.5859  0.7423 -0.7626
16868TIP3   OH272094   0.099   5.853  13.043 -0.1575  0.2185  0.0476
16868TIP3    H172095   0.011   5.891  13.037 -0.7719 -1.1961 -0.4390
16868TIP3    H272096   0.123   5.836  12.952  0.3000 -0.1078  0.2307
16869TIP3   OH272097   1.309   3.261  12.112  0.2335 -0.2948 -0.0183
16869TIP3    H172098   1.355   3.345  12.118  0.3951 -0.3908  0.0981
16869TIP3    H272099   1.364   3.207  12.056 -1.3737  0.6684 -2.7063
16870TIP3   OH272100   4.750   3.471   0.200  0.0786 -0.6426 -0.4399
16870TIP3    H172101   4.747   3.560   0.164 -3.0549  0.7548  2.6893
16870TIP3    H272102   4.816   3.475   0.269 -0.1611 -0.6942 -0.2067
16871TIP3   OH272103   2.931   6.047  11.514  0.9440  0.3919  0.4314
16871TIP3    H172104   2.892   5.981  11.457 -0.0971  0.5241  0.9548
16871TIP3    H272105   2.987   6.099  11.457 -0.0325  0.4894 -0.4617
16872TIP3   OH272106   0.337   6.791  14.328  0.0313  0.9496  0.2775
16872TIP3    H172107   0.385   6.718  14.290 -0.7730  0.4193  0.2477
16872TIP3    H272108   0.294   6.755  14.405  1.8466  2.0768  1.8916
16873TIP3   OH272109   1.573   0.684  16.898 -0.1438  0.2162 -0.1963
16873TIP3    H172110   1.642   0.631  16.856  0.0810  1.1924 -1.1070
16873TIP3    H272111   1.552   0.636  16.978  2.3815  0.4494  0.6828
16874TIP3   OH272112   6.722   4.025   0.858  0.0660  0.0514 -0.1898
16874TIP3    H172113   6.678   4.097   0.902  1.2785 -0.0297  1.2358
16874TIP3    H272114   6.659   3.953   0.860 -0.4712  0.5252  0.0114
16875TIP3   OH272115   3.001   4.936   3.805  0.5035 -0.3118  0.0375
16875TIP3    H172116   2.993   5.017   3.755 -1.5461 -0.2443  0.3955
16875TIP3    H272117   2.964   4.868   3.748 -2.0459 -0.2057  1.3908
16876TIP3   OH272118   3.937   1.984   5.136 -0.6345  0.5746 -0.3252
16876TIP3    H172119   3.934   2.044   5.061  1.3115  0.3858 -0.6265
16876TIP3    H272120   4.029   1.986   5.163 -1.2735  0.6335  2.0762
16877TIP3   OH272121   1.446   2.496  11.343 -0.0040 -0.3363 -0.0458
16877TIP3    H172122   1.507   2.548  11.396 -0.1215 -1.7016  1.5206
16877TIP3    H272123   1.484   2.408  11.342  0.7116 -0.1207 -3.4642
16878TIP3   OH272124   5.723   5.825   0.452 -0.2598 -0.2889 -0.3635
16878TIP3    H172125   5.807   5.845   0.494 -0.9944 -2.4844  2.5089
16878TIP3    H272126   5.746   5.768   0.379  0.8252 -0.1468 -0.1612
16879TIP3   OH272127   3.183   5.705   1.405  0.8414 -0.3020  0.4947
16879TIP3    H172128   3.214   5.680   1.317 -0.1833  0.9902 -0.2734
16879TIP3    H272129   3.087   5.694   1.400  0.8023 -0.5464  1.5799
16880TIP3   OH272130   0.943   5.311  14.176 -0.1275  0.0803  0.5929
16880TIP3    H172131   0.990   5.306  14.093 -0.5849  0.9614  0.2681
16880TIP3    H272132   0.968   5.231  14.223  0.3071 -0.3168 -0.2976
16881TIP3   OH272133   0.061   0.449   2.001 -0.0222 -0.0244  0.1302
16881TIP3    H172134   0.022   0.509   2.065 -1.9540 -0.6905 -0.3414
16881TIP3    H272135   0.050   0.362   2.041 -2.1138 -0.5478 -1.4316
16882TIP3   OH272136   0.398   6.796   4.096 -0.1722 -0.2245  0.2147
16882TIP3    H172137   0.412   6.732   4.027  0.8892  0.3124 -0.0851
16882TIP3    H272138   0.333   6.857   4.061 -1.8367 -1.5664  0.8202
16883TIP3   OH272139   6.721   0.058  15.278 -0.2168 -0.0971 -0.0295
16883TIP3    H172140   6.742   0.117  15.350 -0.2686 -0.2076  0.0759
16883TIP3    H272141   6.745   0.107  15.199 -0.2372  0.0551  0.0586
16884TIP3   OH272142   0.451   4.191   1.281  0.3255 -0.1794 -0.0976
16884TIP3    H172143   0.503   4.242   1.344  0.3168 -1.5643  1.0952
16884TIP3    H272144   0.378   4.156   1.333  0.0766 -1.0095 -0.9741
16885TIP3   OH272145   0.333   3.466  13.389 -0.1893 -0.0111 -0.1332
16885TIP3    H172146   0.428   3.451  13.391 -0.1892 -0.0132 -0.1586
16885TIP3    H272147   0.321   3.545  13.442 -0.1639  0.0393 -0.2018
16886TIP3   OH272148   0.558   5.991   2.518 -0.6784 -0.4843  0.2112
16886TIP3    H172149   0.464   5.997   2.504 -0.6060 -1.9745 -1.1958
16886TIP3    H272150   0.595   6.056   2.458 -0.7743 -0.5967  0.0275
16887TIP3   OH272151   1.578   2.949  14.250 -0.2827  0.3501  0.2529
16887TIP3    H172152   1.628   2.997  14.184  1.0576  0.6165  1.4220
16887TIP3    H272153   1.644   2.901  14.300 -1.1068  1.1012  2.1611
16888TIP3   OH272154   0.338   5.032  16.517 -0.4625  0.2149 -0.0644
16888TIP3    H172155   0.285   4.995  16.447  0.3957 -0.1118 -0.5507
16888TIP3    H272156   0.353   5.123  16.491  0.2124 -0.0224 -0.5272
16889TIP3   OH272157   1.001   5.199  16.421 -0.4066 -0.3715  0.5171
16889TIP3    H172158   1.039   5.222  16.505  0.3689 -1.3880  0.4703
16889TIP3    H272159   1.058   5.129  16.387 -1.2102 -0.5910 -0.4427
16890TIP3   OH272160   1.529   0.647  11.618 -0.0864 -0.2670 -1.2843
16890TIP3    H172161   1.461   0.591  11.657  1.2757 -1.9531 -1.2062
16890TIP3    H272162   1.499   0.736  11.635 -1.3017 -0.9532  0.4775
16891TIP3   OH272163   4.358   0.916  11.258  0.2066 -0.0397  0.3080
16891TIP3    H172164   4.270   0.905  11.221  1.1744  0.3697 -2.3010
16891TIP3    H272165   4.368   1.010  11.270  1.0992  0.1746 -1.7253
16892TIP3   OH272166   2.431   2.859   0.154 -0.1276  0.0789 -0.1923
16892TIP3    H172167   2.355   2.916   0.147  0.3295  1.1585  2.5057
16892TIP3    H272168   2.494   2.895   0.092 -0.7569  0.9938 -0.3196
16893TIP3   OH272169   2.609   5.268   1.870  0.7397 -0.0731  0.0702
16893TIP3    H172170   2.605   5.341   1.808  2.4005 -0.6741 -0.7989
16893TIP3    H272171   2.616   5.310   1.956  1.0722  0.7845 -0.3637
16894TIP3   OH272172   5.885   3.525  12.935 -0.1781  0.0358  0.7867
16894TIP3    H172173   5.803   3.476  12.937  0.1969 -0.6055  0.9475
16894TIP3    H272174   5.941   3.476  12.874 -0.8242  1.9869 -1.5370
16895TIP3   OH272175   1.061   4.853  13.819 -0.1041  0.5586 -0.1567
16895TIP3    H172176   1.118   4.802  13.761  0.4759  1.4218 -0.3722
16895TIP3    H272177   1.000   4.789  13.856  0.6357 -0.2886 -0.3721
16896TIP3   OH272178   5.750   5.368  14.710 -0.0670 -0.0601  0.7987
16896TIP3    H172179   5.743   5.358  14.805 -1.3801  0.6116  0.7966
16896TIP3    H272180   5.672   5.417  14.685  0.4744  0.1551 -0.5815
16897TIP3   OH272181   1.424   4.978   2.427  0.1339 -0.4607  0.5805
16897TIP3    H172182   1.394   4.887   2.437  1.7315 -1.4569 -2.4364
16897TIP3    H272183   1.520   4.971   2.420  0.6373  1.8658  3.2413
16898TIP3   OH272184   3.051   6.151  11.294 -0.1420  0.2740  0.0362
16898TIP3    H172185   2.973   6.175  11.243  0.2207  2.0637  0.2746
16898TIP3    H272186   3.114   6.121  11.228 -1.5363 -2.9893 -0.0459
16899TIP3   OH272187   5.851   3.140  16.514 -0.1896 -0.1437 -0.2957
16899TIP3    H172188   5.799   3.130  16.434 -0.6740  0.7219 -0.1042
16899TIP3    H272189   5.795   3.192  16.572  0.0089 -1.0477  0.7415
16900TIP3   OH272190   0.799   1.742   1.323  0.3179 -0.3325 -0.6954
16900TIP3    H172191   0.837   1.682   1.387 -0.9010 -0.0362  0.3401
16900TIP3    H272192   0.717   1.770   1.362 -0.3686  0.0217 -2.3117
16901TIP3   OH272193   3.813   1.701  15.866  0.0232 -0.1332 -0.0863
16901TIP3    H172194   3.722   1.676  15.853 -0.3378  1.0192  0.1478
16901TIP3    H272195   3.831   1.763  15.795  0.9781 -1.1802 -0.8101
16902TIP3   OH272196   4.960   4.612   2.959  0.1559  0.3810 -0.0009
16902TIP3    H172197   4.906   4.563   3.022 -0.5635 -0.2157 -1.0426
16902TIP3    H272198   5.039   4.634   3.008  0.9387 -2.6513  0.2922
16903TIP3   OH272199   3.126   1.854   1.849 -0.6227 -0.5424 -0.3728
16903TIP3    H172200   3.043   1.808   1.836 -0.2089 -1.7002  0.9210
16903TIP3    H272201   3.130   1.871   1.943 -0.3215  1.3574 -0.6847
16904TIP3   OH272202   3.598   0.112   2.030  0.8806 -0.3394 -0.0430
16904TIP3    H172203   3.508   0.094   2.060  0.6376 -0.2579 -0.7019
16904TIP3    H272204   3.625   0.189   2.081  0.3244  0.0483 -0.3269
16905TIP3   OH272205   1.618   2.691  10.985  0.2020  0.3114 -0.5697
16905TIP3    H172206   1.692   2.722  10.933 -0.1282  3.3320  0.5130
16905TIP3    H272207   1.560   2.768  10.991 -0.4883 -0.2968  2.9230
16906TIP3   OH272208   6.492   3.155   0.031 -0.5128 -0.0886  0.3646
16906TIP3    H172209   6.584   3.129   0.039 -0.3162  0.6180  0.4597
16906TIP3    H272210   6.444   3.073   0.035  0.0395 -0.3797  1.5127
16907TIP3   OH272211   5.741   2.417   1.077 -0.3094 -0.6981  0.4187
16907TIP3    H172212   5.758   2.414   1.171  0.7282 -1.6738  0.2170
16907TIP3    H272213   5.645   2.415   1.070 -0.4306  0.4656  1.4700
16908TIP3   OH272214   5.962   1.056  11.335  0.3169  0.5671 -0.6160
16908TIP3    H172215   6.004   1.124  11.283  0.4901  1.1423  0.2553
16908TIP3    H272216   5.896   1.018  11.277  1.9945 -0.3614 -2.0286
16909TIP3   OH272217   6.560   4.923  15.442 -0.3485 -0.4496 -0.4486
16909TIP3    H172218   6.608   4.863  15.385 -1.1217  0.2053 -1.8525
16909TIP3    H272219   6.535   4.995  15.384 -1.9452 -0.1912  0.5103
16910TIP3   OH272220   0.731   1.983   5.050 -0.2557 -0.3046 -0.1105
16910TIP3    H172221   0.710   2.044   4.979 -0.3614 -1.5278 -1.1594
16910TIP3    H272222   0.681   1.904   5.029  0.1722 -0.8943  1.0216
16911TIP3   OH272223   2.663   1.822  14.000  0.1264 -0.3319  0.4688
16911TIP3    H172224   2.620   1.765  14.063 -0.0819 -1.3183 -0.5229
16911TIP3    H272225   2.608   1.818  13.922 -0.3322  1.8842  0.6025
16912TIP3   OH272226   2.687   0.420   3.695  0.4102 -0.1180 -0.0764
16912TIP3    H172227   2.774   0.435   3.734  1.9301 -1.9213 -2.4456
16912TIP3    H272228   2.640   0.502   3.708  1.9428  0.4717  2.5168
16913TIP3   OH272229   0.595   1.981   3.759 -0.3465 -0.0360  0.3919
16913TIP3    H172230   0.584   1.891   3.728 -0.0679  0.8056 -2.3640
16913TIP3    H272231   0.525   2.030   3.716  0.6505  1.3872  0.3417
16914TIP3   OH272232   5.862   4.982  12.451 -0.3172  0.2244 -0.1320
16914TIP3    H172233   5.899   5.059  12.408 -0.8773  0.6514  0.1389
16914TIP3    H272234   5.937   4.939  12.491 -0.0603  0.8774  0.0982
16915TIP3   OH272235   0.477   2.871   4.117 -0.3779  0.1003 -0.4036
16915TIP3    H172236   0.458   2.778   4.130 -1.8713  0.0715 -2.3571
16915TIP3    H272237   0.506   2.902   4.203  1.2422 -2.3739  0.0403
16916TIP3   OH272238   1.817   3.954  16.499  0.1930  0.3184  0.2036
16916TIP3    H172239   1.731   3.911  16.504  0.7504 -0.7356  1.4638
16916TIP3    H272240   1.815   4.020  16.568  0.1121  0.8520 -0.3050
16917TIP3   OH272241   2.073   3.372  13.626  0.1470 -0.3261  0.0292
16917TIP3    H172242   2.116   3.381  13.541  0.5074 -2.3869 -0.0358
16917TIP3    H272243   2.139   3.334  13.683 -0.7680 -1.0266  0.6450
16918TIP3   OH272244   1.494   4.375  12.900  0.3665 -0.1007  0.3209
16918TIP3    H172245   1.530   4.409  12.819 -0.7071  1.7527  0.5768
16918TIP3    H272246   1.451   4.450  12.941 -0.1867 -1.2759  2.0054
16919TIP3   OH272247   4.033   0.216   1.664  0.0373  0.1535 -0.1536
16919TIP3    H172248   4.092   0.277   1.619 -0.5473  0.8330 -0.0221
16919TIP3    H272249   3.948   0.260   1.664 -0.6903 -1.1595 -1.0967
16920TIP3   OH272250   2.730   2.417   1.219  0.0923 -0.9687 -0.7022
16920TIP3    H172251   2.644   2.458   1.219 -0.6948 -2.5067  0.9523
16920TIP3    H272252   2.785   2.477   1.168 -1.0138  2.0543  1.3802
16921TIP3   OH272253   6.537   6.228   4.901 -0.0516  0.5875  0.0024
16921TIP3    H172254   6.565   6.252   4.813  1.6247  2.8199  1.0382
16921TIP3    H272255   6.460   6.282   4.918  1.0624  2.0273  0.7124
16922TIP3   OH272256   1.442   4.843  11.780 -0.7867 -0.4056 -0.2666
16922TIP3    H172257   1.409   4.755  11.762 -0.8444 -0.2851 -0.7829
16922TIP3    H272258   1.537   4.833  11.782 -0.7809 -0.4388 -0.5828
16923TIP3   OH272259   4.307   5.367  13.943  0.7783  0.4828 -0.2994
16923TIP3    H172260   4.388   5.385  13.895  0.5381 -0.7640 -1.2217
16923TIP3    H272261   4.310   5.272  13.959 -0.4523  0.4452 -0.2482
16924TIP3   OH272262   2.270   5.920  13.096 -0.5302  0.1121  0.0993
16924TIP3    H172263   2.228   5.957  13.018 -1.7428 -0.9738  0.2025
16924TIP3    H272264   2.360   5.903  13.068 -0.6810  0.6551 -0.7580
16925TIP3   OH272265   3.216   5.963  11.611 -0.0547  0.2780  0.3811
16925TIP3    H172266   3.249   5.982  11.699  1.3971 -2.4013  0.5292
16925TIP3    H272267   3.216   6.047  11.566 -0.3825  1.6527  2.7673
16926TIP3   OH272268   1.001   1.434  10.852  0.0558 -0.2147 -0.2217
16926TIP3    H172269   0.992   1.386  10.770 -0.3255 -1.1959  0.3729
16926TIP3    H272270   1.071   1.497  10.835 -0.1926 -0.2236 -1.3718
16927TIP3   OH272271   3.145   6.008   1.681  0.6413  1.0704  0.4570
16927TIP3    H172272   3.184   5.921   1.672  2.9620  1.8545  1.8358
16927TIP3    H272273   3.110   6.027   1.595 -0.2825 -1.3556  0.2197
16928TIP3   OH272274   5.736   5.334   4.388 -0.1091  0.1542 -0.0743
16928TIP3    H172275   5.818   5.287   4.403 -0.5458 -0.7266 -0.3520
16928TIP3    H272276   5.683   5.316   4.465 -0.1967  0.3700 -0.0844
16929TIP3   OH272277   4.429   3.187  13.086  0.3591  0.1666  0.2188
16929TIP3    H172278   4.357   3.155  13.031 -0.9184  0.7067  1.5030
16929TIP3    H272279   4.463   3.263  13.039 -1.0922  0.9632  0.4050
16930TIP3   OH272280   1.921   3.089   2.029 -0.4147 -0.0971  0.1080
16930TIP3    H172281   2.009   3.083   2.064 -0.7505 -1.1121  0.8426
16930TIP3    H272282   1.932   3.091   1.934  0.3670 -1.0506  0.1717
16931TIP3   OH272283   3.834   5.298  12.405  0.0378  0.1349  0.1529
16931TIP3    H172284   3.856   5.211  12.369  1.7599  0.7239 -0.2992
16931TIP3    H272285   3.870   5.360  12.341 -0.6227  1.2080  0.7899
16932TIP3   OH272286   4.866   3.429  16.477  0.5264 -0.0820 -0.0078
16932TIP3    H172287   4.908   3.402  16.559 -1.5396  0.9448  1.4942
16932TIP3    H272288   4.790   3.480  16.505  0.6456  1.7287 -2.6057
16933TIP3   OH272289   6.753   5.732  15.730 -0.4727  0.0666 -0.2338
16933TIP3    H172290   6.778   5.657  15.784 -0.2773  0.4985  0.2733
16933TIP3    H272291   6.659   5.719  15.714  0.1328 -2.0108 -2.8351
16934TIP3   OH272292   6.517   6.139   4.419  0.4114  0.1482  0.3428
16934TIP3    H172293   6.430   6.123   4.383  0.4598 -3.0571  1.3106
16934TIP3    H272294   6.572   6.160   4.344 -0.7009 -0.3762 -0.6366
16935TIP3   OH272295   4.157   1.092   0.633  0.1920  0.1505 -0.3901
16935TIP3    H172296   4.164   1.187   0.643 -0.4087  0.0767  0.8891
16935TIP3    H272297   4.079   1.079   0.579  0.7788  0.3998 -1.3235
16936TIP3   OH272298   4.824   4.610  12.521 -0.1984  0.1963 -0.0952
16936TIP3    H172299   4.913   4.600  12.553  0.2143 -1.0471 -1.5175
16936TIP3    H272300   4.834   4.625  12.427 -1.4357  1.9062 -0.0091
16937TIP3   OH272301   2.460   6.007   1.202 -0.3746  0.1671 -0.4072
16937TIP3    H172302   2.486   5.915   1.207 -0.7546  0.0838  0.0521
16937TIP3    H272303   2.476   6.042   1.289  0.3011  0.6863 -0.7283
16938TIP3   OH272304   4.601   5.501  13.809 -0.0273 -0.1529  0.0912
16938TIP3    H172305   4.626   5.494  13.901 -0.3020 -1.8527  0.0632
16938TIP3    H272306   4.658   5.440  13.763  0.1394  0.7127 -0.8859
16939TIP3   OH272307   0.996   4.398  12.568 -0.4185  0.4156  0.4936
16939TIP3    H172308   1.056   4.452  12.618 -0.0300  0.0236  0.4611
16939TIP3    H272309   0.945   4.460  12.515 -1.1076  0.8577  1.6543
16940TIP3   OH272310   4.963   1.581  14.538 -0.2780  0.5247  0.6622
16940TIP3    H172311   4.885   1.547  14.581  0.4153 -1.7263  0.2786
16940TIP3    H272312   4.951   1.675  14.536 -4.1445  0.1594 -1.5783
16941TIP3   OH272313   0.461   5.597  12.679  0.9315 -0.1722  0.3033
16941TIP3    H172314   0.449   5.673  12.623  1.7009  0.6306  1.2015
16941TIP3    H272315   0.384   5.542  12.662  0.3352  0.8272 -0.3053
16942TIP3   OH272316   2.825   0.830   2.155  0.1844  0.0716 -0.0444
16942TIP3    H172317   2.854   0.768   2.088 -0.4819  0.2263 -0.4766
16942TIP3    H272318   2.730   0.832   2.146  0.1113  0.2517  0.7714
16943TIP3   OH272319   0.926   4.370  14.955 -0.6121 -0.3854 -0.4705
16943TIP3    H172320   0.850   4.404  15.001 -0.0159 -0.4297  0.5721
16943TIP3    H272321   0.893   4.292  14.909 -1.1041 -0.6437  0.3055
16944TIP3   OH272322   3.396   5.419  12.713 -0.3532 -0.1516 -0.4650
16944TIP3    H172323   3.327   5.391  12.653 -0.0472 -0.8656 -0.4947
16944TIP3    H272324   3.349   5.439  12.795 -1.2485  3.9121 -1.7205
16945TIP3   OH272325   3.879   4.113  15.935  0.1106 -0.3275 -0.4031
16945TIP3    H172326   3.972   4.091  15.928  0.2727  0.3596 -0.4544
16945TIP3    H272327   3.878   4.205  15.959 -0.5128 -0.9726  2.4218
16946TIP3   OH272328   2.145   1.165  13.255 -0.5627 -0.0828 -0.7801
16946TIP3    H172329   2.117   1.090  13.308  0.1538 -0.9481 -1.5775
16946TIP3    H272330   2.241   1.160  13.256 -0.5105 -0.6335 -2.7772
16947TIP3   OH272331   3.759   0.740   2.719 -0.5923 -0.0237  0.7349
16947TIP3    H172332   3.770   0.819   2.666  0.7808 -0.9652 -0.4953
16947TIP3    H272333   3.816   0.754   2.795  1.1415 -0.5467 -0.4097
16948TIP3   OH272334   3.282   1.633   3.719  0.4097 -0.1883 -0.5697
16948TIP3    H172335   3.278   1.546   3.680  0.8535 -0.9149  0.9401
16948TIP3    H272336   3.192   1.663   3.721  0.3961  0.0275 -2.4218
16949TIP3   OH272337   2.218   4.689  14.553 -0.6003 -0.1846  0.0615
16949TIP3    H172338   2.292   4.664  14.497 -0.9816  1.0817 -1.0654
16949TIP3    H272339   2.147   4.632  14.524 -1.5619  2.2018 -2.7314
16950TIP3   OH272340   2.645   1.164  12.160 -0.1594  0.2725 -0.4079
16950TIP3    H172341   2.672   1.219  12.086 -2.3855  0.3915 -1.1954
16950TIP3    H272342   2.591   1.095  12.121 -0.5751 -0.2423  1.0115
16951TIP3   OH272343   0.865   0.286   2.164  0.3587  0.6265  0.2716
16951TIP3    H172344   0.821   0.370   2.152  1.3738  0.9952 -1.2116
16951TIP3    H272345   0.846   0.261   2.254  0.5515  2.7570  0.9582
16952TIP3   OH272346   0.402   2.736   4.709 -0.0670  0.1931  0.1795
16952TIP3    H172347   0.490   2.699   4.712 -0.2525 -0.2897 -0.1933
16952TIP3    H272348   0.398   2.785   4.627 -0.0335  0.5154  0.3660
16953TIP3   OH272349   5.372   6.663  10.987 -0.0172  0.1282  0.2757
16953TIP3    H172350   5.461   6.665  10.951 -0.0294 -1.2404  0.1264
16953TIP3    H272351   5.319   6.622  10.918 -0.2861 -1.3248  1.3126
16954TIP3   OH272352   6.029   3.877   2.408  0.4827 -0.2676 -0.3017
16954TIP3    H172353   6.058   3.787   2.420  1.3015 -0.2475 -1.8252
16954TIP3    H272354   5.985   3.877   2.323  1.4601  0.9708 -0.8439
16955TIP3   OH272355   2.341   5.039  11.439  0.2006 -0.1856 -0.6701
16955TIP3    H172356   2.376   5.014  11.525  1.4522  2.4115 -0.3333
16955TIP3    H272357   2.296   4.960  11.408  0.9092 -1.6502  1.7328
16956TIP3   OH272358   5.322   2.722  11.798 -0.2204  0.1965 -0.3329
16956TIP3    H172359   5.277   2.645  11.834 -1.2391  1.8123  2.1093
16956TIP3    H272360   5.271   2.746  11.721  0.1860 -1.5803 -1.2206
16957TIP3   OH272361   3.212   6.319  13.734  0.0838  0.6786 -0.1045
16957TIP3    H172362   3.120   6.343  13.724 -0.1846 -0.2328  0.0803
16957TIP3    H272363   3.240   6.295  13.646 -0.3726 -0.7642  0.1132
16958TIP3   OH272364   5.001   4.895   5.847 -0.7098  0.2619 -0.3950
16958TIP3    H172365   5.070   4.876   5.784 -1.4819  0.2801 -1.2621
16958TIP3    H272366   4.995   4.816   5.901  0.4519  0.5243  0.1487
16959TIP3   OH272367   2.392   1.089  15.747  0.4481 -0.2855  0.8159
16959TIP3    H172368   2.335   1.051  15.680  1.6642 -0.4134 -0.1664
16959TIP3    H272369   2.450   1.017  15.773  0.9971  0.1855  0.9009
16960TIP3   OH272370   3.083   5.432   3.579 -0.8517  0.1380  0.0170
16960TIP3    H172371   3.161   5.382   3.556 -1.3462 -1.1211  0.9122
16960TIP3    H272372   3.057   5.476   3.498  0.9119  0.7933 -0.2233
16961TIP3   OH272373   4.474   3.823   1.437 -1.0136 -0.0909  0.4641
16961TIP3    H172374   4.390   3.868   1.438 -1.0429 -0.1436  0.3021
16961TIP3    H272375   4.512   3.843   1.351 -0.0435  1.4504  1.2133
16962TIP3   OH272376   0.629   3.502   4.954 -0.5017 -1.0858 -0.4959
16962TIP3    H172377   0.689   3.551   4.898 -1.9394  1.6797  0.2056
16962TIP3    H272378   0.682   3.478   5.030 -0.6685  3.9865  1.6201
16963TIP3   OH272379   1.302   3.904   3.141  0.1389  0.4150  0.3855
16963TIP3    H172380   1.387   3.903   3.097  0.2752  0.7295  0.6409
16963TIP3    H272381   1.315   3.960   3.217 -0.2201  0.2367  0.5820
16964TIP3   OH272382   3.490   0.616   3.626 -0.2944 -0.0286 -0.6396
16964TIP3    H172383   3.438   0.556   3.679 -0.4976  2.0598  1.7323
16964TIP3    H272384   3.579   0.580   3.629 -0.4811 -0.4254  0.3646
16965TIP3   OH272385   6.618   1.539  13.000  0.0248 -0.3447  0.0004
16965TIP3    H172386   6.554   1.489  13.052 -0.3845  0.1961  0.0221
16965TIP3    H272387   6.598   1.515  12.909 -0.6342  0.3064 -0.0360
16966TIP3   OH272388   0.293   6.181  13.314  0.1096  0.3074 -0.1238
16966TIP3    H172389   0.265   6.271  13.333 -0.1545  0.8848 -2.9066
16966TIP3    H272390   0.371   6.191  13.261  1.1756 -1.1948  1.0931
16967TIP3   OH272391   5.859   3.517   3.600  0.1386  0.0136 -0.1122
16967TIP3    H172392   5.786   3.460   3.624  0.5849 -0.1243  0.9982
16967TIP3    H272393   5.906   3.469   3.532  0.3697 -0.8383  0.6352
16968TIP3   OH272394   5.117   3.784  16.274 -0.1324 -0.1474 -0.6788
16968TIP3    H172395   5.135   3.693  16.299 -1.6930 -0.1242  0.7120
16968TIP3    H272396   5.204   3.822  16.261  0.5853 -1.6162 -0.4889
16969TIP3   OH272397   3.016   0.244  11.136 -0.1748  0.4489 -0.1439
16969TIP3    H172398   3.000   0.253  11.230 -0.1301 -0.0472 -0.0890
16969TIP3    H272399   3.070   0.166  11.128 -2.5359 -1.2531 -0.8051
16970TIP3   OH272400   2.866   2.127   6.055  0.4054  0.1555 -0.1971
16970TIP3    H172401   2.806   2.182   6.005 -0.4087 -0.2640  0.3136
16970TIP3    H272402   2.914   2.189   6.110 -0.7978  0.3413  0.6790
16971TIP3   OH272403   3.166   5.423   0.322  0.3689 -0.0544 -0.6390
16971TIP3    H172404   3.093   5.482   0.304 -1.6170 -1.3521  2.3349
16971TIP3    H272405   3.141   5.341   0.278  0.1498 -0.3863  0.0762
16972TIP3   OH272406   1.997   3.685  12.836 -0.3013  0.1039 -0.1604
16972TIP3    H172407   2.056   3.723  12.902  0.6468  0.4291 -1.1684
16972TIP3    H272408   1.974   3.759  12.780 -0.5717 -0.3042 -0.5872
16973TIP3   OH272409   4.828   4.882   0.414 -0.3846 -0.2934 -0.3986
16973TIP3    H172410   4.885   4.932   0.355 -0.8764  0.3044 -0.3678
16973TIP3    H272411   4.855   4.791   0.400  1.5589  0.0785  0.6730
16974TIP3   OH272412   0.445   3.290   2.965 -0.2630 -0.4567  0.3055
16974TIP3    H172413   0.498   3.215   2.939 -2.1339 -1.0738 -2.0965
16974TIP3    H272414   0.487   3.365   2.924  0.1663 -0.5781  0.5241
16975TIP3   OH272415   0.701   0.957   1.694  0.1775  0.2356  0.2883
16975TIP3    H172416   0.651   0.955   1.776  0.8728  0.6625  0.7332
16975TIP3    H272417   0.635   0.972   1.626 -0.2854  0.9339  0.8772
16976TIP3   OH272418   0.962   3.022  14.639  0.4759 -0.0045  0.1429
16976TIP3    H172419   1.019   2.947  14.654  1.0289  0.6242  1.4539
16976TIP3    H272420   0.876   2.994  14.668  0.3466 -0.6049 -0.7985
16977TIP3   OH272421   4.393   1.988  13.040  0.1771  0.2190 -0.2822
16977TIP3    H172422   4.473   1.939  13.054  1.3217  2.0174 -0.1745
16977TIP3    H272423   4.400   2.022  12.951 -0.1350  0.9188 -0.0525
16978TIP3   OH272424   2.651   5.214   6.145 -0.2716  0.0483 -0.0777
16978TIP3    H172425   2.685   5.279   6.207 -0.8891  0.5350 -0.2379
16978TIP3    H272426   2.604   5.266   6.079 -0.0968 -0.5033 -0.6481
16979TIP3   OH272427   1.229   3.988  16.073  0.0556  0.4121 -0.4230
16979TIP3    H172428   1.293   3.919  16.056  0.2764  0.7381 -0.9247
16979TIP3    H272429   1.144   3.945  16.062  0.1896  0.3695 -1.3699
16980TIP3   OH272430   2.719   0.319  14.676  0.3303  0.2407  0.4713
16980TIP3    H172431   2.784   0.262  14.717 -1.7017 -1.5024  1.5172
16980TIP3    H272432   2.690   0.270  14.599 -0.5779  0.4017  0.6957
16981TIP3   OH272433   2.225   4.739   1.805 -0.0452  0.0347 -0.0357
16981TIP3    H172434   2.215   4.669   1.870 -2.5182 -1.8962 -2.2438
16981TIP3    H272435   2.160   4.804   1.829 -0.7806 -0.5553 -0.3852
16982TIP3   OH272436   3.368   5.123  15.623  0.1846 -0.1317  0.3502
16982TIP3    H172437   3.340   5.141  15.533 -0.5676 -2.3541  0.0663
16982TIP3    H272438   3.305   5.169  15.678  0.9854  1.7138 -0.2185
16983TIP3   OH272439   5.119   5.718   0.045  0.1186  0.7040  0.3187
16983TIP3    H172440   5.030   5.702   0.012 -0.0781  1.9181  0.1943
16983TIP3    H272441   5.166   5.636   0.029 -0.8700  0.1834  0.0078
16984TIP3   OH272442   0.987   5.980  10.735 -0.0588 -0.4377  0.0923
16984TIP3    H172443   0.894   5.981  10.755  0.2900  0.9817  1.9083
16984TIP3    H272444   1.028   5.933  10.808  0.5039 -3.2427 -1.8580
16985TIP3   OH272445   6.569   6.190  13.091 -0.1252 -0.2268 -0.5935
16985TIP3    H172446   6.549   6.281  13.066 -0.8093  0.2200  1.4645
16985TIP3    H272447   6.486   6.144  13.083 -0.5483  0.1024  1.4894
16986TIP3   OH272448   3.920   0.850  11.457 -0.0153 -0.6356 -0.3092
16986TIP3    H172449   3.899   0.928  11.509  1.3805 -0.1858 -0.3828
16986TIP3    H272450   3.924   0.883  11.367 -1.0765 -1.1389 -0.5488
16987TIP3   OH272451   5.903   3.346  12.337  0.6532  0.1680 -0.1805
16987TIP3    H172452   5.841   3.318  12.404  0.2941  0.7581 -0.2535
16987TIP3    H272453   5.940   3.265  12.303 -0.4308 -0.2323 -0.4664
16988TIP3   OH272454   1.087   5.113  13.678  0.4410  0.5177  0.5273
16988TIP3    H172455   1.182   5.115  13.671  0.5266 -0.9601  0.8903
16988TIP3    H272456   1.069   5.038  13.734 -0.9651  0.4794  0.0603
16989TIP3   OH272457   6.847   5.196   1.859  0.0266  0.1029 -0.1571
16989TIP3    H172458   6.776   5.133   1.850 -0.5972  0.8601 -0.7412
16989TIP3    H272459   6.835   5.256   1.785  0.9257  0.5870  0.0738
16990TIP3   OH272460   6.531   1.771  13.395 -0.2805 -0.7004 -0.1742
16990TIP3    H172461   6.574   1.686  13.392 -0.1060 -0.6130 -0.1404
16990TIP3    H272462   6.517   1.795  13.304  1.9067  0.3741 -0.2670
16991TIP3   OH272463   2.630   4.174  12.950  0.9710 -0.2444 -0.2300
16991TIP3    H172464   2.719   4.208  12.937  0.9716 -0.2254 -0.1753
16991TIP3    H272465   2.632   4.087  12.910  1.0805 -0.3387 -0.0232
16992TIP3   OH272466   0.107   0.206   5.482  0.0916 -0.5711  0.4877
16992TIP3    H172467   0.084   0.296   5.501 -1.0478 -0.7781  0.1504
16992TIP3    H272468   0.046   0.153   5.533 -1.7613 -1.1289 -2.1053
16993TIP3   OH272469   1.387   3.269   0.210 -0.2636  0.2652 -0.2628
16993TIP3    H172470   1.346   3.354   0.228 -0.7423  0.2362 -1.1484
16993TIP3    H272471   1.348   3.240   0.127  0.3945 -0.5067 -0.3238
16994TIP3   OH272472   3.737   4.867   4.459  0.8710  0.2066 -0.3265
16994TIP3    H172473   3.808   4.802   4.452  1.3253  0.7178 -0.5751
16994TIP3    H272474   3.704   4.875   4.369 -0.5356 -1.1479  0.0418
16995TIP3   OH272475   2.867   6.730   2.592  0.7078 -0.1553  0.4617
16995TIP3    H172476   2.914   6.657   2.552 -0.4423 -1.5372  1.5014
16995TIP3    H272477   2.852   6.702   2.683  0.2502  1.3907  0.8917
16996TIP3   OH272478   5.664   1.244   6.638 -0.5665  0.2921 -0.0947
16996TIP3    H172479   5.584   1.224   6.591  1.5064 -1.8066 -3.1300
16996TIP3    H272480   5.710   1.306   6.582  0.4607  0.5051  0.9493
16997TIP3   OH272481   6.791   2.444  16.614 -1.2646  0.2190 -0.6756
16997TIP3    H172482   6.874   2.493  16.609 -0.3753 -1.2842 -1.4372
16997TIP3    H272483   6.808   2.375  16.678 -2.5268  0.9211  0.4448
16998TIP3   OH272484   3.901   1.644  13.719  0.0306 -0.2436 -0.3928
16998TIP3    H172485   3.823   1.605  13.759  0.6237 -2.9696 -1.6603
16998TIP3    H272486   3.898   1.736  13.746 -2.3793 -0.7519  1.4611
16999TIP3   OH272487   6.404   3.198  12.618 -0.1251 -0.5196  0.0687
16999TIP3    H172488   6.407   3.204  12.522  2.2105  1.5315  0.1670
16999TIP3    H272489   6.321   3.240  12.642  0.7958  2.1794 -1.0140
17000TIP3   OH272490   2.249   5.189   4.627 -0.3793 -0.6912  0.2557
17000TIP3    H172491   2.319   5.205   4.565 -0.1755 -0.5561  0.5182
17000TIP3    H272492   2.282   5.121   4.686 -0.1038  0.0172  0.9408
17001TIP3   OH272493   2.112   1.786  16.735 -0.6437 -0.1937 -0.5000
17001TIP3    H172494   2.108   1.784  16.831  0.2196  0.7958 -0.4242
17001TIP3    H272495   2.118   1.695  16.709 -3.1200 -0.6485  0.2583
17002TIP3   OH272496   1.464   1.753  15.121  0.2791  0.1753 -0.4720
17002TIP3    H172497   1.404   1.683  15.143 -0.1397 -0.0423 -2.1608
17002TIP3    H272498   1.539   1.710  15.079  2.0857  0.3506  2.2948
17003TIP3   OH272499   6.645   0.354   0.444  0.5072 -0.2264  0.1023
17003TIP3    H172500   6.642   0.270   0.400 -3.4724  0.0904 -0.6653
17003TIP3    H272501   6.653   0.418   0.373 -0.8977  0.1082  0.2046
17004TIP3   OH272502   5.042   4.120  14.139 -0.4152  0.0625  0.4031
17004TIP3    H172503   5.023   4.047  14.199  0.4920 -0.7101 -0.2146
17004TIP3    H272504   5.029   4.082  14.052 -0.3186  0.7669  0.0781
17005TIP3   OH272505   6.742   5.378   5.027 -0.4169  0.5522  0.3021
17005TIP3    H172506   6.657   5.373   4.984  0.3968  1.2294 -1.4794
17005TIP3    H272507   6.803   5.343   4.963  0.6301 -0.2525  1.6920
17006TIP3   OH272508   2.821   0.387   4.609 -0.4182  0.2042 -0.2161
17006TIP3    H172509   2.728   0.403   4.624 -0.1928  0.4880  0.9391
17006TIP3    H272510   2.861   0.395   4.695  0.8896  1.4486 -0.9007
17007TIP3   OH272511   6.810   0.134   5.684  0.5288 -0.2422 -0.4674
17007TIP3    H172512   6.812   0.146   5.779  0.9429 -3.4530  0.0546
17007TIP3    H272513   6.736   0.187   5.654 -0.5961 -0.3568  1.8860
17008TIP3   OH272514   3.587   4.921   5.403  0.2295 -0.1450  0.6366
17008TIP3    H172515   3.541   4.846   5.366  0.7106 -1.4729  2.5468
17008TIP3    H272516   3.671   4.923   5.358  0.0945 -0.5762  0.3674
17009TIP3   OH272517   5.563   1.679   3.825 -0.1917  0.4227 -0.0335
17009TIP3    H172518   5.534   1.593   3.795 -0.3761  0.0377  1.2105
17009TIP3    H272519   5.648   1.663   3.865  0.0225  0.9129 -0.2928
17010TIP3   OH272520   1.354   5.836  14.522 -0.4302  0.1410  0.0177
17010TIP3    H172521   1.260   5.817  14.512 -0.1568 -0.6150 -1.3120
17010TIP3    H272522   1.391   5.752  14.549  0.0672  0.0548 -0.9081
17011TIP3   OH272523   1.229   0.953  16.145  0.3493  0.2335  0.0795
17011TIP3    H172524   1.317   0.935  16.179  0.5793  0.5529 -0.3417
17011TIP3    H272525   1.234   0.928  16.052 -0.7820 -2.4118  0.6285
17012TIP3   OH272526   2.850   5.545   4.955 -0.4085  0.2980 -0.3067
17012TIP3    H172527   2.864   5.562   5.048 -0.1380 -1.6407  0.0553
17012TIP3    H272528   2.813   5.626   4.921 -0.7928  0.9476  1.5425
17013TIP3   OH272529   6.080   1.784   1.560 -0.3703  0.0939  0.3699
17013TIP3    H172530   6.174   1.777   1.573 -0.4250  0.2640  0.8713
17013TIP3    H272531   6.051   1.694   1.540 -0.0134  0.1501 -0.4383
17014TIP3   OH272532   1.681   3.328  16.980  0.0301  0.4408  0.1103
17014TIP3    H172533   1.774   3.333  17.000  0.4605 -0.5510 -1.4983
17014TIP3    H272534   1.659   3.235  16.986 -1.3934  0.8542  2.5692
17015TIP3   OH272535   2.651   2.815  10.895 -0.0427  0.0343  0.3508
17015TIP3    H172536   2.594   2.872  10.946 -1.4493 -0.3713 -0.7055
17015TIP3    H272537   2.664   2.862  10.812  0.2801 -0.3737  0.1664
17016TIP3   OH272538   1.739   3.950   1.337 -0.0007 -0.4567 -0.3013
17016TIP3    H172539   1.790   4.017   1.384 -0.1703 -0.4753 -0.0905
17016TIP3    H272540   1.782   3.868   1.358  0.9650 -0.3073 -1.5463
17017TIP3   OH272541   2.148   2.481  11.236  0.1418  0.0375 -0.3056
17017TIP3    H172542   2.057   2.475  11.210 -0.1226  1.8533  0.1122
17017TIP3    H272543   2.195   2.430  11.170 -1.0255  0.2625 -1.3430
17018TIP3   OH272544   3.812   0.059  16.940  0.2926 -0.4272 -0.0779
17018TIP3    H172545   3.879  -0.004  16.915  1.0761  0.5087 -0.3806
17018TIP3    H272546   3.836   0.085  17.029  1.2716  1.0669 -0.7386
17019TIP3   OH272547   1.951   6.057  13.483  0.3341 -0.0485  0.2292
17019TIP3    H172548   1.927   6.098  13.400 -0.8445 -0.4223  0.3671
17019TIP3    H272549   1.876   6.074  13.541  0.8375 -0.3931  1.0015
17020TIP3   OH272550   1.299   0.797   2.051  0.2480 -0.1559  0.1197
17020TIP3    H172551   1.291   0.889   2.075 -0.4631  0.2223 -1.4186
17020TIP3    H272552   1.211   0.761   2.067 -0.7432  0.4719 -3.0578
17021TIP3   OH272553   6.085   5.021   2.019 -0.4101  0.2252  0.3036
17021TIP3    H172554   6.052   5.104   1.984 -0.5528 -0.1170 -0.3990
17021TIP3    H272555   6.175   5.016   1.987 -0.2118  0.3748  0.8282
17022TIP3   OH272556   4.014   0.870  13.317 -0.0803 -0.5584  0.2724
17022TIP3    H172557   3.958   0.946  13.332  1.2059  0.5316 -0.1776
17022TIP3    H272558   4.005   0.852  13.223 -2.0466 -2.3846  0.7347
17023TIP3   OH272559   1.246   5.528  15.712  0.0690  0.5383 -0.7315
17023TIP3    H172560   1.287   5.488  15.635  0.8912 -0.9435  0.4020
17023TIP3    H272561   1.202   5.455  15.756  0.8008  1.0281  0.9091
17024TIP3   OH272562   4.011   2.205  15.591  0.0683 -0.1172  0.3106
17024TIP3    H172563   3.969   2.235  15.510 -0.3000  0.5211  0.7333
17024TIP3    H272564   4.032   2.285  15.639  0.7435 -0.4720  0.6258
17025TIP3   OH272565   4.861   5.384   5.035 -0.4240 -0.3022 -1.0797
17025TIP3    H172566   4.890   5.473   5.014  1.7799 -0.5298  0.5480
17025TIP3    H272567   4.911   5.329   4.975  0.0737 -0.5253 -0.4802
17026TIP3   OH272568   6.316   3.140   4.117 -0.6352 -0.1970 -0.4713
17026TIP3    H172569   6.394   3.105   4.074 -2.0531 -0.0826 -3.4043
17026TIP3    H272570   6.259   3.064   4.130 -2.5334  0.3440 -4.2389
17027TIP3   OH272571   1.860   0.584  11.483 -0.6733  0.2738 -0.1947
17027TIP3    H172572   1.787   0.592  11.423 -1.5924 -1.8106  0.5394
17027TIP3    H272573   1.835   0.513  11.542  3.1522 -2.7404 -1.7432
17028TIP3   OH272574   1.111   5.856   2.207  0.4225 -0.1661  0.3454
17028TIP3    H172575   1.176   5.902   2.155 -0.7108  0.9358 -0.1492
17028TIP3    H272576   1.143   5.766   2.211  1.1969  0.0133 -1.1798
17029TIP3   OH272577   5.574   5.502   0.285 -0.0625 -0.1752 -0.8774
17029TIP3    H172578   5.541   5.469   0.201 -2.0406  1.5735 -0.8824
17029TIP3    H272579   5.659   5.540   0.264 -0.8353  0.8787 -2.2880
17030TIP3   OH272580   1.125   0.251  11.055  0.4070  0.1717  0.0467
17030TIP3    H172581   1.038   0.235  11.018  0.2133 -0.1660  0.6365
17030TIP3    H272582   1.108   0.303  11.134  0.8537  1.3598 -0.6123
17031TIP3   OH272583   2.528   0.374  12.332  0.5034 -0.0449  0.2215
17031TIP3    H172584   2.556   0.320  12.406  1.7262 -0.6722 -0.6561
17031TIP3    H272585   2.449   0.419  12.363  0.6765 -0.7070  1.7021
17032TIP3   OH272586   6.673   0.430   0.760  0.6665 -0.2018 -0.6977
17032TIP3    H172587   6.662   0.484   0.681 -1.9039  0.5218  0.0572
17032TIP3    H272588   6.676   0.340   0.727 -1.9452 -0.0334 -1.5951
17033TIP3   OH272589   3.160   4.512   3.399  0.0297  0.2135 -0.2890
17033TIP3    H172590   3.167   4.607   3.393 -0.3081  0.1774 -1.3863
17033TIP3    H272591   3.067   4.495   3.407  0.0805 -0.0367 -0.2241
17034TIP3   OH272592   3.865   1.241   1.990 -0.4567 -0.5384 -0.1310
17034TIP3    H172593   3.853   1.233   1.895 -1.0183 -0.3638 -0.0760
17034TIP3    H272594   3.858   1.335   2.008  2.1075 -0.2431 -0.2298
17035TIP3   OH272595   3.954   3.125  14.125  1.0047 -0.0509  0.4445
17035TIP3    H172596   3.970   3.055  14.062 -1.4049  0.9674 -1.4639
17035TIP3    H272597   4.019   3.191  14.104  0.6682 -0.0189 -0.5654
17036TIP3   OH272598   1.055   2.704   2.354 -0.2438  0.0946  0.1224
17036TIP3    H172599   1.112   2.651   2.298 -0.4810  0.8010 -0.8242
17036TIP3    H272600   0.968   2.664   2.343 -0.4588  0.7670 -0.7429
17037TIP3   OH272601   2.099   3.399  14.454  0.0362 -0.2073 -0.3678
17037TIP3    H172602   2.031   3.457  14.490  0.2349 -0.5159  0.5413
17037TIP3    H272603   2.051   3.319  14.432  0.1141 -0.4781  0.4081
17038TIP3   OH272604   3.221   5.602   1.147 -0.1727  0.3070  0.1207
17038TIP3    H172605   3.142   5.572   1.102 -1.0772  1.4942  0.8413
17038TIP3    H272606   3.284   5.618   1.077 -0.9072  0.2706 -0.5649
17039TIP3   OH272607   6.239   4.597   6.096  0.2415 -0.5923  0.3166
17039TIP3    H172608   6.311   4.628   6.150  0.9754 -1.1018 -0.3466
17039TIP3    H272609   6.165   4.587   6.156  1.0869 -1.3354  1.2611
17040TIP3   OH272610   4.203   2.629  16.503  0.1935  0.0295 -0.3104
17040TIP3    H172611   4.209   2.653  16.411  0.1700  1.9088  0.1433
17040TIP3    H272612   4.120   2.664  16.533 -1.5164 -3.5299 -0.3107
17041TIP3   OH272613   4.237   1.890  16.944 -0.3418  0.0287 -0.0768
17041TIP3    H172614   4.184   1.828  16.995  0.6075 -1.6040 -0.9812
17041TIP3    H272615   4.176   1.960  16.921 -1.7161 -1.0145  0.2226
17042TIP3   OH272616   4.895   2.931  13.828 -0.4245  0.0479 -0.2331
17042TIP3    H172617   4.799   2.921  13.829 -0.4169  0.0003 -0.0069
17042TIP3    H272618   4.917   2.958  13.917 -0.1562 -0.5732 -0.1054
17043TIP3   OH272619   5.125   0.311  12.178  0.1987  0.5890  0.0335
17043TIP3    H172620   5.063   0.359  12.124  1.4836  1.3818 -0.7871
17043TIP3    H272621   5.181   0.266  12.116 -0.5745 -1.5238  0.7793
17044TIP3   OH272622   3.113   0.893   1.421 -0.2430  0.1317  0.4575
17044TIP3    H172623   3.033   0.855   1.386 -0.5393 -0.0282  1.2964
17044TIP3    H272624   3.167   0.817   1.446 -0.8489  0.2293  2.1633
17045TIP3   OH272625   3.610   6.416   2.514  0.5141 -0.0665  0.4262
17045TIP3    H172626   3.523   6.379   2.527 -0.2079  1.6405  0.6994
17045TIP3    H272627   3.656   6.351   2.462 -1.4365 -0.3316 -1.0761
17046TIP3   OH272628   2.683   1.672  15.616  0.3262 -0.0882  0.2016
17046TIP3    H172629   2.701   1.582  15.588  0.5609 -0.3804  1.2594
17046TIP3    H272630   2.702   1.725  15.538  0.6065 -0.9086 -0.3050
17047TIP3   OH272631   5.882   2.774   4.083 -0.0446 -0.5887 -0.2900
17047TIP3    H172632   5.803   2.822   4.109 -0.8193 -2.2304  0.6602
17047TIP3    H272633   5.949   2.802   4.145  0.1987  0.9556 -1.2188
17048TIP3   OH272634   4.653   2.498  11.377  0.8364  0.2422  0.1117
17048TIP3    H172635   4.723   2.438  11.404  1.9281  1.7507  0.7259
17048TIP3    H272636   4.698   2.580  11.358 -0.5170  0.6033 -1.6962
17049TIP3   OH272637   3.675   2.287  13.769  0.0354  0.6661  0.5533
17049TIP3    H172638   3.583   2.293  13.792  0.1393  0.6757  0.9639
17049TIP3    H272639   3.688   2.358  13.705 -0.5459 -0.1812 -0.5334
17050TIP3   OH272640   6.100   4.066   0.100 -0.4568  0.6357 -0.2078
17050TIP3    H172641   6.177   4.063   0.156 -0.6442  0.1842  0.0311
17050TIP3    H272642   6.119   4.135   0.036  1.4402 -1.3790 -2.0040
17051TIP3   OH272643   0.518   6.576   4.397  0.1453  0.1244 -0.4348
17051TIP3    H172644   0.438   6.629   4.398  1.3573  2.1228  1.4129
17051TIP3    H272645   0.489   6.487   4.416 -1.7788  0.4349 -1.6533
17052TIP3   OH272646   2.306   6.021   0.972  0.5288  0.1112 -0.2210
17052TIP3    H172647   2.351   6.103   0.950 -0.0078  0.6264  0.5229
17052TIP3    H272648   2.314   6.015   1.067  1.4346 -1.2418 -0.3533
17053TIP3   OH272649   4.753   0.790  10.717 -0.5685 -0.1511  0.2415
17053TIP3    H172650   4.702   0.750  10.646 -2.7360  0.0900  1.6004
17053TIP3    H272651   4.753   0.724  10.787 -0.3230  0.4726  0.8400
17054TIP3   OH272652   1.478   4.100  16.914  0.3249  0.1255 -0.0185
17054TIP3    H172653   1.517   4.153  16.845  0.2541  1.6611  1.0919
17054TIP3    H272654   1.385   4.122  16.911  0.4971  1.0989  1.3244
17055TIP3   OH272655   0.657   5.662  14.094 -0.1447 -0.1426  0.0493
17055TIP3    H172656   0.628   5.607  14.167  0.9472 -0.0018  0.6174
17055TIP3    H272657   0.582   5.717  14.074 -0.8074 -0.9247  0.3597
17056TIP3   OH272658   0.497   4.580  15.669  0.4644 -0.4146  0.0175
17056TIP3    H172659   0.513   4.669  15.638  0.2987 -0.5591 -0.4912
17056TIP3    H272660   0.538   4.524  15.603  1.6137 -0.7050  0.9370
17057TIP3   OH272661   0.263   5.272   2.559  0.1216 -0.3855  0.5122
17057TIP3    H172662   0.215   5.304   2.636  0.9947 -0.2980  1.0286
17057TIP3    H272663   0.303   5.190   2.588 -0.4773 -0.9420 -0.2079
17058TIP3   OH272664   4.502   4.493   1.312  0.5114  0.3709 -0.3185
17058TIP3    H172665   4.564   4.421   1.327 -1.1967 -0.9517  0.7704
17058TIP3    H272666   4.500   4.503   1.217  0.4744 -1.3418 -0.5417
17059TIP3   OH272667   4.049   0.350  14.563 -0.1503  0.0729 -0.2229
17059TIP3    H172668   3.967   0.319  14.600  0.4292 -0.1338  0.9385
17059TIP3    H272669   4.116   0.296  14.605  0.5835  0.2164 -1.1733
17060TIP3   OH272670   2.656   3.573  15.172 -0.3677  0.2388  0.6589
17060TIP3    H172671   2.573   3.607  15.205 -1.1030 -0.1241 -0.7340
17060TIP3    H272672   2.710   3.651  15.160 -0.8947  0.5924  0.5465
17061TIP3   OH272673   0.590   2.457   3.757  0.1561 -0.2687  0.5713
17061TIP3    H172674   0.655   2.395   3.722 -1.7147 -1.9557 -0.1131
17061TIP3    H272675   0.618   2.542   3.724  1.4636 -1.0832 -0.5433
17062TIP3   OH272676   3.173   6.121   5.803 -0.3898 -0.1082  0.3880
17062TIP3    H172677   3.112   6.193   5.789  0.1948  0.8162  2.3533
17062TIP3    H272678   3.219   6.142   5.884  0.0764 -2.5112  0.8409
17063TIP3   OH272679   4.776   5.856  15.588  0.4838  0.0963 -0.0294
17063TIP3    H172680   4.764   5.767  15.555  1.1906  0.3877 -1.1049
17063TIP3    H272681   4.701   5.905  15.553 -0.3615 -0.2241  1.2356
17064TIP3   OH272682   1.300   1.629  16.950 -0.2151 -0.0285  0.4898
17064TIP3    H172683   1.292   1.724  16.955  2.5463  0.2992  0.1336
17064TIP3    H272684   1.283   1.608  16.858  1.2952  0.4214  0.0865
17065TIP3   OH272685   5.845   2.905   1.709 -0.0632  0.4702  0.4628
17065TIP3    H172686   5.853   2.840   1.779 -0.3278  0.7585  0.7663
17065TIP3    H272687   5.754   2.898   1.680 -0.4301  1.5066  1.3058
17066TIP3   OH272688   3.452   3.797   5.278  0.2132 -0.8278 -0.6316
17066TIP3    H172689   3.464   3.892   5.274  0.6491 -0.8497  0.0249
17066TIP3    H272690   3.437   3.771   5.187  2.3333 -0.4228 -1.1640
17067TIP3   OH272691   4.967   6.184  13.022 -0.4940 -0.0851  0.0195
17067TIP3    H172692   4.975   6.090  13.006  0.4017 -0.1509  0.7883
17067TIP3    H272693   5.001   6.225  12.942 -1.7961 -0.3951 -0.7249
17068TIP3   OH272694   1.513   5.857  14.853 -0.4258  0.0784  0.0028
17068TIP3    H172695   1.500   5.944  14.891 -2.1320 -0.4383  0.7380
17068TIP3    H272696   1.505   5.871  14.758 -1.0280  0.6828  0.1293
17069TIP3   OH272697   5.463   0.393  11.488 -0.0470  0.7995 -0.1227
17069TIP3    H172698   5.480   0.456  11.419 -0.0501  0.8463 -0.0806
17069TIP3    H272699   5.470   0.443  11.569  2.4274  0.2573  0.0806
17070TIP3   OH272700   5.690   0.347   2.750 -0.1327 -0.0621 -0.2932
17070TIP3    H172701   5.742   0.363   2.829 -2.5139 -2.0777  1.8705
17070TIP3    H272702   5.684   0.433   2.707  1.3961  1.0738  1.6252
17071TIP3   OH272703   3.730   5.190  16.841  0.6396 -0.1502  0.0696
17071TIP3    H172704   3.669   5.227  16.777 -0.4195 -2.8356 -0.6423
17071TIP3    H272705   3.725   5.095  16.825  0.2389 -0.9903  4.2301
17072TIP3   OH272706   2.195   5.058  12.358  0.1176  0.2427 -0.0252
17072TIP3    H172707   2.225   5.123  12.295 -0.2379  0.4724  0.0372
17072TIP3    H272708   2.108   5.089  12.384  0.0585 -0.1140  0.2060
17073TIP3   OH272709   3.573   6.574  11.484  0.4230  0.3320 -0.1952
17073TIP3    H172710   3.542   6.658  11.519 -0.2560 -0.3886  0.9945
17073TIP3    H272711   3.663   6.566  11.517  0.7158  0.8699 -0.8413
17074TIP3   OH272712   5.376   4.723  15.878  0.3948  0.3892 -0.4301
17074TIP3    H172713   5.313   4.795  15.877 -0.6766 -0.4604  0.9721
17074TIP3    H272714   5.351   4.667  15.804 -0.1373  0.3589 -0.2290
17075TIP3   OH272715   1.274   2.593   3.057 -0.3784  0.2373 -0.0337
17075TIP3    H172716   1.241   2.640   3.133 -0.1780  0.9393 -0.3774
17075TIP3    H272717   1.300   2.661   2.995 -2.2438 -0.3139 -1.4952
17076TIP3   OH272718   5.715   2.910   4.658 -0.7616 -0.0012  0.1989
17076TIP3    H172719   5.779   2.872   4.719 -0.9021 -0.2803  0.1740
17076TIP3    H272720   5.764   2.975   4.608 -0.2141 -1.0430 -0.6342
17077TIP3   OH272721   5.176   6.250   4.307  0.2395  0.0677  0.3822
17077TIP3    H172722   5.208   6.328   4.353  0.0526  0.6636 -0.4670
17077TIP3    H272723   5.084   6.267   4.291  0.2716 -0.1752 -0.1030
17078TIP3   OH272724   4.288   3.594   5.916 -0.0831 -0.0914  0.2701
17078TIP3    H172725   4.238   3.523   5.877 -0.8339  1.5551 -1.9718
17078TIP3    H272726   4.225   3.641   5.970  0.4951 -1.2405  2.0362
17079TIP3   OH272727   6.241   5.634  14.752  0.0762  0.3964  0.3596
17079TIP3    H172728   6.229   5.705  14.814  1.5390  0.7034  0.3170
17079TIP3    H272729   6.313   5.582  14.788  1.4070  0.9402 -1.3698
17080TIP3   OH272730   1.862   3.064  15.889 -0.3488 -0.0754  0.3376
17080TIP3    H172731   1.910   3.013  15.823 -1.2488 -0.6730  0.1292
17080TIP3    H272732   1.789   3.008  15.914 -0.0966  0.1804  1.7804
17081TIP3   OH272733   5.823   3.689  16.272  0.7963 -1.1056 -0.1091
17081TIP3    H172734   5.853   3.622  16.333 -1.6393 -1.6338  0.6075
17081TIP3    H272735   5.746   3.651  16.230  0.6125  0.4459 -1.2686
17082TIP3   OH272736   4.053   0.557   4.430 -0.1461  0.1409  0.8341
17082TIP3    H172737   4.031   0.542   4.522 -1.3643  5.1474  1.6432
17082TIP3    H272738   3.973   0.595   4.392  1.2623  0.9645 -1.5069
17083TIP3   OH272739   4.488   1.295  12.592 -0.8717  0.4506 -0.5560
17083TIP3    H172740   4.482   1.300  12.688 -2.2780 -1.9598 -0.4469
17083TIP3    H272741   4.581   1.311  12.573 -0.1686 -0.8906  1.3977
17084TIP3   OH272742   2.710   0.631   3.338 -0.0651 -0.2749 -0.0633
17084TIP3    H172743   2.778   0.564   3.346 -0.3761 -0.7904 -1.4552
17084TIP3    H272744   2.745   0.707   3.383  1.8235 -0.2616 -1.4579
17085TIP3   OH272745   4.940   4.169   3.422  0.0586 -0.2830 -0.4075
17085TIP3    H172746   4.854   4.188   3.386 -0.2561 -0.1151  0.4129
17085TIP3    H272747   4.985   4.254   3.424 -1.0699  0.3720  2.5274
17086TIP3   OH272748   4.317   3.539  13.536  0.0950 -0.0251 -0.5853
17086TIP3    H172749   4.374   3.468  13.506  0.9213  0.2986  0.1695
17086TIP3    H272750   4.361   3.618  13.506  1.1353  0.3319  1.6830
17087TIP3   OH272751   6.422   5.947  13.358 -0.0165 -0.2523  0.2090
17087TIP3    H172752   6.344   6.001  13.374 -0.6614 -0.6966 -1.3009
17087TIP3    H272753   6.451   5.922  13.446 -0.9213  0.8205  0.8494
17088TIP3   OH272754   6.049   3.071   5.626 -0.2183  0.3284  0.7502
17088TIP3    H172755   6.059   3.162   5.655 -0.6038  0.9430 -0.9168
17088TIP3    H272756   6.138   3.043   5.606 -0.2529  0.9131 -0.2914
17089TIP3   OH272757   3.405   6.477   1.065 -0.2123  0.3838  0.0907
17089TIP3    H172758   3.489   6.524   1.068 -0.3786  0.6180  1.5385
17089TIP3    H272759   3.353   6.517   1.134 -1.7325  0.5922 -1.1219
17090TIP3   OH272760   6.647   6.488  14.206  0.1161  0.1834 -0.2223
17090TIP3    H172761   6.638   6.393  14.208 -0.5411  0.2398  1.4275
17090TIP3    H272762   6.728   6.505  14.253  0.0946  0.4395 -0.2790
17091TIP3   OH272763   2.243   3.494  16.734 -0.0041  0.1566 -0.2076
17091TIP3    H172764   2.238   3.465  16.825 -2.6667  1.5756  0.1997
17091TIP3    H272765   2.208   3.583  16.735 -0.5097  0.0712 -2.6589
17092TIP3   OH272766   6.438   2.258  12.347 -0.0524 -0.6315  0.0948
17092TIP3    H172767   6.347   2.285  12.342  0.6115  1.8485 -0.1978
17092TIP3    H272768   6.468   2.290  12.432  1.0539  0.5263 -0.6910
17093TIP3   OH272769   2.345   2.726  14.609 -0.1933  0.3360  0.3245
17093TIP3    H172770   2.305   2.639  14.602  0.0655  0.2310  0.1657
17093TIP3    H272771   2.430   2.717  14.568 -0.7420  1.0496 -1.0273
17094TIP3   OH272772   2.943   3.649  15.519  0.0489 -0.0249  0.3781
17094TIP3    H172773   2.994   3.705  15.461 -1.4300  1.7723  0.7118
17094TIP3    H272774   2.955   3.560  15.483 -1.4035  1.0374 -3.2612
17095TIP3   OH272775   6.037   3.861   4.437 -0.7197  0.4219 -0.1552
17095TIP3    H172776   6.091   3.837   4.362 -0.8858 -0.1012 -0.1132
17095TIP3    H272777   6.035   3.782   4.491 -1.8432  0.3113 -0.3475
17096TIP3   OH272778   6.080   3.211  13.788  0.7200 -0.0592  0.1815
17096TIP3    H172779   5.987   3.205  13.809  0.3108  0.5963 -1.2998
17096TIP3    H272780   6.119   3.132  13.827 -0.0298  0.7219  2.6856
17097TIP3   OH272781   3.272   0.346  12.923 -0.8289  0.2255  0.3634
17097TIP3    H172782   3.335   0.326  12.853 -0.2044 -0.2408  1.0510
17097TIP3    H272783   3.190   0.310  12.891 -0.6951  0.6001 -0.4284
17098TIP3   OH272784   0.134   1.998   0.324 -0.2464 -0.2910 -0.0297
17098TIP3    H172785   0.159   1.908   0.305 -1.2473 -0.6767  0.3651
17098TIP3    H272786   0.214   2.041   0.353 -0.2037 -1.7366  2.2010
17099TIP3   OH272787   3.479   2.844  14.376  0.6452  0.4237 -0.9303
17099TIP3    H172788   3.502   2.928  14.336 -3.4151  2.4478  0.3412
17099TIP3    H272789   3.467   2.864  14.469  0.0476 -1.7085 -0.4846
17100TIP3   OH272790   4.207   1.882  16.319 -0.0740  0.3747  0.0715
17100TIP3    H172791   4.158   1.806  16.349  1.2995 -0.1197  1.1370
17100TIP3    H272792   4.178   1.895  16.228 -2.0575  0.0467  0.6068
17101TIP3   OH272793   2.614   5.717   0.808  0.4757 -0.1524  0.0017
17101TIP3    H172794   2.601   5.757   0.722  0.9700 -0.2864 -0.1424
17101TIP3    H272795   2.578   5.629   0.799  0.3041 -0.0835  0.0097
17102TIP3   OH272796   3.366   2.156  14.477 -0.4570  0.3072 -0.4546
17102TIP3    H172797   3.301   2.140  14.545  1.6089 -0.5531  1.4378
17102TIP3    H272798   3.382   2.071  14.438  0.1761  0.3406 -0.2784
17103TIP3   OH272799   3.791   2.109  13.598  0.0211  0.3400  0.0864
17103TIP3    H172800   3.843   2.035  13.630 -1.3230 -0.6054  0.1915
17103TIP3    H272801   3.736   2.133  13.672 -0.8219  0.2494 -0.4894
17104TIP3   OH272802   2.371   1.168   5.761 -0.2341 -0.5340 -0.3225
17104TIP3    H172803   2.433   1.143   5.830 -0.6291 -0.1392  0.1878
17104TIP3    H272804   2.404   1.252   5.729 -0.8607  0.0089  0.4132
17105TIP3   OH272805   5.843   4.066   2.913  0.4788 -0.0803  0.1938
17105TIP3    H172806   5.791   3.987   2.924 -0.5431  0.7942  2.4232
17105TIP3    H272807   5.862   4.071   2.820 -0.1162 -2.4929 -0.0969
17106TIP3   OH272808   5.706   5.581   5.454  0.2443 -0.2560  0.0225
17106TIP3    H172809   5.761   5.650   5.492  0.1388 -0.0109 -0.2721
17106TIP3    H272810   5.769   5.517   5.419  0.3567  0.5734 -1.3295
17107TIP3   OH272811   2.667   5.051   3.135 -0.2441 -0.3790 -0.5364
17107TIP3    H172812   2.659   5.035   3.229 -0.6782  0.6879 -0.3809
17107TIP3    H272813   2.762   5.052   3.120  0.0213  3.0871  0.5995
17108TIP3   OH272814   5.300   5.158  14.984 -0.3996  0.5007  0.1411
17108TIP3    H172815   5.387   5.124  14.965 -0.5130 -0.7916  1.6850
17108TIP3    H272816   5.278   5.211  14.907  0.8743 -0.8427 -1.2444
17109TIP3   OH272817   1.224   5.001  17.137 -0.1977  0.1641  0.1055
17109TIP3    H172818   1.286   5.067  17.107 -0.0433  0.6557  1.4151
17109TIP3    H272819   1.178   4.973  17.058  0.1249  1.4304 -0.5603
17110TIP3   OH272820   2.043   6.528   2.418 -0.6419 -0.0767 -0.0886
17110TIP3    H172821   2.089   6.445   2.403 -1.1427 -0.4102  0.1985
17110TIP3    H272822   2.014   6.524   2.509  0.3747  0.9395  0.3030
17111TIP3   OH272823   2.978   2.904  12.430 -0.3638 -0.3847 -0.4436
17111TIP3    H172824   2.897   2.883  12.475 -0.3462  0.1078 -0.1653
17111TIP3    H272825   2.957   2.982  12.378  0.3734  0.8645  1.0314
17112TIP3   OH272826   2.583   1.737   3.727 -0.2041  0.3488 -0.1816
17112TIP3    H172827   2.659   1.778   3.686  1.0085 -0.2582  1.3551
17112TIP3    H272828   2.509   1.762   3.671  0.6612  3.3839 -0.1187
17113TIP3   OH272829   2.517   4.399   0.063 -0.1865  0.1334 -0.3828
17113TIP3    H172830   2.533   4.326   0.004  0.4217 -0.2852  0.2826
17113TIP3    H272831   2.592   4.457   0.052 -0.5298  0.5259 -0.7012
17114TIP3   OH272832   4.722   2.329   3.744  0.0109 -0.1012 -0.6937
17114TIP3    H172833   4.741   2.348   3.652 -0.4000 -1.0546 -0.9848
17114TIP3    H272834   4.696   2.237   3.744 -0.9304  0.1579  0.2449
17115TIP3   OH272835   3.122   0.717  14.647 -0.3236  0.4443 -0.0629
17115TIP3    H172836   3.193   0.661  14.680 -0.0572  0.6601 -0.2700
17115TIP3    H272837   3.154   0.750  14.563 -0.9663 -0.0396 -0.5132
17116TIP3   OH272838   6.321   5.660   3.055 -0.4010 -0.0027 -0.7143
17116TIP3    H172839   6.341   5.750   3.081 -0.1898 -0.3215  0.2750
17116TIP3    H272840   6.230   5.663   3.027 -0.3241  0.5684 -0.9142
17117TIP3   OH272841   4.450   4.232   6.291  0.0890  0.5904  0.1616
17117TIP3    H172842   4.493   4.253   6.208  0.5368 -0.2744  0.1634
17117TIP3    H272843   4.393   4.157   6.270  1.7483 -1.0019  1.0448
17118TIP3   OH272844   4.940   6.543   5.495 -0.1464 -0.2075 -0.3176
17118TIP3    H172845   4.902   6.563   5.580 -1.2375 -1.4667 -0.4790
17118TIP3    H272846   5.030   6.576   5.500 -0.7736  1.4711  0.6176
17119TIP3   OH272847   5.705   6.471  16.278  0.3214 -0.3970  0.0963
17119TIP3    H172848   5.753   6.553  16.287 -0.3742  0.1443 -0.9328
17119TIP3    H272849   5.643   6.471  16.350  0.7282 -0.3057  0.4504
17120TIP3   OH272850   2.808   6.695  12.839 -0.2152 -0.6162  0.5028
17120TIP3    H172851   2.866   6.625  12.870  0.3031 -0.0039  0.9559
17120TIP3    H272852   2.735   6.650  12.797 -0.1901 -1.4416  1.3249
17121TIP3   OH272853   4.608   6.442   3.450  0.7604  0.5095  0.0191
17121TIP3    H172854   4.698   6.411   3.457  0.6802  0.4980  1.3107
17121TIP3    H272855   4.591   6.484   3.534 -0.4602  0.4473 -0.1817
17122TIP3   OH272856   0.859   4.902  16.530  0.4245  0.1825 -0.1092
17122TIP3    H172857   0.831   4.815  16.501  0.5090 -0.2716  1.1391
17122TIP3    H272858   0.948   4.889  16.563  0.4639  0.7616  0.0194
17123TIP3   OH272859   1.044   4.528   2.298  0.1501  0.4517  0.2152
17123TIP3    H172860   0.993   4.464   2.249  0.1719  0.4985  0.1308
17123TIP3    H272861   1.000   4.535   2.383  1.3484 -1.2583  1.0387
17124TIP3   OH272862   5.561   3.613   0.681 -0.0919 -0.0533  0.4515
17124TIP3    H172863   5.531   3.704   0.680 -2.0126 -0.6155 -0.8692
17124TIP3    H272864   5.626   3.609   0.611 -0.0200  0.3076  0.4946
17125TIP3   OH272865   0.404   6.179  16.286 -0.7022 -0.1706 -0.1419
17125TIP3    H172866   0.460   6.138  16.351 -0.2016 -0.2104 -0.5932
17125TIP3    H272867   0.461   6.239  16.238 -0.9880 -0.3897 -0.7660
17126TIP3   OH272868   4.954   1.891   4.094 -0.1496 -0.2561 -0.3080
17126TIP3    H172869   4.870   1.864   4.131 -0.3186  0.7212  0.0759
17126TIP3    H272870   4.977   1.970   4.144  1.6529 -1.2360  0.5294
17127TIP3   OH272871   4.789   0.669   1.445 -0.2034 -0.1790 -0.1620
17127TIP3    H172872   4.837   0.661   1.527 -0.0390 -1.1828 -0.3387
17127TIP3    H272873   4.804   0.585   1.400 -1.0159  0.0121 -0.8176
17128TIP3   OH272874   5.876   0.821   5.696  0.4079  0.4411  0.4066
17128TIP3    H172875   5.929   0.800   5.772  1.4245  0.1910 -0.3498
17128TIP3    H272876   5.799   0.764   5.703  1.6268 -1.3196  0.0300
17129TIP3   OH272877   4.368   4.748   0.857 -0.3325  0.1629 -0.0361
17129TIP3    H172878   4.329   4.777   0.940  0.0179 -0.7054  0.4454
17129TIP3    H272879   4.318   4.669   0.835  1.1874 -1.0433  0.6538
17130TIP3   OH272880   3.319   0.681   4.738  0.3353  0.1469 -0.5699
17130TIP3    H172881   3.296   0.750   4.800 -1.7429 -1.3555  0.4326
17130TIP3    H272882   3.375   0.622   4.787  0.1149 -0.1542 -0.6816
17131TIP3   OH272883   0.738   1.908  10.891 -0.1229 -0.3903  0.0753
17131TIP3    H172884   0.705   1.862  10.813  0.0498  0.5486 -0.5641
17131TIP3    H272885   0.666   1.966  10.917  0.4504  0.5866 -0.4476
17132TIP3   OH272886   0.807   4.438   4.450 -0.0092 -0.4145  0.1290
17132TIP3    H172887   0.766   4.523   4.435  1.5540  0.2909 -0.4605
17132TIP3    H272888   0.887   4.458   4.498 -0.3391 -1.7318  1.2897
17133TIP3   OH272889   5.370   5.968  14.080  0.0720  0.0953  0.1440
17133TIP3    H172890   5.316   5.894  14.052  3.1754 -2.1205 -0.3793
17133TIP3    H272891   5.386   6.018  13.999 -1.6904  1.2431  0.4328
17134TIP3   OH272892   2.161   6.179   1.340  0.3644  0.7304 -0.2212
17134TIP3    H172893   2.226   6.225   1.286  1.3800  0.8592  1.0500
17134TIP3    H272894   2.148   6.095   1.295  2.6232  0.0358  0.2793
17135TIP3   OH272895   0.821   6.636  14.938 -0.5387 -0.3671  0.3841
17135TIP3    H172896   0.759   6.579  14.984 -1.0187  0.0219  0.2345
17135TIP3    H272897   0.782   6.723  14.945 -0.8269 -0.3525 -1.0983
17136TIP3   OH272898   5.762   2.997   2.164  0.1284  0.0233 -0.1951
17136TIP3    H172899   5.854   2.975   2.149 -0.1044 -1.4725  0.3100
17136TIP3    H272900   5.714   2.936   2.108 -0.5644  0.3110  0.0797
17137TIP3   OH272901   5.313   1.201   3.350 -0.2392 -0.2949 -0.6604
17137TIP3    H172902   5.279   1.268   3.291  0.4732 -0.2802 -1.0660
17137TIP3    H272903   5.277   1.225   3.436  2.3104  2.4290 -0.1604
17138TIP3   OH272904   4.433   3.157   5.311 -0.6195 -0.1157 -0.0355
17138TIP3    H172905   4.513   3.182   5.265 -0.1230  0.5164  1.1181
17138TIP3    H272906   4.400   3.239   5.349 -0.5965 -0.7080  1.3304
17139TIP3   OH272907   0.365   4.979  15.241  0.2726  0.0579 -0.0568
17139TIP3    H172908   0.360   5.069  15.275  1.5430  0.2919 -0.4434
17139TIP3    H272909   0.276   4.945  15.252 -0.3565  1.5145 -0.3298
17140TIP3   OH272910   6.620   4.216  11.240 -0.2465  0.2007  0.3739
17140TIP3    H172911   6.555   4.205  11.310 -0.7070 -1.3887 -0.2607
17140TIP3    H272912   6.704   4.193  11.281 -0.2815  0.8156  0.8033
17141TIP3   OH272913   4.032   3.942   6.310 -0.8971 -0.2863 -0.4819
17141TIP3    H172914   4.067   3.880   6.374 -0.2133 -0.0922 -0.6647
17141TIP3    H272915   4.026   4.025   6.358  0.0506 -0.0278 -0.7790
17142TIP3   OH272916   2.213   0.985  13.891  0.1180  0.0002  0.0420
17142TIP3    H172917   2.161   0.905  13.903  1.7981 -1.4556 -1.6715
17142TIP3    H272918   2.265   0.992  13.971 -0.3261 -0.3902  0.3717
17143TIP3   OH272919   3.707   0.622  12.817  0.0102  0.1114 -0.6576
17143TIP3    H172920   3.692   0.529  12.829  1.4882  0.0478  1.0370
17143TIP3    H272921   3.678   0.640  12.728 -1.2192 -1.7491 -0.6723
17144TIP3   OH272922   1.798   0.933  13.948  0.5730  0.3483 -0.0735
17144TIP3    H172923   1.787   0.869  13.878  0.4862  0.1928  0.0826
17144TIP3    H272924   1.734   1.002  13.927 -1.2204 -0.8637  1.1880
17145TIP3   OH272925   1.093   5.044  11.896 -0.3345 -0.0632 -0.3686
17145TIP3    H172926   1.043   5.111  11.942  1.5378  0.8737  0.4416
17145TIP3    H272927   1.088   4.967  11.952 -1.7589 -0.3464 -0.8580
17146TIP3   OH272928   1.289   6.472  15.819 -0.1336 -0.4323 -0.5915
17146TIP3    H172929   1.220   6.431  15.872  0.0231  0.8930  0.7067
17146TIP3    H272930   1.243   6.532  15.761 -0.2456 -1.3744 -1.5109
17147TIP3   OH272931   5.874   4.874  14.133  0.3981 -0.2853 -0.3263
17147TIP3    H172932   5.791   4.921  14.135  0.5860  0.0889 -0.9365
17147TIP3    H272933   5.881   4.843  14.042  1.2080  0.2167 -0.4424
17148TIP3   OH272934   0.275   3.841   5.166  0.1566  0.1715 -0.2712
17148TIP3    H172935   0.342   3.836   5.098 -0.1787 -1.5916 -0.5026
17148TIP3    H272936   0.323   3.830   5.248  0.0334 -2.9100 -0.5148
17149TIP3   OH272937   6.468   6.212  16.360 -0.3762  0.0240 -0.7898
17149TIP3    H172938   6.424   6.130  16.385  1.6366 -0.3503  2.0175
17149TIP3    H272939   6.425   6.279  16.412 -0.7977  0.4631 -1.6956
17150TIP3   OH272940   5.246   2.195   3.690  0.1393 -0.0234 -0.4532
17150TIP3    H172941   5.181   2.230   3.750  0.0413 -0.4185 -0.3306
17150TIP3    H272942   5.290   2.273   3.655  0.3171  0.2043  0.2567
17151TIP3   OH272943   0.031   5.767   5.518 -0.1123 -0.0783  0.0000
17151TIP3    H172944   0.054   5.846   5.469 -0.7467 -0.1338 -0.3873
17151TIP3    H272945   0.085   5.773   5.597  2.9946 -1.3145 -1.8308
17152TIP3   OH272946   3.646   2.413   1.450  0.0050  0.1988  0.3527
17152TIP3    H172947   3.611   2.473   1.515  2.9592  0.3716  1.9509
17152TIP3    H272948   3.705   2.355   1.499 -1.1706 -2.7747 -1.4322
17153TIP3   OH272949   3.030   5.573   0.955  0.0554 -0.5302 -0.0389
17153TIP3    H172950   2.999   5.652   0.999 -1.8148 -1.2160 -0.0432
17153TIP3    H272951   3.041   5.600   0.864  0.6087  0.0197  0.1814
17154TIP3   OH272952   4.736   0.679   3.246 -0.2073 -0.0056  0.5152
17154TIP3    H172953   4.741   0.602   3.189  0.9221 -0.1655  0.8116
17154TIP3    H272954   4.777   0.749   3.196 -2.8108  0.9316 -0.5047
17155TIP3   OH272955   3.904   6.659   1.629  0.2970  0.6602 -0.3938
17155TIP3    H172956   3.838   6.729   1.621  0.0773  0.5530  0.3548
17155TIP3    H272957   3.889   6.624   1.717 -0.7219 -1.4698 -1.3536
17156TIP3   OH272958   2.996   1.604   3.707  0.1325 -0.0618 -0.4625
17156TIP3    H172959   3.008   1.512   3.681 -0.5496  0.0110 -1.0755
17156TIP3    H272960   2.944   1.642   3.636 -0.0540  0.6631  0.0532
17157TIP3   OH272961   1.467   1.297   4.225  0.2643 -0.0260  0.1026
17157TIP3    H172962   1.389   1.254   4.189 -0.6426  0.3100  1.5986
17157TIP3    H272963   1.532   1.290   4.155  0.0925 -3.5167  0.1019
17158TIP3   OH272964   5.973   1.533  12.775 -0.0153 -0.1224 -0.1778
17158TIP3    H172965   5.886   1.492  12.771  0.5661 -1.4717  0.3519
17158TIP3    H272966   6.001   1.540  12.684 -1.2551  1.6548 -0.4598
17159TIP3   OH272967   2.253   0.392   3.607 -0.7802  0.6218  0.1295
17159TIP3    H172968   2.308   0.442   3.546 -0.3880  0.7410  0.5723
17159TIP3    H272969   2.201   0.335   3.551 -0.1643  0.4676 -0.3012
17160TIP3   OH272970   2.987   0.970  15.394 -0.9621 -0.4850 -0.3209
17160TIP3    H172971   3.033   0.890  15.419 -0.4625 -0.0612  0.1439
17160TIP3    H272972   3.053   1.024  15.351 -0.8469  0.3825  0.8973
17161TIP3   OH272973   1.331   1.154  14.456 -0.0707  0.3168  0.4060
17161TIP3    H172974   1.253   1.103  14.478 -0.7841  0.0960 -2.2263
17161TIP3    H272975   1.396   1.089  14.431  0.9624  0.5147  2.3889
17162TIP3   OH272976   4.659   4.493  11.575  0.0282 -0.0213  0.4493
17162TIP3    H172977   4.753   4.480  11.587 -0.1568 -2.2030  0.0057
17162TIP3    H272978   4.619   4.427  11.632 -1.1988  0.1654 -0.1697
17163TIP3   OH272979   5.835   2.230   5.696  0.3276 -0.1252  0.0716
17163TIP3    H172980   5.804   2.252   5.783 -0.5793  1.1780 -0.5498
17163TIP3    H272981   5.899   2.160   5.710 -0.2755 -0.3866  1.7063
17164TIP3   OH272982   1.821   2.901  11.816 -0.0212  0.5783 -0.0189
17164TIP3    H172983   1.729   2.875  11.821  0.6247 -1.8433  0.5535
17164TIP3    H272984   1.836   2.947  11.898  0.2031 -2.6618  1.9329
17165TIP3   OH272985   6.428   0.268  14.805 -0.1719 -0.4021 -0.0395
17165TIP3    H172986   6.354   0.279  14.746  0.4969  0.0890 -0.8235
17165TIP3    H272987   6.469   0.355  14.808  1.0348 -0.9292 -0.5578
17166TIP3   OH272988   4.666   0.446  12.122 -0.2410  0.4417 -0.0851
17166TIP3    H172989   4.594   0.386  12.099  0.7963 -0.9191  0.1217
17166TIP3    H272990   4.704   0.409  12.201  0.9685  0.9037 -0.4298
17167TIP3   OH272991   4.030   2.425  16.683 -1.4546  0.5206 -0.1575
17167TIP3    H172992   3.972   2.474  16.743 -1.6250  2.0994 -1.5389
17167TIP3    H272993   4.109   2.479  16.678 -0.8019 -0.4174 -0.1320
17168TIP3   OH272994   6.693   0.875  10.942 -0.1957  0.2106 -0.6311
17168TIP3    H172995   6.763   0.939  10.956  0.5605 -0.5068 -1.0928
17168TIP3    H272996   6.669   0.885  10.850  0.5746 -0.7889 -0.9618
17169TIP3   OH272997   1.826   0.218  13.006 -0.1621 -0.0151 -0.5598
17169TIP3    H172998   1.841   0.311  13.022  0.2360  0.0197 -1.0885
17169TIP3    H272999   1.811   0.180  13.093 -1.1373  0.6764 -0.4136
17170TIP3   OH273000   2.501   6.722  11.464  1.2894 -0.1137  0.2165
17170TIP3    H173001   2.575   6.767  11.502  1.1942  0.5674 -0.3855
17170TIP3    H273002   2.538   6.669  11.393  0.9677  2.1238 -1.7526
17171TIP3   OH273003   0.494   1.625   4.126  0.4929 -0.2635  0.4935
17171TIP3    H173004   0.430   1.671   4.072 -0.5072  0.2644  2.0313
17171TIP3    H273005   0.490   1.534   4.098  0.8224  0.1797 -1.0485
17172TIP3   OH273006   1.860   3.163   4.129  0.0537  0.1241 -0.4481
17172TIP3    H173007   1.915   3.241   4.120  1.1488 -0.1848  2.4673
17172TIP3    H273008   1.777   3.197   4.161 -0.0851  0.2182 -0.8931
17173TIP3   OH273009   1.383   2.404   1.487 -0.3420 -0.4033  0.0190
17173TIP3    H173010   1.343   2.365   1.564 -1.1627 -0.5076 -0.4543
17173TIP3    H273011   1.365   2.498   1.496  2.2280  0.0527  1.5166
17174TIP3   OH273012   3.620   6.193  14.082 -0.2531  0.7757 -0.3733
17174TIP3    H173013   3.649   6.161  13.996 -0.5051  0.4891 -0.3544
17174TIP3    H273014   3.567   6.121  14.117 -1.2539  1.4161 -0.5376
17175TIP3   OH273015   4.472   6.843   1.665 -0.2194  0.3829  0.1544
17175TIP3    H173016   4.483   6.938   1.673  1.3290  0.2414  0.0872
17175TIP3    H273017   4.388   6.824   1.706 -0.6045  1.7948  0.0593
17176TIP3   OH273018   4.846   4.552   6.639  0.4308 -0.1234  0.3909
17176TIP3    H173019   4.790   4.548   6.717  0.1366 -0.6526  0.1590
17176TIP3    H273020   4.852   4.646   6.619 -1.0332 -0.0889 -0.0278
17177TIP3   OH273021   0.944   1.976   1.304 -0.4146 -0.2315  0.8769
17177TIP3    H173022   0.957   2.015   1.217 -1.5620  0.4097  0.9735
17177TIP3    H273023   0.902   1.892   1.287  0.2788 -0.5665  0.7725
17178TIP3   OH273024   5.699   4.181   5.352  0.5073  0.1934 -0.5595
17178TIP3    H173025   5.728   4.195   5.262  2.8486 -2.4607 -0.3525
17178TIP3    H273026   5.684   4.087   5.358  2.3220 -0.0250  2.2604
17179TIP3   OH273027   1.877   0.140  13.729  0.5186 -0.0646  0.6310
17179TIP3    H173028   1.945   0.121  13.794 -1.0169 -0.8682  2.0899
17179TIP3    H273029   1.885   0.234  13.712 -0.0113  0.5385  3.2301
17180TIP3   OH273030   4.498   3.850   1.752  0.7841 -0.7688  0.3806
17180TIP3    H173031   4.512   3.837   1.658  0.4567 -2.2245  0.5013
17180TIP3    H273032   4.571   3.906   1.780 -0.8167  2.3908 -1.2725
17181TIP3   OH273033   5.637   4.697   6.066 -0.7830  0.0333  0.3498
17181TIP3    H173034   5.561   4.753   6.048 -0.8896 -0.6883 -1.6940
17181TIP3    H273035   5.599   4.612   6.088 -0.5991 -0.2187 -0.2749
17182TIP3   OH273036   3.024   0.003  13.545 -0.5205  0.1704 -0.1477
17182TIP3    H173037   3.030   0.085  13.593  0.5876 -0.1757  0.3321
17182TIP3    H273038   3.074   0.018  13.464  1.0257 -0.4925  0.6433
17183TIP3   OH273039   5.776   5.484  14.008  0.0083  0.1384 -0.0163
17183TIP3    H173040   5.685   5.483  14.038  0.1249  0.8424  0.3953
17183TIP3    H273041   5.817   5.554  14.059  1.1720 -1.1784  0.9216
17184TIP3   OH273042   5.417   2.961   2.530 -0.0184 -0.7668 -0.4451
17184TIP3    H173043   5.364   3.040   2.521  2.9458  1.4239 -0.2636
17184TIP3    H273044   5.434   2.933   2.440  2.0442  1.1816 -0.7395
17185TIP3   OH273045   4.395   1.490  14.331 -0.4737 -0.2821 -0.0136
17185TIP3    H173046   4.308   1.507  14.293  0.2079 -1.2240 -2.1288
17185TIP3    H273047   4.456   1.505  14.260  1.2935  1.6165  1.7688
17186TIP3   OH273048   6.599   5.081  11.146  0.5198  0.1953 -0.5409
17186TIP3    H173049   6.621   5.015  11.081 -0.1924 -1.2278  0.5999
17186TIP3    H273050   6.573   5.158  11.095  0.2517 -0.7845 -1.9301
17187TIP3   OH273051   2.922   6.045   0.774 -0.1332 -0.0583 -0.5828
17187TIP3    H173052   2.953   6.055   0.684  1.5259  0.9494  0.0463
17187TIP3    H273053   2.919   6.135   0.808  0.1461 -0.4937  0.6312
17188TIP3   OH273054   3.600   2.099  11.815 -0.5315 -0.3217  0.2350
17188TIP3    H173055   3.532   2.080  11.751 -2.0913  0.1255  1.6859
17188TIP3    H273056   3.669   2.142  11.765 -1.9594  0.5503 -1.0639
17189TIP3   OH273057   4.784   3.900  15.869 -0.7138 -0.4996  0.6131
17189TIP3    H173058   4.835   3.855  15.937 -0.3742 -1.4741 -0.2574
17189TIP3    H273059   4.725   3.832  15.835  0.0063 -0.3877 -0.9308
17190TIP3   OH273060   4.789   4.330   1.584  0.2966 -0.0190  1.0104
17190TIP3    H173061   4.708   4.301   1.626  0.5895 -1.2862  0.7364
17190TIP3    H273062   4.846   4.355   1.657  0.3857 -1.0917  1.3205
17191TIP3   OH273063   3.958   0.715  13.723 -0.0958 -0.4148 -0.1621
17191TIP3    H173064   3.864   0.732  13.733 -0.0636 -0.0603 -0.4416
17191TIP3    H273065   3.983   0.672  13.805 -0.5579 -0.7641 -0.1967
17192TIP3   OH273066   5.408   5.478   2.774 -0.4593 -0.3172 -0.4124
17192TIP3    H173067   5.337   5.494   2.712 -2.3078  0.3734  1.7497
17192TIP3    H273068   5.376   5.407   2.830  0.8239 -0.4134  0.2573
17193TIP3   OH273069   4.740   4.109   6.942 -0.2225  0.0214 -0.0373
17193TIP3    H173070   4.788   4.138   6.865  3.7389  0.5331  2.3043
17193TIP3    H273071   4.717   4.189   6.988  0.9390 -0.2727  1.1196
17194TIP3   OH273072   1.004   3.279   3.873  0.0196  0.4151 -0.1903
17194TIP3    H173073   1.078   3.333   3.902  1.5978 -1.5532 -0.3395
17194TIP3    H273074   1.021   3.261   3.781 -0.5473 -0.1800 -0.1895
17195TIP3   OH273075   2.203   5.896   2.587  0.5262 -0.3663 -0.6706
17195TIP3    H173076   2.141   5.950   2.539 -0.1606 -2.1095 -1.8677
17195TIP3    H273077   2.210   5.938   2.673 -1.5464  0.4622 -0.8409
17196TIP3   OH273078   5.752   4.556  14.812 -0.2750 -0.4368 -0.6845
17196TIP3    H173079   5.765   4.588  14.723  1.0925  0.1245 -0.3068
17196TIP3    H273080   5.668   4.510  14.809  0.5646 -1.9661 -2.6775
17197TIP3   OH273081   5.948   6.114   2.016 -0.5762  0.4170 -0.5071
17197TIP3    H173082   5.897   6.185   2.057  0.9903  0.1027  2.2534
17197TIP3    H273083   5.889   6.039   2.018 -0.6253  0.4514  1.1805
17198TIP3   OH273084   1.493   3.526   0.344  0.4720 -0.2302 -0.3158
17198TIP3    H173085   1.468   3.588   0.275  1.2044  1.4525  0.8835
17198TIP3    H273086   1.410   3.492   0.375 -0.0232  0.9008 -0.3368
17199TIP3   OH273087   1.843   5.506  16.771 -0.1956  0.0480 -0.2796
17199TIP3    H173088   1.895   5.528  16.849 -2.3683 -0.2411  1.3515
17199TIP3    H273089   1.853   5.582  16.714  0.5373  0.7987  0.7961
17200TIP3   OH273090   2.210   4.601   1.127 -0.9876  0.5711 -0.2693
17200TIP3    H173091   2.176   4.667   1.188  4.0528  2.0653  1.4889
17200TIP3    H273092   2.232   4.526   1.183 -0.5746  0.0740 -1.0807
17201TIP3   OH273093   2.644   1.308   3.629  0.1056 -0.2544 -0.6013
17201TIP3    H173094   2.738   1.293   3.622  0.2555  1.1968 -3.0326
17201TIP3    H273095   2.604   1.223   3.612  0.9698 -0.5124 -1.4164
17202TIP3   OH273096   1.225   6.748  12.778 -0.3069 -0.1123 -0.0208
17202TIP3    H173097   1.218   6.839  12.751 -0.4594  0.0503  0.5444
17202TIP3    H273098   1.233   6.699  12.697 -1.5019  0.2843 -0.3867
17203TIP3   OH273099   1.882   4.742  10.935  0.0530 -0.1932 -0.3057
17203TIP3    H173100   1.907   4.818  10.883  0.6556  0.0769  0.3599
17203TIP3    H273101   1.890   4.668  10.875  1.0363  0.0711 -0.5177
17204TIP3   OH273102   4.602   2.946   6.417  0.3987  0.6738  0.2280
17204TIP3    H173103   4.520   2.909   6.384 -0.5406  1.0847  2.0043
17204TIP3    H273104   4.622   2.894   6.494  1.1859  1.3405  0.4829
17205TIP3   OH273105   0.322   4.699   1.830 -0.4298 -0.7786  0.0279
17205TIP3    H173106   0.333   4.794   1.826 -1.4514 -0.5650  1.3758
17205TIP3    H273107   0.393   4.664   1.777  0.8385  0.7007  0.6701
17206TIP3   OH273108   0.389   5.179  12.316 -0.0040 -0.3348  0.5893
17206TIP3    H173109   0.389   5.245  12.247 -0.5952 -0.7150  0.2246
17206TIP3    H273110   0.425   5.225  12.393  1.2447 -0.0815 -0.1193
17207TIP3   OH273111   2.682   1.644  12.793  0.0742  0.3920 -0.3548
17207TIP3    H173112   2.649   1.555  12.778  0.5771  0.4277 -1.8478
17207TIP3    H273113   2.777   1.635  12.791  0.2343  0.5199  2.4937
17208TIP3   OH273114   4.092   1.834   6.287  0.1399  0.9709  0.0907
17208TIP3    H173115   4.055   1.754   6.323 -0.0839  1.5132  1.1088
17208TIP3    H273116   4.018   1.880   6.247  0.1043  1.0663  0.2644
17209TIP3   OH273117   5.707   2.399  13.007 -0.2208 -0.1232  0.6057
17209TIP3    H173118   5.785   2.454  13.001  0.4835 -0.9219  1.9900
17209TIP3    H273119   5.725   2.324  12.949  0.8642 -1.2201  2.2928
17210TIP3   OH273120   1.838   2.498  11.245 -0.3593  0.0885 -0.2013
17210TIP3    H173121   1.859   2.541  11.328  0.1884  0.8131 -0.6998
17210TIP3    H273122   1.821   2.406  11.269 -0.1287  0.2685  0.6935
17211TIP3   OH273123   2.122   5.257  16.943  0.6245  0.0897  0.0177
17211TIP3    H173124   2.090   5.212  17.021  2.3233 -0.7600  0.2793
17211TIP3    H273125   2.075   5.340  16.942  1.7647  0.9144  2.9822
17212TIP3   OH273126   3.913   6.336  11.791 -0.2874  0.5234 -0.1129
17212TIP3    H173127   3.821   6.313  11.798 -0.1379  0.2864  1.3692
17212TIP3    H273128   3.932   6.388  11.869  1.2877 -1.1419  0.7173
17213TIP3   OH273129   2.632   5.233   5.415 -0.2447 -0.2875  0.1075
17213TIP3    H173130   2.622   5.301   5.348 -0.2547 -0.6420 -0.2486
17213TIP3    H273131   2.655   5.282   5.494  0.1107  0.1041 -0.2332
17214TIP3   OH273132   6.717   3.555   3.311 -0.5162  0.0917  0.6851
17214TIP3    H173133   6.733   3.565   3.217  1.0177  0.7710  0.9854
17214TIP3    H273134   6.652   3.485   3.317  0.2741 -0.8333 -0.8320
17215TIP3   OH273135   3.430   4.454  14.745  0.3847  0.3453 -0.0246
17215TIP3    H173136   3.428   4.544  14.714 -0.9182 -0.2990 -2.0688
17215TIP3    H273137   3.348   4.444  14.793 -0.3057 -0.1630 -1.2568
17216TIP3   OH273138   5.253   3.100  15.974  0.1824 -0.5051  0.2662
17216TIP3    H173139   5.165   3.083  15.941 -0.7499 -0.4019  2.5336
17216TIP3    H273140   5.307   3.030  15.936 -1.0137 -0.9864 -0.5962
17217TIP3   OH273141   0.516   0.905   1.101  0.0447  0.3334 -0.0703
17217TIP3    H173142   0.576   0.971   1.066 -0.4360 -0.8363 -3.4348
17217TIP3    H273143   0.572   0.845   1.150  1.6146 -0.2501 -2.4119
17218TIP3   OH273144   0.927   3.001  12.865 -0.3450 -0.0520  0.2095
17218TIP3    H173145   0.906   2.916  12.826 -0.2317 -0.1109  0.2747
17218TIP3    H273146   0.845   3.033  12.901 -0.3151 -0.2922  0.4904
17219TIP3   OH273147   2.869   4.875   0.821  0.5124  0.6162 -0.2627
17219TIP3    H173148   2.775   4.887   0.835  0.6608  1.8509 -0.2755
17219TIP3    H273149   2.882   4.895   0.729  0.5032 -1.5110 -0.7743
17220TIP3   OH273150   1.367   1.137  13.722 -0.0257  0.5008 -0.4110
17220TIP3    H173151   1.368   1.232  13.709  4.3225  0.7861  0.5434
17220TIP3    H273152   1.448   1.118  13.769 -2.2779 -3.3953  2.4612
17221TIP3   OH273153   1.987   2.272  16.087  0.3571  0.3977  0.0041
17221TIP3    H173154   1.993   2.261  16.182  0.7400  1.6130  0.1292
17221TIP3    H273155   1.905   2.318  16.073  0.8821  1.3117 -0.1432
17222TIP3   OH273156   0.849   1.527  13.873 -0.5073 -0.3670 -0.3240
17222TIP3    H173157   0.855   1.512  13.968 -0.3223  3.2438  0.3788
17222TIP3    H273158   0.936   1.558  13.848 -0.5975 -1.1291 -1.7004
17223TIP3   OH273159   2.275   3.002  14.220 -0.4860 -0.5386 -0.2273
17223TIP3    H173160   2.234   2.950  14.289  0.3534 -0.5108  0.3053
17223TIP3    H273161   2.369   2.988  14.232 -0.2842  0.3849 -0.6374
17224TIP3   OH273162   6.164   4.600   5.225 -0.4118  0.0269  0.4334
17224TIP3    H173163   6.104   4.674   5.224 -0.5752 -0.1044  0.3924
17224TIP3    H273164   6.220   4.615   5.301 -0.5383  0.1154  0.5087
17225TIP3   OH273165   5.319   1.002  10.377  0.5934 -0.0026  0.1565
17225TIP3    H173166   5.272   0.984  10.295 -0.3750  0.0757  0.6699
17225TIP3    H273167   5.328   0.916  10.418 -1.7679  0.2842  1.4254
17226TIP3   OH273168   2.097   0.197  13.938 -0.2286 -0.0323  0.7710
17226TIP3    H173169   2.096   0.129  14.006 -0.6626  1.3437  2.2118
17226TIP3    H273170   2.129   0.275  13.984 -0.5378  0.9487 -0.6313
17227TIP3   OH273171   1.837   1.381  16.631  0.1921  0.3078 -0.3000
17227TIP3    H173172   1.850   1.393  16.725 -0.3062  3.1818 -0.5186
17227TIP3    H273173   1.925   1.382  16.594  0.3617 -0.3953  0.0525
17228TIP3   OH273174   0.458   3.160   2.034 -0.1578 -0.3046  0.4976
17228TIP3    H173175   0.434   3.113   2.113  0.4600  1.4146  1.7528
17228TIP3    H273176   0.389   3.225   2.022 -0.6261 -1.0099 -0.8044
17229TIP3   OH273177   1.366   4.410  17.083  0.4224  0.6417 -0.3874
17229TIP3    H173178   1.284   4.428  17.128  0.1170 -0.5221 -0.4281
17229TIP3    H273179   1.401   4.496  17.060  0.8589  1.3364  2.5125
17230TIP3   OH273180   2.478   1.695   4.333  0.0856 -0.3077  0.0239
17230TIP3    H173181   2.439   1.738   4.257 -0.2237 -0.3195  0.1770
17230TIP3    H273182   2.513   1.612   4.300  0.7572  0.0886 -0.2929
17231TIP3   OH273183   2.801   5.697  15.714  0.7705 -0.4790  0.8982
17231TIP3    H173184   2.824   5.715  15.623  0.8511 -1.0784  0.7989
17231TIP3    H273185   2.721   5.747  15.729 -0.9397 -2.7056 -0.3898
17232TIP3   OH273186   1.378   2.722  12.691 -0.2496 -0.2453 -0.1863
17232TIP3    H173187   1.318   2.755  12.759  0.1896 -2.6082  1.4979
17232TIP3    H273188   1.320   2.685  12.624 -0.7532 -1.4508  0.8653
17233TIP3   OH273189   5.483   2.590   5.294  0.3933  0.3163  0.3327
17233TIP3    H173190   5.513   2.607   5.205 -1.6548 -0.1292 -0.5016
17233TIP3    H273191   5.433   2.668   5.318  0.8589  0.3989  1.0791
17234TIP3   OH273192   0.754   3.612   2.320 -0.0297 -0.3011 -0.2900
17234TIP3    H173193   0.774   3.522   2.297  1.6173  0.2711 -1.2782
17234TIP3    H273194   0.773   3.662   2.240 -1.0866  0.8996  0.1722
17235TIP3   OH273195   3.366   4.911  12.917  0.4046 -0.4307  0.4808
17235TIP3    H173196   3.398   4.856  12.988  0.6942 -2.3501 -1.0368
17235TIP3    H273197   3.445   4.951  12.880  0.1927  1.0845  1.5927
17236TIP3   OH273198   4.813   1.373  15.113  0.1795 -0.0272  0.0474
17236TIP3    H173199   4.806   1.383  15.018 -1.0387 -2.5685 -0.2044
17236TIP3    H273200   4.877   1.439  15.139 -0.2513  1.4659 -2.3704
17237TIP3   OH273201   2.793   4.224   3.312 -0.5991  1.0928 -0.1526
17237TIP3    H173202   2.709   4.184   3.338 -0.5824 -0.0285 -1.6147
17237TIP3    H273203   2.817   4.176   3.232  0.9438  2.0858 -0.3143
17238TIP3   OH273204   3.115   4.755  15.237 -0.3000 -0.5520  0.5059
17238TIP3    H173205   3.049   4.802  15.186 -1.2577 -1.1077  1.1913
17238TIP3    H273206   3.128   4.809  15.315  1.2111  0.3303 -0.3057
17239TIP3   OH273207   0.173   3.825   1.086 -0.2995  0.4054 -0.1748
17239TIP3    H173208   0.257   3.863   1.114 -0.0992 -0.5974  0.6152
17239TIP3    H273209   0.188   3.731   1.086 -1.0628  0.2630 -1.2607
17240TIP3   OH273210   6.745   1.229  13.021 -0.7357  1.1996 -0.1228
17240TIP3    H173211   6.763   1.318  13.052  0.1018  0.9627  0.0901
17240TIP3    H273212   6.719   1.182  13.100  2.5752  0.2795  0.5672
17241TIP3   OH273213   4.462   4.702  13.103  0.6292 -0.0121  0.2575
17241TIP3    H173214   4.513   4.622  13.088  1.2294  0.1744  1.2289
17241TIP3    H273215   4.384   4.690  13.049  2.5016  0.5487 -2.8160
17242TIP3   OH273216   2.233   0.799  14.175 -0.0289  0.7602 -0.2483
17242TIP3    H173217   2.260   0.780  14.085  1.0120  2.0391 -0.2265
17242TIP3    H273218   2.142   0.768  14.179  0.3041 -0.4308 -1.3651
17243TIP3   OH273219   2.732   1.709  14.702 -0.0119  0.2683 -0.0702
17243TIP3    H173220   2.668   1.681  14.636 -1.3370  0.4369  1.1039
17243TIP3    H273221   2.789   1.633  14.714 -1.0070 -0.4798  0.0487
17244TIP3   OH273222   6.853   1.516   3.356  0.1659 -0.0493 -0.0006
17244TIP3    H173223   6.844   1.611   3.352 -0.5596 -0.0062  1.8884
17244TIP3    H273224   6.786   1.483   3.295  0.7983  0.6248 -1.0936
17245TIP3   OH273225   1.444   5.331   4.411 -0.3622  0.4404 -0.3694
17245TIP3    H173226   1.505   5.310   4.341  0.8713  1.5964  0.3038
17245TIP3    H273227   1.368   5.369   4.367  0.1393  0.5779 -1.1332
17246TIP3   OH273228   2.337   2.146  11.396  0.1738  0.2040  0.0487
17246TIP3    H173229   2.356   2.053  11.387  0.7643  0.2137  1.1034
17246TIP3    H273230   2.241   2.151  11.397  0.1238 -0.2642 -1.1234
17247TIP3   OH273231   2.396   4.316  13.273  0.3473  0.0323 -0.1426
17247TIP3    H173232   2.414   4.407  13.249  0.1802 -0.0248 -0.4898
17247TIP3    H273233   2.300   4.310  13.276  0.1379 -0.9414 -3.4846
17248TIP3   OH273234   0.555   1.510   0.759 -0.0433 -0.0500 -0.3798
17248TIP3    H173235   0.496   1.438   0.782 -0.3594  0.1161 -0.6634
17248TIP3    H273236   0.568   1.557   0.841 -2.3942  1.4457 -0.7781
17249TIP3   OH273237   0.296   2.040  17.121  0.2657 -0.4445 -0.0011
17249TIP3    H173238   0.341   1.978  17.064  0.6433 -0.3520  0.1896
17249TIP3    H273239   0.357   2.114  17.128 -0.0438 -0.1937  0.0269
17250TIP3   OH273240   1.953   2.920   4.102  0.3422  0.6756  0.4223
17250TIP3    H173241   1.922   3.009   4.118  2.0028  1.5597 -0.9447
17250TIP3    H273242   1.887   2.882   4.043  0.7344  1.8205 -0.8159
17251TIP3   OH273243   6.325   0.016   2.144  0.6202  0.0414  0.4553
17251TIP3    H173244   6.361  -0.067   2.174  3.5900  0.7655 -0.7555
17251TIP3    H273245   6.232  -0.002   2.129  1.2561 -3.2385 -0.3574
17252TIP3   OH273246   1.489   5.821  12.823  0.0375  0.6127 -0.4514
17252TIP3    H173247   1.423   5.883  12.793 -1.3193 -0.5489  0.0063
17252TIP3    H273248   1.505   5.765  12.747 -2.9902 -1.9821  0.6212
17253TIP3   OH273249   6.602   2.199   2.681 -0.5262  0.0085  0.1505
17253TIP3    H173250   6.675   2.209   2.621 -0.3676  0.8550  0.4681
17253TIP3    H273251   6.549   2.129   2.643 -0.2175  0.2529 -0.7497
17254TIP3   OH273252   6.344   3.636  12.038  0.1031  0.4833 -0.0859
17254TIP3    H173253   6.277   3.655  12.104  0.2471  1.8881 -0.3138
17254TIP3    H273254   6.295   3.624  11.957  0.0408  0.3363 -0.0263
17255TIP3   OH273255   0.824   1.101   9.964  0.2318 -0.1983 -0.8737
17255TIP3    H173256   0.869   1.028  10.009 -0.0766  0.9590  1.4805
17255TIP3    H273257   0.733   1.073   9.960 -0.0404  0.3344  0.7860
17256TIP3   OH273258   0.232   1.074   0.344 -0.0706 -0.3135 -0.2933
17256TIP3    H173259   0.206   0.985   0.320 -2.4524  0.3043 -0.2106
17256TIP3    H273260   0.247   1.118   0.261  1.5278 -0.8682 -0.3273
17257TIP3   OH273261   1.598   4.124  16.143  0.1652 -0.1719  0.2463
17257TIP3    H173262   1.529   4.157  16.085  0.1918  0.3959  0.5345
17257TIP3    H273263   1.679   4.158  16.106  0.4728 -2.0039 -0.9342
17258TIP3   OH273264   3.489   5.192  15.373  0.6592 -0.1826 -1.2487
17258TIP3    H173265   3.569   5.220  15.417  0.7545 -0.8910 -0.9509
17258TIP3    H273266   3.488   5.096  15.384  0.3005 -0.2915 -2.1267
17259TIP3   OH273267   0.129   1.275  16.676  1.0369 -0.0158  0.1541
17259TIP3    H173268   0.091   1.190  16.698 -1.2217  0.7649 -0.4703
17259TIP3    H273269   0.143   1.271  16.582  4.7416 -1.0589  0.5929
17260TIP3   OH273270   4.514   2.082   3.780 -0.8765  0.5257 -0.3728
17260TIP3    H173271   4.587   2.030   3.814 -1.1111 -0.6661 -1.5955
17260TIP3    H273272   4.506   2.155   3.841  2.2354  1.4804 -0.8979
17261TIP3   OH273273   0.296   3.563  14.028  0.2773 -0.4559 -0.8921
17261TIP3    H173274   0.379   3.575  13.981 -0.1540 -0.1208 -1.5829
17261TIP3    H273275   0.283   3.469  14.030  1.2036 -0.5836  0.1644
17262TIP3   OH273276   1.863   4.224  17.045 -0.2250  0.3842 -0.2090
17262TIP3    H173277   1.889   4.209  17.136  0.9524 -0.7336 -0.6969
17262TIP3    H273278   1.873   4.318  17.033  2.3192  0.2314  0.0884
17263TIP3   OH273279   6.051   6.301   5.542 -0.3256 -0.4522  0.5296
17263TIP3    H173280   6.111   6.338   5.607  0.5431  0.0306 -0.5135
17263TIP3    H273281   6.021   6.377   5.491 -1.0455 -0.8161  0.4023
17264TIP3   OH273282   2.684   0.903   1.153  0.2872 -0.5836 -0.2270
17264TIP3    H173283   2.612   0.887   1.214  0.2299 -0.4420 -0.2572
17264TIP3    H273284   2.733   0.975   1.192  1.4298 -1.8004  0.6951
17265TIP3   OH273285   3.968   5.134   5.388  0.2994  0.3143  0.2203
17265TIP3    H173286   3.983   5.060   5.446 -0.7874 -0.4090 -0.4053
17265TIP3    H273287   3.925   5.097   5.311 -0.2837  1.5861 -0.0969
17266TIP3   OH273288   5.332   4.669   1.426  0.1185 -0.1678 -0.0308
17266TIP3    H173289   5.343   4.711   1.341 -0.5000  3.5246  1.5314
17266TIP3    H273290   5.410   4.696   1.475 -0.6681 -0.2346  1.2869
17267TIP3   OH273291   1.146   2.982  12.644  0.4367  0.2355 -0.3502
17267TIP3    H173292   1.080   2.916  12.667  0.9240  0.5596  2.2281
17267TIP3    H273293   1.158   2.971  12.550 -2.2067 -0.8236 -0.6548
17268TIP3   OH273294   2.425   5.788  14.294  0.6160  0.5370 -0.4276
17268TIP3    H173295   2.455   5.823  14.210  1.2616 -0.6514 -0.7133
17268TIP3    H273296   2.456   5.852  14.359  0.8073  1.0574 -1.0230
17269TIP3   OH273297   1.071   4.002  14.486 -0.6281 -0.2959  0.4413
17269TIP3    H173298   1.070   3.919  14.439 -0.8983 -0.5103  0.8110
17269TIP3    H273299   1.045   3.979  14.576 -1.7215  0.3239  0.3048
17270TIP3   OH273300   6.809   2.682   2.707  0.3034 -0.0314  0.3553
17270TIP3    H173301   6.766   2.767   2.711  0.8397  0.3814 -1.7806
17270TIP3    H273302   6.737   2.619   2.705 -0.0977  0.2645  2.6693
17271TIP3   OH273303   4.820   3.065  12.736 -0.2595  0.2546  0.4590
17271TIP3    H173304   4.848   3.106  12.818  0.5025  1.1540 -0.2220
17271TIP3    H273305   4.843   3.129  12.668 -1.2201 -0.3027 -0.4298
17272TIP3   OH273306   2.153   5.392   4.803 -0.1736  0.0692  0.2812
17272TIP3    H173307   2.124   5.402   4.712 -0.2832 -1.1552  0.1740
17272TIP3    H273308   2.191   5.304   4.807  3.2079  1.3645  0.4889
17273TIP3   OH273309   4.565   6.212   4.550 -0.5406  0.3466 -0.0897
17273TIP3    H173310   4.483   6.165   4.568  0.1020 -0.3386  1.2194
17273TIP3    H273311   4.546   6.303   4.574 -1.0823  0.3018 -0.3345
17274TIP3   OH273312   1.556   1.729  15.434 -0.2808  0.1659 -0.6658
17274TIP3    H173313   1.627   1.727  15.369 -0.3379  0.2401 -0.7306
17274TIP3    H273314   1.478   1.748  15.383 -0.8603 -2.7419 -1.0553
17275TIP3   OH273315   2.057   6.849  14.953 -0.1198 -0.2700  0.4922
17275TIP3    H173316   1.963   6.837  14.958 -0.4350 -0.7885 -3.3867
17275TIP3    H273317   2.088   6.773  14.904  2.1867  0.3723  0.8275
17276TIP3   OH273318   5.662   5.422  16.782 -0.2365  0.2366 -0.1399
17276TIP3    H173319   5.615   5.505  16.768 -0.2869 -0.1618 -2.8635
17276TIP3    H273320   5.594   5.361  16.810 -0.3898  0.8562  0.8753
17277TIP3   OH273321   4.007   3.821  11.686  0.5475 -0.4767  0.6284
17277TIP3    H173322   4.050   3.901  11.657  0.7827 -0.9804 -0.4701
17277TIP3    H273323   3.990   3.835  11.779  0.2958  0.9685  0.3846
17278TIP3   OH273324   4.650   6.330   1.244 -0.0533  0.7741 -0.1374
17278TIP3    H173325   4.707   6.255   1.224 -1.3806 -0.6826  1.1960
17278TIP3    H273326   4.711   6.401   1.264  1.2679  0.6073 -3.0388
17279TIP3   OH273327   4.568   6.207  13.595  0.4254 -0.0655  0.8099
17279TIP3    H173328   4.551   6.279  13.534  0.6560 -1.5813 -1.1710
17279TIP3    H273329   4.662   6.213  13.612  0.5225 -0.1182  0.3187
17280TIP3   OH273330   5.341   4.197   3.577 -0.3044  0.0565 -0.2807
17280TIP3    H173331   5.419   4.170   3.530 -0.3405  1.1028 -0.9790
17280TIP3    H273332   5.334   4.136   3.651 -0.0697 -1.4067 -1.4358
17281TIP3   OH273333   2.426   5.066   2.459 -0.4621 -0.0345 -0.5909
17281TIP3    H173334   2.378   5.000   2.408  1.1439 -1.6148 -0.1570
17281TIP3    H273335   2.370   5.083   2.534 -0.4927 -1.6784 -0.2075
17282TIP3   OH273336   2.163   0.351  16.046  0.4814  0.0750 -0.2364
17282TIP3    H173337   2.113   0.283  16.001 -3.3368  1.6566  1.2039
17282TIP3    H273338   2.186   0.311  16.131 -0.3694  0.0584 -0.0103
17283TIP3   OH273339   4.013   6.188  14.470  0.2723 -0.2521  0.2176
17283TIP3    H173340   3.920   6.199  14.493  0.0701 -1.1813 -0.0977
17283TIP3    H273341   4.038   6.107  14.513  1.2961  0.6136  1.3074
17284TIP3   OH273342   4.013   2.219  16.518 -0.6155 -0.3155 -0.0213
17284TIP3    H173343   4.030   2.280  16.590  0.5047 -1.2500  0.5563
17284TIP3    H273344   4.012   2.274  16.439  0.5603  0.4369  0.4576
17285TIP3   OH273345   1.587   2.002   0.620 -0.0912 -0.2837  0.4149
17285TIP3    H173346   1.628   1.916   0.607  0.1050 -0.0428 -0.6762
17285TIP3    H273347   1.493   1.986   0.612 -0.2626 -0.8080  2.7457
17286TIP3   OH273348   0.110   4.507  12.175 -0.5165 -0.3248  0.4877
17286TIP3    H173349   0.067   4.592  12.159  1.3682  0.1648 -3.0505
17286TIP3    H273350   0.184   4.528  12.232 -0.4166  0.3235  0.1361
17287TIP3   OH273351   3.455   4.205   2.906 -0.2687  0.1535  0.8245
17287TIP3    H173352   3.463   4.110   2.915 -0.3649  0.1485  0.8629
17287TIP3    H273353   3.497   4.225   2.823 -1.7201 -0.1278  0.0003
17288TIP3   OH273354   1.857   5.361   4.556 -0.5643  0.0706 -0.3036
17288TIP3    H173355   1.850   5.452   4.529 -1.5378  0.5803  1.5036
17288TIP3    H273356   1.767   5.333   4.571 -0.2744 -1.1733 -0.7291
17289TIP3   OH273357   0.363   1.242  11.221  0.1001 -0.3684 -0.5523
17289TIP3    H173358   0.412   1.322  11.241  1.1087 -0.9310 -0.7150
17289TIP3    H273359   0.403   1.175  11.276 -0.8419 -0.7434 -0.3032
17290TIP3   OH273360   3.662   2.980  11.759 -0.0945 -0.2695 -0.2032
17290TIP3    H173361   3.723   3.044  11.722  0.0335  1.2792  2.4171
17290TIP3    H273362   3.672   2.990  11.853 -4.8115  0.5630  0.4634
17291TIP3   OH273363   3.649   3.608  15.322  0.4108  0.4230  0.2533
17291TIP3    H173364   3.739   3.638  15.307  0.9606 -0.6449  1.2351
17291TIP3    H273365   3.635   3.541  15.254  0.0858  1.0948 -0.3537
17292TIP3   OH273366   2.868   6.307   5.471 -0.2012  0.3025 -1.1475
17292TIP3    H173367   2.810   6.379   5.497  0.5297  0.6632 -0.4764
17292TIP3    H273368   2.848   6.237   5.533  1.3488  1.0683  0.3062
17293TIP3   OH273369   1.641   4.370  10.885  0.1050 -0.4644 -0.0620
17293TIP3    H173370   1.729   4.337  10.865 -0.0797 -0.4012 -1.0443
17293TIP3    H273371   1.618   4.424  10.809  0.1495  1.4392  1.2162
17294TIP3   OH273372   3.847   4.483   4.233 -0.6373  0.4108 -0.1318
17294TIP3    H173373   3.788   4.408   4.219 -0.0625  0.0224 -0.4756
17294TIP3    H273374   3.920   4.467   4.175 -0.0119  0.7111  0.5603
17295TIP3   OH273375   0.979   6.084   1.389  0.1524  0.0851 -0.6362
17295TIP3    H173376   1.039   6.132   1.333 -0.4098 -0.6861 -1.9600
17295TIP3    H273377   0.958   6.005   1.339 -1.2152 -0.1130  0.1941
17296TIP3   OH273378   4.792   2.639  14.289 -0.3727  0.2665 -0.0065
17296TIP3    H173379   4.715   2.621  14.343  0.2078 -0.2068  0.6851
17296TIP3    H273380   4.806   2.559  14.239  0.6759 -0.3195  1.1545
17297TIP3   OH273381   0.757   2.882  14.764 -0.0821 -0.0127  0.3654
17297TIP3    H173382   0.755   2.850  14.854 -2.4865  0.6233  0.6129
17297TIP3    H273383   0.734   2.806  14.711 -1.1572  0.1637  0.5473
17298TIP3   OH273384   2.398   3.559   5.017 -0.2645  0.6604 -0.0772
17298TIP3    H173385   2.340   3.567   5.093 -1.1327 -1.3420 -0.4420
17298TIP3    H273386   2.444   3.476   5.031  2.1165  1.9139 -0.1095
17299TIP3   OH273387   1.806   1.553  11.465  0.0177  0.2380  0.0396
17299TIP3    H173388   1.897   1.544  11.494 -0.0937  0.6999  0.5389
17299TIP3    H273389   1.798   1.644  11.436 -0.8768  0.8888  2.1540
17300TIP3   OH273390   3.427   6.166  13.202 -0.4842 -0.2400 -0.5323
17300TIP3    H173391   3.454   6.245  13.251  1.3415 -2.1909  1.8775
17300TIP3    H273392   3.494   6.156  13.135  1.7443 -1.8189  1.7303
17301TIP3   OH273393   1.100   6.726   0.866  0.0763 -0.1802  0.4509
17301TIP3    H173394   1.028   6.747   0.807  0.5872  0.7673  0.1443
17301TIP3    H273395   1.074   6.644   0.908 -0.1692 -1.0308 -1.2917
17302TIP3   OH273396   1.614   2.128  11.765 -0.1064 -0.1344 -0.6670
17302TIP3    H173397   1.652   2.212  11.790  0.9035 -1.2597  1.9899
17302TIP3    H273398   1.529   2.149  11.729  0.8705  2.1310 -1.8198
17303TIP3   OH273399   2.654   6.831   2.436  0.4277 -0.4275  0.5076
17303TIP3    H173400   2.711   6.771   2.484  1.3248 -0.3214 -0.3893
17303TIP3    H273401   2.694   6.917   2.448  0.8255 -0.4395 -0.6387
17304TIP3   OH273402   1.976   0.858   0.733  0.1225  0.1738  0.3117
17304TIP3    H173403   1.920   0.811   0.795 -0.0309 -0.2332 -0.1287
17304TIP3    H273404   2.055   0.803   0.725  1.4184  1.6265  2.3102
17305TIP3   OH273405   2.332   3.101   5.808 -0.1910  0.1560 -0.0651
17305TIP3    H173406   2.320   3.015   5.850  1.4426  0.1155  0.3608
17305TIP3    H273407   2.415   3.133   5.842 -0.1241  1.3205 -1.2702
17306TIP3   OH273408   3.371   5.638  12.400  0.2731 -0.1857 -0.4421
17306TIP3    H173409   3.326   5.554  12.393  0.2463 -0.1840 -0.2752
17306TIP3    H273410   3.464   5.615  12.400  0.2556 -0.3313  1.1704
17307TIP3   OH273411   6.657   1.809  11.812  0.5048 -0.2242  0.0218
17307TIP3    H173412   6.602   1.730  11.819 -2.4828  1.7093  0.2563
17307TIP3    H273413   6.670   1.837  11.903 -0.8223  1.0071 -0.1396
17308TIP3   OH273414   3.758   2.863   5.715  0.1607 -0.2495  0.0403
17308TIP3    H173415   3.737   2.845   5.806 -1.7539  1.1722 -0.0692
17308TIP3    H273416   3.741   2.781   5.669 -1.6631 -0.1843  0.5479
17309TIP3   OH273417   4.456   4.412   3.698 -0.2235  0.1269 -0.3160
17309TIP3    H173418   4.546   4.432   3.721 -0.7426  0.2293  1.7938
17309TIP3    H273419   4.419   4.496   3.671 -0.2470  0.5246  0.8978
17310TIP3   OH273420   2.173   4.607   2.049  0.3254 -0.2059 -0.0827
17310TIP3    H173421   2.181   4.610   2.144  1.8489 -1.3167 -0.1362
17310TIP3    H273422   2.085   4.573   2.033  0.6591 -1.6384  0.9629
17311TIP3   OH273423   4.621   6.083  14.712 -0.1313 -0.2940 -0.7596
17311TIP3    H173424   4.611   6.132  14.794 -0.8754 -0.0438 -0.9897
17311TIP3    H273425   4.532   6.070  14.681  0.1708  0.5877 -2.0952
17312TIP3   OH273426   5.172   5.660   1.293  1.0309  0.1390  0.2013
17312TIP3    H173427   5.134   5.747   1.277  1.4706  0.1571 -0.8611
17312TIP3    H273428   5.105   5.614   1.344 -0.1274  0.4141 -1.0056
17313TIP3   OH273429   6.516   6.455   5.059  0.2762 -0.2371 -0.0156
17313TIP3    H173430   6.486   6.504   4.982  0.9997 -1.6528 -1.2575
17313TIP3    H273431   6.527   6.522   5.127  1.8122  1.4663 -1.7938
17314TIP3   OH273432   0.007   6.497   4.129 -1.2091  0.3660 -0.2955
17314TIP3    H173433   0.077   6.492   4.194 -0.2536 -1.5041 -1.3567
17314TIP3    H273434   0.004   6.589   4.103  2.0593  0.2840 -1.4094
17315TIP3   OH273435   0.242   0.690  13.037  0.5017  0.1432  0.2088
17315TIP3    H173436   0.333   0.676  13.063  0.6859  1.2943  0.2644
17315TIP3    H273437   0.192   0.627  13.089  1.0149  1.3064  2.2291
17316TIP3   OH273438   1.515   3.562  13.899 -0.1933 -0.2787 -0.2443
17316TIP3    H173439   1.564   3.490  13.861 -1.5797 -1.0602 -0.6022
17316TIP3    H273440   1.536   3.637  13.844  0.8741 -0.5103 -0.1664
17317TIP3   OH273441   3.789   0.936   0.626 -0.3155  0.1140 -0.1455
17317TIP3    H173442   3.697   0.946   0.648 -0.5974 -1.7886 -0.2201
17317TIP3    H273443   3.833   0.923   0.710  0.0569  1.8668 -0.0319
17318TIP3   OH273444   5.557   1.126  17.048  0.2900 -0.1304  0.4832
17318TIP3    H173445   5.482   1.148  16.994  0.1400 -0.6631  0.4765
17318TIP3    H273446   5.544   1.034  17.072  2.2637 -1.0704 -1.7010
17319TIP3   OH273447   4.080   3.337  13.981  0.1216  0.3752  0.0689
17319TIP3    H173448   4.118   3.411  14.029 -0.9597  0.6686  0.5004
17319TIP3    H273449   4.014   3.377  13.924 -1.7112 -0.3820  1.5626
17320TIP3   OH273450   1.349   0.605   2.820  0.1228 -0.4178  0.1424
17320TIP3    H173451   1.346   0.513   2.794 -0.0889 -0.6707  1.0174
17320TIP3    H273452   1.400   0.605   2.901  2.0471  0.5271 -0.9913
17321TIP3   OH273453   5.905   4.154  15.514 -0.2913 -0.2307 -0.3848
17321TIP3    H173454   5.936   4.072  15.475  0.5880  0.2007 -0.6301
17321TIP3    H273455   5.931   4.149  15.605  0.1516 -0.0492 -0.4968
17322TIP3   OH273456   5.165   5.265   3.354  0.0593 -0.2877 -0.3068
17322TIP3    H173457   5.142   5.224   3.436  2.4174 -1.9253 -0.3672
17322TIP3    H273458   5.240   5.214   3.321 -0.0624  1.0099 -2.8858
17323TIP3   OH273459   4.468   5.240   0.020 -0.3456  1.0125  0.3819
17323TIP3    H173460   4.559   5.216   0.038  0.1237  0.1728 -2.4867
17323TIP3    H273461   4.475   5.319  -0.034 -0.9823 -0.7712 -2.5806
17324TIP3   OH273462   3.578   2.535  15.945  0.4951  0.3486 -0.0560
17324TIP3    H173463   3.525   2.577  15.877  1.1048  0.9555 -0.1658
17324TIP3    H273464   3.623   2.608  15.989  0.6746 -0.0982  0.5160
17325TIP3   OH273465   2.354   2.052  13.285  0.7025 -0.1219  0.1618
17325TIP3    H173466   2.308   2.105  13.350  1.0251  0.0356  0.2640
17325TIP3    H273467   2.291   1.984  13.260 -0.7343  1.8162 -1.9401
17326TIP3   OH273468   0.242   2.120  14.821  0.3544  0.4122  0.3465
17326TIP3    H173469   0.286   2.035  14.810  1.9795  1.1898  0.6206
17326TIP3    H273470   0.194   2.112  14.903 -2.6749 -1.5179 -1.3879
17327TIP3   OH273471   2.928   2.126  10.916 -0.4196 -0.1291 -0.2439
17327TIP3    H173472   2.894   2.142  10.828  0.9100 -0.0094 -0.7668
17327TIP3    H273473   2.859   2.155  10.975 -1.6019 -0.8160 -1.2521
17328TIP3   OH273474   1.405   0.269  15.743  0.0878 -0.2401  0.0275
17328TIP3    H173475   1.342   0.238  15.678  0.7117  0.8687 -1.1671
17328TIP3    H273476   1.352   0.299  15.816 -0.7050 -0.4817 -0.4386
17329TIP3   OH273477   4.263   3.760   6.376 -0.1016  0.8345  0.5914
17329TIP3    H173478   4.260   3.838   6.431  0.0686 -0.5806  2.7128
17329TIP3    H273479   4.345   3.717   6.399 -0.6065 -0.4260  0.1278
17330TIP3   OH273480   4.886   1.255   3.681 -0.1051  0.4017  0.0467
17330TIP3    H173481   4.932   1.253   3.765  1.4494  0.9351 -0.7564
17330TIP3    H273482   4.845   1.168   3.674 -1.1259  0.6982  1.7893
17331TIP3   OH273483   1.745   1.221   0.283 -0.2447  0.2579  0.7920
17331TIP3    H173484   1.725   1.128   0.292 -0.1384  0.3268  1.9840
17331TIP3    H273485   1.836   1.229   0.311 -0.1566  0.6797  0.4033
17332TIP3   OH273486   4.433   6.790  13.728 -0.1160  0.1262 -0.1071
17332TIP3    H173487   4.436   6.886  13.729  2.4335  0.1150 -0.4786
17332TIP3    H273488   4.398   6.767  13.814  0.6723  1.3742  0.5801
17333TIP3   OH273489   4.774   5.775  13.447  0.1398  0.6227 -0.0357
17333TIP3    H173490   4.702   5.718  13.420  0.9301 -0.8351  0.8020
17333TIP3    H273491   4.764   5.781  13.542  1.2475  0.1847  0.1255
17334TIP3   OH273492   6.534   3.852  13.425  0.0095  0.0806 -0.3768
17334TIP3    H173493   6.513   3.793  13.498  1.4942  0.1957  0.1766
17334TIP3    H273494   6.449   3.880  13.392 -0.7486 -2.0905 -0.4384
17335TIP3   OH273495   5.236   1.610   2.897  0.3216  0.4840  0.1993
17335TIP3    H173496   5.221   1.703   2.883 -2.0791  0.0528 -0.6227
17335TIP3    H273497   5.151   1.576   2.924  0.7505 -1.7029 -0.9654
17336TIP3   OH273498   4.234   6.267  16.767 -0.1333 -0.0337 -0.8638
17336TIP3    H173499   4.289   6.196  16.800 -1.2367 -0.9866 -1.0264
17336TIP3    H273500   4.279   6.347  16.796  0.9698 -0.7848 -0.4146
17337TIP3   OH273501   0.453   1.064   3.229  0.3713 -0.5172 -0.3675
17337TIP3    H173502   0.431   1.157   3.224 -0.3928 -0.4630  2.3462
17337TIP3    H273503   0.547   1.060   3.213  0.1086  0.4313 -2.4955
17338TIP3   OH273504   3.698   4.945   3.011 -0.1852  0.3236 -0.4102
17338TIP3    H173505   3.707   5.040   3.005 -2.0215  0.5033 -0.7892
17338TIP3    H273506   3.636   4.931   3.082  2.3637 -0.7907  1.7889
17339TIP3   OH273507   5.035   0.014   1.175  0.0385  0.2228 -0.7692
17339TIP3    H173508   4.987  -0.040   1.239 -0.9500  0.5609 -1.2025
17339TIP3    H273509   4.983   0.007   1.095  2.1993 -1.6590 -2.1377
17340TIP3   OH273510   0.736   1.388   4.263 -0.7622  0.4310  0.2262
17340TIP3    H173511   0.771   1.343   4.339 -2.5584 -3.0016 -0.7470
17340TIP3    H273512   0.693   1.466   4.298 -2.6062 -1.6452  2.9874
17341TIP3   OH273513   4.098   4.522  14.167 -0.6555  0.0541 -0.5793
17341TIP3    H173514   4.120   4.540  14.075 -1.7708  0.7800 -0.7220
17341TIP3    H273515   4.123   4.431  14.180  1.8281  0.6427 -0.8748
17342TIP3   OH273516   1.089   6.606  14.911 -0.0391  0.0119  0.0005
17342TIP3    H173517   1.087   6.613  14.815  1.1439 -0.4807 -0.0773
17342TIP3    H273518   1.001   6.633  14.938 -0.2641  0.5758 -1.1908
17343TIP3   OH273519   1.660   2.808  16.369  0.0256  0.3412  0.0051
17343TIP3    H173520   1.708   2.862  16.306 -0.3868  1.4687  0.6305
17343TIP3    H273521   1.714   2.811  16.448 -0.7796  1.1696  0.5415
17344TIP3   OH273522   1.726   0.712  13.104 -0.1563  0.1047  0.3400
17344TIP3    H173523   1.813   0.740  13.078 -0.2791  0.9798  0.8263
17344TIP3    H273524   1.740   0.650  13.176  0.0440  1.3723  1.4351
17345TIP3   OH273525   2.943   0.493   1.906  0.0050  0.3582  0.0285
17345TIP3    H173526   2.953   0.583   1.875 -1.7296  0.3957 -0.5619
17345TIP3    H273527   2.865   0.495   1.961  0.6746 -0.5508  1.0404
17346TIP3   OH273528   5.979   4.780  11.493  0.5756 -0.8120 -0.3768
17346TIP3    H173529   6.026   4.864  11.489  2.1565 -1.6186  0.2865
17346TIP3    H273530   5.887   4.805  11.506  0.9818  0.8171 -0.3460
17347TIP3   OH273531   0.587   1.954   1.059 -0.0826  0.2570  0.1323
17347TIP3    H173532   0.647   1.907   1.002  1.2178  0.7886  1.0228
17347TIP3    H273533   0.539   2.013   1.000 -0.3006 -0.7109 -0.6888
17348TIP3   OH273534   2.634   6.813   1.770  0.0873 -0.0830 -0.6198
17348TIP3    H173535   2.590   6.890   1.734  0.7408  0.3668 -0.4703
17348TIP3    H273536   2.699   6.790   1.704 -0.3355 -0.7227 -0.8213
17349TIP3   OH273537   5.416   4.633  12.407  0.7646 -0.3594 -0.0641
17349TIP3    H173538   5.402   4.552  12.359 -0.8873 -0.8678  1.1850
17349TIP3    H273539   5.463   4.690  12.346 -0.4899 -1.2552 -1.9558
17350TIP3   OH273540   6.304   6.399  14.166  0.2490 -0.2112  0.1236
17350TIP3    H173541   6.225   6.424  14.119 -1.0343 -3.4583  0.3005
17350TIP3    H273542   6.303   6.453  14.245 -0.7111  1.1613 -0.7880
17351TIP3   OH273543   6.831   6.774   2.121 -0.2168 -0.5492 -0.4618
17351TIP3    H173544   6.916   6.773   2.164 -0.1316 -2.0455 -0.6116
17351TIP3    H273545   6.849   6.806   2.033  0.1776 -0.8288 -0.4823
17352TIP3   OH273546   6.677   1.251   4.538  0.1788 -0.2389  0.1967
17352TIP3    H173547   6.767   1.283   4.534 -0.1960  0.7427 -1.0273
17352TIP3    H273548   6.645   1.281   4.623 -0.4383  3.6515 -1.2184
17353TIP3   OH273549   2.267   4.883  15.832  0.3518  0.5208 -0.3606
17353TIP3    H173550   2.299   4.920  15.750  0.3399 -1.9194 -1.5221
17353TIP3    H273551   2.346   4.873  15.886  0.2329  3.1482  0.4702
17354TIP3   OH273552   5.763   3.311  14.145  0.5166  0.4872  0.5376
17354TIP3    H173553   5.777   3.332  14.237 -0.8736  1.9127  0.4867
17354TIP3    H273554   5.669   3.291  14.139  0.4349  1.0973 -0.6521
17355TIP3   OH273555   0.219   5.413   4.445  0.0823  0.4827 -0.7975
17355TIP3    H173556   0.291   5.358   4.475  1.6999  1.8077 -2.0935
17355TIP3    H273557   0.222   5.408   4.350 -2.7116 -0.8076 -0.9483
17356TIP3   OH273558   5.032   5.225   4.887 -0.7779  0.1672  0.4130
17356TIP3    H173559   5.085   5.149   4.910 -2.7466 -1.9106 -1.4246
17356TIP3    H273560   5.074   5.262   4.810 -1.0660 -0.4968 -0.0726
17357TIP3   OH273561   5.983   0.416   1.049 -0.3509  0.1213  0.2085
17357TIP3    H173562   5.910   0.357   1.066  1.6506 -1.9949  2.1562
17357TIP3    H273563   5.962   0.494   1.102 -0.1113 -1.4691  2.8240
17358TIP3   OH273564   1.897   4.903   1.393  0.1296  0.3774 -0.5623
17358TIP3    H173565   1.882   4.996   1.379 -1.3898  0.0736 -1.2561
17358TIP3    H273566   1.884   4.864   1.306 -0.3423 -0.5760 -0.0806
17359TIP3   OH273567   1.827   5.794   2.579  0.2300 -0.1765  0.1897
17359TIP3    H173568   1.766   5.862   2.549  1.5994  1.5797  1.2182
17359TIP3    H273569   1.774   5.714   2.580 -2.0771  1.2486  1.0286
17360TIP3   OH273570   0.620   3.025   4.815  0.1619  0.2162  0.4381
17360TIP3    H173571   0.530   3.005   4.840 -0.0256 -0.4425 -0.7179
17360TIP3    H273572   0.665   2.940   4.819  0.5272  0.3935  0.1755
17361TIP3   OH273573   6.613   5.135  12.043  0.0201 -0.4423 -0.0032
17361TIP3    H173574   6.588   5.142  11.951 -1.7025  0.1819  0.4736
17361TIP3    H273575   6.652   5.221  12.064 -1.8189  0.3375  0.4306
17362TIP3   OH273576   4.750   1.730  16.107 -0.0444  0.2643  0.6123
17362TIP3    H173577   4.812   1.657  16.110 -0.2673  0.0772  0.6927
17362TIP3    H273578   4.734   1.751  16.199  1.5540  1.7274  0.5988
17363TIP3   OH273579   3.853   5.758  13.088  0.5632  0.3448  0.4784
17363TIP3    H173580   3.935   5.794  13.123  0.9637 -0.3308  0.2697
17363TIP3    H273581   3.825   5.821  13.023  1.4860  0.0934 -0.1957
17364TIP3   OH273582   2.171   4.003   3.105 -0.1316  0.1016  0.2458
17364TIP3    H173583   2.225   3.961   3.172 -1.7825 -0.2938  1.3871
17364TIP3    H273584   2.154   3.934   3.040 -0.9417 -0.3753  0.9449
17365TIP3   OH273585   4.594   3.492   4.102  0.4848 -0.7068  0.4150
17365TIP3    H173586   4.675   3.443   4.088  1.3256  0.7216  0.0148
17365TIP3    H273587   4.526   3.436   4.066  1.4186 -1.5332 -0.1224
17366TIP3   OH273588   3.035   0.560  12.616 -0.3512  0.2192 -0.1967
17366TIP3    H173589   2.940   0.552  12.605 -0.5295  1.2850  0.3945
17366TIP3    H273590   3.048   0.650  12.646  0.7979 -0.0690  0.2317
17367TIP3   OH273591   5.951   0.928   2.969  0.4514  0.4430  0.4414
17367TIP3    H173592   6.032   0.876   2.966  0.0805 -0.1982  1.2038
17367TIP3    H273593   5.967   1.000   2.908  1.6178  0.3465  0.6095
17368TIP3   OH273594   4.415   4.773  16.224 -0.1324 -0.0709  0.7660
17368TIP3    H173595   4.389   4.789  16.315  1.7583 -2.3788  1.8032
17368TIP3    H273596   4.495   4.825  16.213  0.0758 -0.4120  0.6739
17369TIP3   OH273597   4.563   2.924  16.242  0.6700 -0.2983  0.0093
17369TIP3    H173598   4.552   2.888  16.330  0.4771 -1.7735 -0.5936
17369TIP3    H273599   4.499   2.995  16.236 -0.3557 -1.1589  0.5471
17370TIP3   OH273600   0.806   3.140   3.462  0.2600  0.1317  0.2457
17370TIP3    H173601   0.784   3.089   3.540 -2.3395  0.3903 -0.2161
17370TIP3    H273602   0.818   3.074   3.393  0.4716 -0.0123  0.4221
17371TIP3   OH273603   1.640   3.072   1.603  0.4330 -0.0748 -0.6203
17371TIP3    H173604   1.596   3.157   1.595 -1.4124 -0.8321  0.6933
17371TIP3    H273605   1.648   3.040   1.513 -1.9879  0.0295 -0.9523
17372TIP3   OH273606   4.958   4.863   1.530 -0.1355  0.2752 -0.5790
17372TIP3    H173607   5.005   4.883   1.449 -0.8009  0.4486 -0.9349
17372TIP3    H273608   5.010   4.796   1.573  1.9138  2.3453  0.3804
17373TIP3   OH273609   2.467   5.254   0.176 -0.7969  0.5842  0.9827
17373TIP3    H173610   2.492   5.343   0.153 -0.3370  0.2117 -0.0335
17373TIP3    H273611   2.485   5.203   0.097 -1.6377 -0.3020  1.3431
17374TIP3   OH273612   0.802   2.345   5.009  0.6562  0.3670  0.1070
17374TIP3    H173613   0.894   2.337   4.983  1.6744  0.1555  3.3430
17374TIP3    H273614   0.801   2.320   5.101 -2.7444  0.0784  0.1166
17375TIP3   OH273615   5.726   3.793  14.924  0.2051 -0.1279 -0.8864
17375TIP3    H173616   5.646   3.843  14.909  0.3785  0.1645 -0.8413
17375TIP3    H273617   5.791   3.835  14.868  0.5802  0.2735 -0.1514
17376TIP3   OH273618   5.854   3.553   4.400  0.0803  0.4475 -0.3524
17376TIP3    H173619   5.788   3.613   4.365 -1.0298 -0.1224  0.6883
17376TIP3    H273620   5.918   3.609   4.442 -0.9903  0.9246  0.6924
17377TIP3   OH273621   6.415   4.208   2.499 -0.6548 -0.3475  0.6822
17377TIP3    H173622   6.459   4.290   2.523 -1.5469  0.6556 -0.9228
17377TIP3    H273623   6.331   4.212   2.545 -0.6420 -0.4080  0.7090
17378TIP3   OH273624   3.202   1.430  16.697  0.1265  0.2511 -0.7704
17378TIP3    H173625   3.195   1.493  16.625 -1.1620  1.2467  0.1655
17378TIP3    H273626   3.138   1.362  16.675 -2.3401  1.9289  0.6520
17379TIP3   OH273627   2.322   5.031   0.883 -0.0208  0.5514 -0.1211
17379TIP3    H173628   2.317   4.943   0.847  1.6475  0.3403  0.0632
17379TIP3    H273629   2.239   5.043   0.929 -0.7821 -0.4414 -1.1619
17380TIP3   OH273630   2.144   0.087   1.149 -0.0459  0.2518 -0.0404
17380TIP3    H173631   2.152   0.017   1.084 -1.1985  0.7046 -0.7070
17380TIP3    H273632   2.100   0.158   1.102 -3.7986 -0.4798  1.9564
17381TIP3   OH273633   1.351   6.698   3.897 -0.1346  0.6188 -0.3099
17381TIP3    H173634   1.426   6.720   3.952  0.5598 -1.4208 -0.3484
17381TIP3    H273635   1.289   6.769   3.911  0.7492  1.0646  1.7152
17382TIP3   OH273636   6.724   3.546  16.221  0.4215  0.2258 -0.3244
17382TIP3    H173637   6.720   3.452  16.201  0.0087 -0.0589  1.0140
17382TIP3    H273638   6.636   3.578  16.200  0.2560  0.1041  0.1714
17383TIP3   OH273639   0.237   0.665   3.661 -0.2540 -0.4983 -0.3690
17383TIP3    H173640   0.248   0.700   3.749  0.9661  2.4446 -1.5354
17383TIP3    H273641   0.303   0.597   3.653 -0.3652 -0.7708  0.9743
17384TIP3   OH273642   0.339   5.367  12.880  0.3180  0.3557  0.8462
17384TIP3    H173643   0.324   5.461  12.889  0.4258  0.5286 -0.6325
17384TIP3    H273644   0.431   5.360  12.854 -0.3114  0.0169 -1.4477
17385TIP3   OH273645   4.249   5.162   6.034  0.1662  0.3649 -0.5069
17385TIP3    H173646   4.317   5.175   5.968 -0.3722  1.7563 -0.8146
17385TIP3    H273647   4.275   5.217   6.107 -0.0886  0.0894 -0.2071
17386TIP3   OH273648   2.107   0.555   2.038  0.7096 -0.5773  0.3700
17386TIP3    H173649   2.165   0.596   2.102  0.8776 -0.5947  0.2335
17386TIP3    H273650   2.143   0.467   2.027  1.1828 -0.3115 -0.3520
17387TIP3   OH273651   4.809   2.255   4.565 -0.0259 -0.2139 -0.2802
17387TIP3    H173652   4.809   2.336   4.514 -0.7556  0.4158  0.6797
17387TIP3    H273653   4.807   2.185   4.500  0.8874  0.5280 -1.1291
17388TIP3   OH273654   0.223   1.951   5.942  0.1223 -0.3106 -0.1254
17388TIP3    H173655   0.159   1.894   5.901  0.2028 -0.1573 -0.4690
17388TIP3    H273656   0.253   1.903   6.019 -0.1929 -0.5043 -0.1216
17389TIP3   OH273657   3.329   2.762  16.948 -0.1682  0.0739  0.2068
17389TIP3    H173658   3.290   2.831  17.002 -0.0921 -0.9475  1.6495
17389TIP3    H273659   3.317   2.791  16.858 -1.2853  1.3499  0.7399
17390TIP3   OH273660   0.257   1.124   4.656 -0.4081 -0.8789  0.2481
17390TIP3    H173661   0.207   1.098   4.734 -0.1868 -0.2153  0.6203
17390TIP3    H273662   0.214   1.204   4.626  0.7815  0.0689  0.9464
17391TIP3   OH273663   6.334   4.638  12.150 -1.2597  0.3657 -0.3652
17391TIP3    H173664   6.255   4.585  12.141  0.0788 -1.8929  0.5365
17391TIP3    H273665   6.363   4.622  12.239  0.7489  0.3764 -0.9826
17392TIP3   OH273666   6.578   5.228  12.338  0.2472  0.8258  0.1518
17392TIP3    H173667   6.558   5.282  12.414 -0.2459 -0.8081  1.2446
17392TIP3    H273668   6.658   5.181  12.362  0.1662  0.3956 -0.4020
17393TIP3   OH273669   0.397   5.688  13.857  1.0107  0.2716 -0.0496
17393TIP3    H173670   0.412   5.626  13.786 -1.3812  0.7726 -1.1170
17393TIP3    H273671   0.460   5.758  13.841  0.6145  0.3084 -1.6410
17394TIP3   OH273672   1.702   1.867   3.381  0.0490  0.1373  0.2136
17394TIP3    H173673   1.753   1.948   3.390 -0.4455  0.3296  1.5244
17394TIP3    H273674   1.704   1.828   3.468 -0.8757 -0.5591 -0.0654
17395TIP3   OH273675   0.063   2.985   2.750 -0.1519 -0.6518 -0.6000
17395TIP3    H173676   0.154   2.991   2.719  0.4388 -0.5184  1.0123
17395TIP3    H273677   0.026   3.071   2.732  0.0327 -0.7061 -1.2738
17396TIP3   OH273678   1.945   1.465   2.795  0.4724 -0.0204 -0.1709
17396TIP3    H173679   1.870   1.430   2.748  0.8513 -0.6803 -0.2910
17396TIP3    H273680   1.912   1.481   2.884  0.1128 -0.0283 -0.3013
17397TIP3   OH273681   1.039   1.375  14.081  0.4860 -0.0540 -0.1216
17397TIP3    H173682   1.040   1.288  14.122  2.0563 -0.1806 -0.3773
17397TIP3    H273683   1.063   1.435  14.152  1.4498 -0.0707 -0.4319
17398TIP3   OH273684   6.084   6.149  15.812  0.7012  0.2490 -0.2564
17398TIP3    H173685   6.044   6.088  15.751 -0.6038  1.3639 -0.5611
17398TIP3    H273686   6.174   6.116  15.823  0.5643 -0.7298 -1.7267
17399TIP3   OH273687   1.252   3.337  15.407 -0.4039  0.3487  0.7557
17399TIP3    H173688   1.169   3.350  15.453 -0.7616 -0.6784  0.4284
17399TIP3    H273689   1.312   3.307  15.475 -0.3221  0.9530  0.9641
17400TIP3   OH273690   0.848   6.727   1.276 -0.6304  0.3615  0.8889
17400TIP3    H173691   0.781   6.708   1.211 -0.3947  1.1416  0.4049
17400TIP3    H273692   0.798   6.748   1.355 -1.0069  1.6977  0.3296
17401TIP3   OH273693   1.743   0.870   5.192 -0.2239 -0.0983 -0.5453
17401TIP3    H173694   1.761   0.930   5.265  0.1811 -0.1936 -0.5670
17401TIP3    H273695   1.819   0.878   5.135 -0.1492 -0.6577 -0.5320
17402TIP3   OH273696   4.039   0.566  16.179  0.3078 -0.2482  0.0692
17402TIP3    H173697   4.010   0.478  16.202  2.3790 -0.6135  1.5881
17402TIP3    H273698   3.992   0.623  16.239 -1.0811 -0.2629 -0.9535
17403TIP3   OH273699   1.399   1.779  16.606 -0.1468 -0.2310 -0.5392
17403TIP3    H173700   1.335   1.736  16.663 -0.9745 -0.2674 -1.4605
17403TIP3    H273701   1.346   1.829  16.544  0.6481 -1.1835 -2.0695
17404TIP3   OH273702   3.103   4.795   5.257 -0.6136  0.7474 -0.1103
17404TIP3    H173703   3.145   4.846   5.327 -0.7041  0.4838  0.1412
17404TIP3    H273704   3.090   4.858   5.186 -1.0503  1.1589  0.3267
17405TIP3   OH273705   5.610   3.086  12.299 -0.4958 -0.0939  0.6083
17405TIP3    H173706   5.648   3.004  12.332  0.2126  0.0370  0.1489
17405TIP3    H273707   5.516   3.069  12.294 -0.4540 -0.5798  1.3588
17406TIP3   OH273708   1.650   2.795  11.252  0.0408 -0.4650  0.1329
17406TIP3    H173709   1.617   2.744  11.177  2.4765 -2.2488  0.1613
17406TIP3    H273710   1.592   2.772  11.324 -0.1879 -1.5399 -0.3784
17407TIP3   OH273711   1.332   5.500   3.896  0.2782  0.1642  0.2686
17407TIP3    H173712   1.241   5.526   3.912  0.2214  0.4486 -0.4508
17407TIP3    H273713   1.344   5.514   3.802  0.5116 -1.6413  0.0078
17408TIP3   OH273714   3.576   1.035   6.789  0.5997  0.0498 -0.1046
17408TIP3    H173715   3.654   1.087   6.810  0.2838  0.7422 -0.6205
17408TIP3    H273716   3.594   0.949   6.827  1.3700  0.3702  0.2767
17409TIP3   OH273717   5.270   3.047   5.438  0.1073 -0.2278 -0.3797
17409TIP3    H173718   5.321   3.055   5.519  0.3456  0.4561 -0.5871
17409TIP3    H273719   5.230   3.133   5.427  0.9258  0.0300 -1.5351
17410TIP3   OH273720   1.092   2.773   2.623  0.4025 -0.5363 -0.2365
17410TIP3    H173721   1.107   2.772   2.528  0.7209 -1.3287 -0.1863
17410TIP3    H273722   1.071   2.682   2.645  1.2239 -0.5452  0.5827
17411TIP3   OH273723   5.046   2.901  11.523  0.3393 -0.5553 -0.1476
17411TIP3    H173724   5.095   2.955  11.461 -0.8412 -0.1636 -0.7577
17411TIP3    H273725   5.062   2.811  11.494  0.2685 -0.4029 -0.6781
17412TIP3   OH273726   4.361   4.292   6.993 -0.4487  0.3413  0.0428
17412TIP3    H173727   4.359   4.200   7.018  0.1023  0.3047 -0.0256
17412TIP3    H273728   4.297   4.335   7.050  1.0186  0.3257  1.7974
17413TIP3   OH273729   2.220   2.487  13.969 -0.0351 -0.6384  0.0637
17413TIP3    H173730   2.177   2.451  13.892 -0.3503  0.0498 -0.0930
17413TIP3    H273731   2.312   2.492  13.946 -0.2434  0.4047 -0.6215
17414TIP3   OH273732   1.202   2.473  14.172 -0.1055  0.1968 -0.2785
17414TIP3    H173733   1.293   2.505  14.176  0.2978 -1.0110  0.7257
17414TIP3    H273734   1.179   2.455  14.263 -0.8040 -1.0124 -0.6830
17415TIP3   OH273735   6.456   3.984  11.691  0.7579 -0.2414 -0.6836
17415TIP3    H173736   6.384   3.965  11.750 -0.3887  0.5226 -1.7741
17415TIP3    H273737   6.515   4.039  11.743  0.5435 -0.8329  0.2104
17416TIP3   OH273738   0.331   1.863  14.614 -0.1314  0.2512  0.1231
17416TIP3    H173739   0.400   1.900  14.559 -0.8055  1.2894 -0.0373
17416TIP3    H273740   0.367   1.868  14.703  0.4794 -0.3515 -0.0759
17417TIP3   OH273741   5.593   2.792   1.642 -0.1908 -0.0724  0.5455
17417TIP3    H173742   5.621   2.720   1.584  0.1246 -0.3965  1.0897
17417TIP3    H273743   5.498   2.786   1.643 -0.1623 -0.5792  0.6975
17418TIP3   OH273744   0.609   0.687  15.830  0.4166  0.0157  0.0992
17418TIP3    H173745   0.551   0.612  15.820  0.9410 -0.5365  1.1023
17418TIP3    H273746   0.550   0.761  15.845 -0.1261 -0.0870 -1.3616
17419TIP3   OH273747   4.545   3.568  15.288 -0.1700 -0.3006  0.3728
17419TIP3    H173748   4.567   3.631  15.220 -2.3381 -0.5940 -0.7070
17419TIP3    H273749   4.551   3.483  15.244  1.4379 -0.7804  1.4462
17420TIP3   OH273750   6.381   3.254  11.408 -0.5282  0.2962  0.0218
17420TIP3    H173751   6.431   3.233  11.487  0.7850  1.1284 -0.5548
17420TIP3    H273752   6.414   3.192  11.343 -2.0660 -0.8216  0.2517
17421TIP3   OH273753   5.557   2.095  16.467 -0.0038  0.5232  0.0866
17421TIP3    H173754   5.601   2.096  16.552 -0.4463  3.1792  0.3609
17421TIP3    H273755   5.558   2.186  16.439 -0.7182 -0.1595 -2.3439
17422TIP3   OH273756   2.497   6.230   3.694 -0.4188  0.7237  0.2145
17422TIP3    H173757   2.466   6.268   3.776  1.0525  1.0608  0.6320
17422TIP3    H273758   2.587   6.261   3.685 -0.0599 -0.5190 -0.7733
17423TIP3   OH273759   5.407   0.590  14.191  0.6880  0.1540  0.2410
17423TIP3    H173760   5.454   0.619  14.113  0.0560 -0.5306 -0.4224
17423TIP3    H273761   5.331   0.542  14.156 -0.6901  1.5102  1.2653
17424TIP3   OH273762   5.418   6.671  16.832 -0.0998  0.0170 -0.0906
17424TIP3    H173763   5.468   6.590  16.837 -1.9037 -1.0931  1.1545
17424TIP3    H273764   5.438   6.706  16.745  1.4541 -1.2498 -0.2941
17425TIP3   OH273765   6.757   5.259  16.781  0.1147 -0.5737  0.0300
17425TIP3    H173766   6.818   5.199  16.737  0.9229 -0.0213  0.3713
17425TIP3    H273767   6.675   5.209  16.786  0.4084 -1.1773 -0.8094
17426TIP3   OH273768   5.693   0.381  14.287 -0.2964  0.3863 -0.3719
17426TIP3    H173769   5.704   0.394  14.193  0.6380  0.8383 -0.2056
17426TIP3    H273770   5.782   0.384  14.322 -0.2326 -3.2671  0.1051
17427TIP3   OH273771   3.600   2.766  16.845  0.3879 -0.2477  0.1222
17427TIP3    H173772   3.507   2.775  16.865  0.7523  0.2736  1.7033
17427TIP3    H273773   3.611   2.811  16.761 -0.6933  0.0976  0.1535
17428TIP3   OH273774   1.902   0.293   0.300  0.2277 -0.0873 -0.0180
17428TIP3    H173775   1.997   0.290   0.308  0.2043 -0.1859  0.2623
17428TIP3    H273776   1.871   0.289   0.391 -0.0952 -1.7918 -0.1758
17429TIP3   OH273777   2.419   0.998   0.578 -0.9143  0.1317 -0.1794
17429TIP3    H173778   2.393   0.910   0.553 -2.1115  0.2645  0.5400
17429TIP3    H273779   2.515   0.995   0.583 -0.8623 -0.7683 -1.4298
17430TIP3   OH273780   0.630   4.020  15.780  0.0772  0.3963  0.2479
17430TIP3    H173781   0.590   4.097  15.740  0.0169  1.0036  1.4259
17430TIP3    H273782   0.575   3.947  15.753  1.1627  0.4468 -2.3991
17431TIP3   OH273783   3.839   6.467   3.553  0.1545  0.1071 -0.1377
17431TIP3    H173784   3.826   6.373   3.546  2.0665 -0.0684 -3.3094
17431TIP3    H273785   3.920   6.477   3.603  1.8852 -0.2428 -2.6823
17432TIP3   OH273786   6.273   0.501  11.633 -0.0677  0.4120 -0.3227
17432TIP3    H173787   6.331   0.495  11.556 -0.7997 -0.4584 -0.8255
17432TIP3    H273788   6.255   0.410  11.656  0.5279  0.6566  1.1983
17433TIP3   OH273789   3.811   3.818   3.886 -0.0602 -0.3254 -0.0913
17433TIP3    H173790   3.744   3.753   3.868  0.0177 -0.3490 -0.3039
17433TIP3    H273791   3.892   3.767   3.895  0.6621 -0.0593 -3.6041
17434TIP3   OH273792   2.541   1.982   6.247  0.1007  0.6948  0.5840
17434TIP3    H173793   2.586   2.020   6.323 -0.5253 -0.4573  1.5599
17434TIP3    H273794   2.594   1.905   6.224 -0.8346 -0.1433  1.1706
17435TIP3   OH273795   3.466   5.292  13.626  0.3247  0.1156  0.3123
17435TIP3    H173796   3.467   5.229  13.555  2.1044  0.3514  0.0612
17435TIP3    H273797   3.374   5.318  13.635  0.0272  0.0128 -1.8394
17436TIP3   OH273798   2.768   2.602   3.858 -0.1458  0.1889 -0.4324
17436TIP3    H173799   2.772   2.511   3.827 -0.1927 -0.4198  1.2219
17436TIP3    H273800   2.858   2.633   3.851 -0.0815 -0.0691 -0.7809
17437TIP3   OH273801   3.623   6.226   1.955  0.0118  0.4725  1.0995
17437TIP3    H173802   3.564   6.162   1.995 -0.4423 -0.0106 -0.2882
17437TIP3    H273803   3.709   6.185   1.958 -0.7328 -1.9768 -2.9832
17438TIP3   OH273804   2.593   6.043  12.590 -0.1126 -0.0204  0.1310
17438TIP3    H173805   2.517   6.051  12.532 -1.4419  1.0622  1.9072
17438TIP3    H273806   2.639   5.965  12.558 -1.5394 -0.2852 -1.4713
17439TIP3   OH273807   4.379   3.450   4.562  0.2497 -0.5445 -0.0326
17439TIP3    H173808   4.349   3.372   4.515  0.5535 -1.0641  0.6154
17439TIP3    H273809   4.474   3.440   4.567  0.0266 -2.1392  3.4148
17440TIP3   OH273810   5.956   4.551  13.603 -0.0643  0.1281 -0.1763
17440TIP3    H173811   6.027   4.517  13.548 -0.2118  0.5242 -0.6213
17440TIP3    H273812   5.890   4.481  13.603  0.3704 -0.2898  0.3351
17441TIP3   OH273813   6.513   4.799   4.459 -0.2449  0.2357 -0.0946
17441TIP3    H173814   6.459   4.873   4.487  0.3568  0.5882  0.1284
17441TIP3    H273815   6.603   4.824   4.479 -0.0576 -0.7138  0.3409
17442TIP3   OH273816   6.279   1.913   4.897 -0.4081 -0.4572  0.0971
17442TIP3    H173817   6.206   1.898   4.836 -0.3685 -0.7528  0.1243
17442TIP3    H273818   6.254   1.993   4.944 -0.0578  0.2484 -0.8823
17443TIP3   OH273819   6.498   1.168  15.216 -0.7065 -0.6146 -0.4820
17443TIP3    H173820   6.435   1.208  15.156 -2.2655 -3.1288 -0.6137
17443TIP3    H273821   6.583   1.189  15.178 -1.6275 -1.5314 -3.2519
17444TIP3   OH273822   5.290   0.458   5.353 -0.0271 -0.2039 -0.5485
17444TIP3    H173823   5.265   0.550   5.347  1.7256  0.2851 -0.6615
17444TIP3    H273824   5.342   0.452   5.433  3.6743 -0.0828 -2.7014
17445TIP3   OH273825   4.452   3.279   4.874  0.0939  0.2013 -0.5206
17445TIP3    H173826   4.410   3.298   4.958  0.6859 -1.6749  0.2471
17445TIP3    H273827   4.528   3.338   4.871  2.5801 -2.5324  2.3264
17446TIP3   OH273828   4.010   5.107   3.423 -0.4398  0.2064  0.0439
17446TIP3    H173829   4.088   5.051   3.416  0.4033  1.3043  0.3416
17446TIP3    H273830   3.947   5.054   3.471 -1.3940 -2.2757 -3.5184
17447TIP3   OH273831   3.554   4.498   3.255  0.0393 -0.0375  1.1482
17447TIP3    H173832   3.612   4.573   3.241  0.3944 -0.2432  1.5237
17447TIP3    H273833   3.580   4.434   3.189 -2.7906  1.6000 -1.8573
17448TIP3   OH273834   1.450   4.369  14.715 -0.5990  0.1426 -0.1756
17448TIP3    H173835   1.539   4.382  14.683 -0.3890  0.8964  0.6796
17448TIP3    H273836   1.394   4.385  14.639  0.0295 -1.6006 -1.0569
17449TIP3   OH273837   2.893   1.597  13.785  0.0569  0.2295 -0.1478
17449TIP3    H173838   2.927   1.588  13.874  0.2833  0.4345 -0.2154
17449TIP3    H273839   2.813   1.544  13.785 -0.6702  1.2875  0.5620
17450TIP3   OH273840   1.379   4.703   3.620  0.9917 -0.4334 -0.8181
17450TIP3    H173841   1.399   4.723   3.712  0.5022  0.2134 -0.8427
17450TIP3    H273842   1.283   4.706   3.616  1.0537  1.4018 -1.7414
17451TIP3   OH273843   6.286   5.560  12.668 -0.0741  0.3127 -0.1158
17451TIP3    H173844   6.199   5.521  12.653  0.9297 -1.3549 -2.0369
17451TIP3    H273845   6.275   5.653  12.647 -1.6001  0.3269  0.6191
17452TIP3   OH273846   1.230   5.481   0.281 -0.3339 -0.6722  0.5455
17452TIP3    H173847   1.213   5.555   0.338 -2.0568 -1.1320  0.6772
17452TIP3    H273848   1.264   5.520   0.200 -0.0810  0.1577  1.0480
17453TIP3   OH273849   3.358   2.473  15.709  1.1407  0.6274  0.1701
17453TIP3    H173850   3.315   2.513  15.633  1.0895 -0.0919 -0.1918
17453TIP3    H273851   3.285   2.443  15.764  1.1766  0.4429  0.1180
17454TIP3   OH273852   3.872   4.355  15.493  0.3478 -0.6821  0.2307
17454TIP3    H173853   3.885   4.441  15.534 -0.6367 -0.5680  0.3189
17454TIP3    H273854   3.894   4.292  15.562  0.5891 -0.5054  0.3179
17455TIP3   OH273855   4.171   6.354   1.038 -0.3393 -0.1235 -0.0187
17455TIP3    H173856   4.250   6.394   1.075 -0.0293 -0.0182 -0.7674
17455TIP3    H273857   4.099   6.407   1.072 -0.2742 -1.3002  2.1358
17456TIP3   OH273858   3.563   0.291   3.262 -0.6585  0.0744  0.2202
17456TIP3    H173859   3.580   0.379   3.231  2.3532 -0.4747  0.0418
17456TIP3    H273860   3.503   0.253   3.197 -1.9596  1.9061  0.2880
17457TIP3   OH273861   4.433   5.494   4.761  0.8424 -0.4108 -0.0948
17457TIP3    H173862   4.496   5.514   4.692  0.2305 -0.9879 -0.8304
17457TIP3    H273863   4.480   5.514   4.842  1.2337  1.1879 -0.6886
17458TIP3   OH273864   5.748   4.201   4.336 -0.1555 -0.0089 -0.0276
17458TIP3    H173865   5.768   4.292   4.316 -0.3556  0.2374  0.8726
17458TIP3    H273866   5.819   4.151   4.294  0.1146  0.5703 -0.2687
17459TIP3   OH273867   0.049   5.604   2.836  0.1073 -0.2538 -0.1004
17459TIP3    H173868   0.058   5.677   2.896 -2.9741 -1.7121  2.4255
17459TIP3    H273869   0.075   5.527   2.887  2.9965 -1.1271 -2.5827
17460TIP3   OH273870   1.935   4.071   0.352  0.0338  0.0760  0.0846
17460TIP3    H173871   1.933   3.988   0.305  0.8346  1.6650 -3.0672
17460TIP3    H273872   2.009   4.064   0.411 -0.9347 -2.0022  1.1290
17461TIP3   OH273873   2.717   2.354  15.887  0.2583  0.1043  0.6118
17461TIP3    H173874   2.745   2.412  15.958  0.8354 -0.2239  0.6597
17461TIP3    H273875   2.738   2.266  15.918 -2.0062 -0.2973  1.1839
17462TIP3   OH273876   0.466   2.066  13.258  0.0653  0.0771  0.9038
17462TIP3    H173877   0.441   1.981  13.221  0.4766  0.3284  0.0314
17462TIP3    H273878   0.560   2.061  13.270  1.0663  2.0585 -3.8410
17463TIP3   OH273879   0.547   0.999  17.024  0.4918  0.1348 -0.0630
17463TIP3    H173880   0.578   0.973  16.937  0.2345  0.0000 -0.1147
17463TIP3    H273881   0.546   1.094  17.022  1.2530  0.1539  0.0613
17464TIP3   OH273882   4.436   3.720  16.040 -0.7427  0.3369  0.1120
17464TIP3    H173883   4.398   3.699  16.125 -0.7096  0.7727  0.2392
17464TIP3    H273884   4.361   3.729  15.981 -0.6831 -1.7851 -0.3480
17465TIP3   OH273885   6.734   3.774  15.877 -0.3624 -0.7077  0.2326
17465TIP3    H173886   6.669   3.759  15.808 -0.2412 -2.4687  0.4613
17465TIP3    H273887   6.791   3.697  15.873  0.0477 -0.5082  1.8496
17466TIP3   OH273888   3.686   1.978  14.610 -0.1888 -0.1057 -0.1254
17466TIP3    H173889   3.625   1.948  14.677 -1.0689  3.0366  0.6098
17466TIP3    H273890   3.731   2.053  14.648  2.4909 -0.8540 -1.5305
17467TIP3   OH273891   3.374   1.210  12.976  0.3106 -0.2734 -0.0864
17467TIP3    H173892   3.386   1.174  12.888  0.5367 -0.4839  0.0285
17467TIP3    H273893   3.280   1.207  12.991  0.1916  0.4824 -0.6236
17468TIP3   OH273894   2.592   6.492  14.111 -0.2755  0.5581  0.4257
17468TIP3    H173895   2.591   6.432  14.185  2.0845  0.0118  0.0831
17468TIP3    H273896   2.550   6.443  14.040  0.2027 -0.1038  0.5894
17469TIP3   OH273897   1.214   1.739   2.931  0.0821  0.2446 -0.2782
17469TIP3    H173898   1.244   1.667   2.987  0.0147 -0.3757 -1.0191
17469TIP3    H273899   1.120   1.722   2.920 -0.0378  0.7421 -0.0375
17470TIP3   OH273900   5.969   3.378   4.987 -0.2617  0.5670  0.0230
17470TIP3    H173901   5.964   3.434   4.910 -0.1978 -0.0372 -0.4321
17470TIP3    H273902   6.000   3.294   4.953 -1.8765 -0.2423  0.4036
17471TIP3   OH273903   3.758   6.603  16.987 -0.0840 -0.0343 -0.9637
17471TIP3    H173904   3.808   6.540  17.039 -0.5940  0.4920  0.1985
17471TIP3    H273905   3.825   6.649  16.936  0.8464  1.4956  1.4581
17472TIP3   OH273906   5.151   0.857   1.125 -0.0359 -0.1402 -0.1832
17472TIP3    H173907   5.114   0.941   1.096 -1.1451 -0.7171 -0.5032
17472TIP3    H273908   5.219   0.838   1.060  0.6690  0.8120  0.2592
17473TIP3   OH273909   3.461   5.296  16.276 -0.7296  0.0653  0.3311
17473TIP3    H173910   3.382   5.326  16.322  0.2641  0.3920  1.9029
17473TIP3    H273911   3.431   5.278  16.187 -2.4600  0.7122  0.7322
17474TIP3   OH273912   0.200   1.802  13.320  0.2105 -0.5005  0.5207
17474TIP3    H173913   0.202   1.881  13.375 -0.3422 -2.2143  3.1763
17474TIP3    H273914   0.107   1.788  13.303  0.4123  0.3870 -1.5393
17475TIP3   OH273915   6.538   5.296   6.043 -0.1010  0.6756  0.1139
17475TIP3    H173916   6.562   5.237   6.114  0.1369 -0.6066 -0.9765
17475TIP3    H273917   6.451   5.328   6.066 -0.7906 -1.1172  0.1637
17476TIP3   OH273918   6.327   5.930   4.069 -0.1012  0.5441 -0.3028
17476TIP3    H173919   6.378   5.852   4.088  0.5875  1.1308  0.2891
17476TIP3    H273920   6.303   5.965   4.155 -3.2288 -0.7802 -0.4761
17477TIP3   OH273921   4.840   5.000  17.070 -0.3440  0.2973  0.0815
17477TIP3    H173922   4.829   5.063  17.141  0.7894 -0.1037  0.6448
17477TIP3    H273923   4.798   4.920  17.102 -2.2319  0.8725 -0.8399
17478TIP3   OH273924   5.336   1.009  14.800 -0.0727 -0.7591 -0.4341
17478TIP3    H173925   5.277   1.004  14.725 -1.9602 -1.2538  0.9966
17478TIP3    H273926   5.393   0.933  14.792 -0.4040 -0.9236 -1.2501
17479TIP3   OH273927   1.291   6.857   5.575  0.8658 -0.2383 -0.3466
17479TIP3    H173928   1.229   6.845   5.648  1.1423  1.4607  0.2043
17479TIP3    H273929   1.369   6.809   5.602  0.2746 -1.3079 -0.4625
17480TIP3   OH273930   4.680   2.288  11.909 -0.3942 -0.0699  0.0301
17480TIP3    H173931   4.629   2.256  11.834 -1.0700 -1.4518  1.0298
17480TIP3    H273932   4.709   2.375  11.882 -1.1946 -0.2432 -1.5603
17481TIP3   OH273933   6.553   1.147  11.150  0.3117 -0.0788  0.4082
17481TIP3    H173934   6.626   1.200  11.118  0.3402  0.1119  0.7787
17481TIP3    H273935   6.506   1.121  11.071  1.2754 -0.9475  0.0932
17482TIP3   OH273936   5.031   2.661  14.398  0.1343  0.4489 -0.5355
17482TIP3    H173937   5.038   2.720  14.473  0.3693  0.9141 -0.9152
17482TIP3    H273938   4.939   2.666  14.372  0.4543  1.8220 -1.4855
17483TIP3   OH273939   0.401   6.680   5.564  0.3039  1.0809 -0.2049
17483TIP3    H173940   0.481   6.651   5.520  0.6185  2.0745 -0.3305
17483TIP3    H273941   0.346   6.714   5.493 -0.3027  0.2672 -0.1384
17484TIP3   OH273942   1.254   2.932   2.338 -0.4667 -0.4870  0.2831
17484TIP3    H173943   1.168   2.901   2.367 -1.7747  2.1781 -0.4556
17484TIP3    H273944   1.259   2.906   2.246 -0.4219 -0.7250  0.3513
17485TIP3   OH273945   6.224   5.303   5.695  0.2466  0.0892  0.2252
17485TIP3    H173946   6.225   5.384   5.643 -0.1718  0.1997  0.3832
17485TIP3    H273947   6.253   5.330   5.782 -0.9500  0.2935  0.5802
17486TIP3   OH273948   2.268   4.296   3.336  0.0828 -0.0292 -0.1070
17486TIP3    H173949   2.233   4.364   3.393  0.6291  0.7505 -0.6693
17486TIP3    H273950   2.203   4.226   3.339  0.1089 -0.0149  1.4632
17487TIP3   OH273951   0.659   5.590   6.205 -0.4527  0.3196  0.2925
17487TIP3    H173952   0.649   5.495   6.216  0.5224  0.1390 -0.1882
17487TIP3    H273953   0.625   5.628   6.285  1.2156 -0.5773  1.4765
17488TIP3   OH273954   4.444   6.353  12.135  0.5142  0.2880 -0.0763
17488TIP3    H173955   4.528   6.371  12.176  0.3980  1.8726 -0.4538
17488TIP3    H273956   4.381   6.358  12.207  0.5663  0.7456 -0.0610
17489TIP3   OH273957   6.816   4.229   3.848  0.7719  0.4476 -0.3460
17489TIP3    H173958   6.804   4.272   3.763 -0.7503 -0.4541 -0.6348
17489TIP3    H273959   6.754   4.275   3.906 -0.9042 -1.2672 -0.6656
17490TIP3   OH273960   1.277   0.995  11.933  0.1866  0.7362 -0.3234
17490TIP3    H173961   1.306   1.070  11.985 -0.9007  1.1066 -0.2195
17490TIP3    H273962   1.183   1.010  11.920  0.3608  0.4760 -2.1181
17491TIP3   OH273963   4.128   4.646   2.434 -0.2648 -0.0321  0.8428
17491TIP3    H173964   4.202   4.638   2.374 -1.4073  1.8011 -0.9591
17491TIP3    H273965   4.162   4.696   2.508  0.1780  1.5612 -0.3664
17492TIP3   OH273966   5.684   5.808   1.376 -0.1286  0.8401 -0.3818
17492TIP3    H173967   5.753   5.873   1.389  0.3898  0.6486 -1.9444
17492TIP3    H273968   5.715   5.754   1.303 -1.1480 -0.3407  0.0143
17493TIP3   OH273969   4.565   2.826   5.500  0.3141  0.5769 -0.2677
17493TIP3    H173970   4.567   2.905   5.554  1.8720 -0.6041  1.5211
17493TIP3    H273971   4.638   2.774   5.531  0.0356 -1.0947 -2.1949
17494TIP3   OH273972   3.171   4.737   1.270  0.5544  0.0979  0.1809
17494TIP3    H173973   3.172   4.728   1.175  1.2447  0.5676  0.1361
17494TIP3    H273974   3.081   4.760   1.291  0.5755  0.7762 -0.4425
17495TIP3   OH273975   2.777   6.589   2.176 -0.1584 -0.1210 -0.5581
17495TIP3    H173976   2.698   6.586   2.230 -0.0002 -0.2668 -0.3307
17495TIP3    H273977   2.758   6.531   2.102  0.2320 -1.2293  0.1846
17496TIP3   OH273978   1.256   2.775   3.289 -0.0620  0.1490  0.3115
17496TIP3    H173979   1.258   2.864   3.324  0.9387  0.3975 -0.3398
17496TIP3    H273980   1.324   2.729   3.338 -0.6362 -0.2984  0.7101
17497TIP3   OH273981   6.089   6.669   4.560 -0.5564  0.2653  0.3143
17497TIP3    H173982   6.067   6.663   4.653 -2.3313 -0.5725 -0.1080
17497TIP3    H273983   6.021   6.617   4.517 -0.1499  1.1880 -1.5009
17498TIP3   OH273984   3.486   5.622  11.645 -0.4800 -0.2180 -0.2462
17498TIP3    H173985   3.453   5.534  11.624  0.2484 -0.0224 -2.4115
17498TIP3    H273986   3.476   5.628  11.740 -3.4344 -1.4614 -0.3430
17499TIP3   OH273987   1.739   5.612   4.466  0.6725  0.2032  0.0886
17499TIP3    H173988   1.661   5.656   4.498  0.2793  0.2224 -0.8572
17499TIP3    H273989   1.715   5.581   4.379  1.0589 -1.5812  0.5827
17500TIP3   OH273990   0.936   0.214   3.935 -0.3129  0.5019  0.7041
17500TIP3    H173991   0.851   0.190   3.973 -1.7977  0.7957 -2.1269
17500TIP3    H273992   0.914   0.246   3.847  2.5524  2.5740  0.6002
17501TIP3   OH273993   3.914   4.890   2.655  0.1528 -0.2394 -0.1409
17501TIP3    H173994   3.885   4.836   2.582  1.1347 -1.1552  0.1253
17501TIP3    H273995   3.914   4.979   2.621  1.9901 -0.7896 -1.7402
17502TIP3   OH273996   4.984   3.341   5.937 -0.5553  0.3524 -0.1638
17502TIP3    H173997   5.026   3.263   5.974  1.1006  1.5993  0.7579
17502TIP3    H273998   4.899   3.346   5.980  0.3034  0.3536  1.6214
17503TIP3   OH273999   3.330   3.106  12.107 -0.1065  0.9129  0.1399
17503TIP3    H174000   3.388   3.170  12.148 -0.2340 -0.2422  2.2682
17503TIP3    H274001   3.243   3.148  12.109  0.3366  2.0648 -1.7715
17504TIP3   OH274002   6.623   4.376   0.576 -0.0876 -0.3199 -0.2338
17504TIP3    H174003   6.552   4.318   0.549 -0.6927 -1.2461  2.9149
17504TIP3    H274004   6.697   4.318   0.593  0.6252  0.3398 -1.0155
17505TIP3   OH274005   0.076   3.211  16.118 -0.3027 -0.0280 -0.3414
17505TIP3    H174006   0.136   3.273  16.078 -0.6065  0.9344  0.6212
17505TIP3    H274007   0.112   3.197  16.206 -1.4183  0.5212  0.2282
17506TIP3   OH274008   4.647   3.758  15.118  0.1100  0.0114 -1.0546
17506TIP3    H174009   4.669   3.798  15.034 -0.2611  0.7758 -0.8013
17506TIP3    H274010   4.630   3.832  15.176  1.4864 -0.4583  0.0183
17507TIP3   OH274011   0.997   5.394   1.099  0.6296 -0.5786 -0.2563
17507TIP3    H174012   1.057   5.363   1.167  1.7956 -0.1662 -1.0653
17507TIP3    H274013   1.040   5.372   1.016 -0.2658 -0.1357 -0.8613
17508TIP3   OH274014   4.068   1.138  12.316  0.1731 -0.0805 -0.4719
17508TIP3    H174015   3.989   1.084  12.309  0.4723 -0.3912 -1.7226
17508TIP3    H274016   4.082   1.149  12.410  0.1168 -2.2257 -0.1702
17509TIP3   OH274017   0.757   6.248  10.500 -0.0092  0.4042  0.1516
17509TIP3    H174018   0.805   6.287  10.574 -1.4674  1.5739  0.5274
17509TIP3    H274019   0.818   6.254  10.427  2.5072 -3.1211  1.6757
17510TIP3   OH274020   3.263   5.733   4.081  0.2040 -0.2639 -0.5598
17510TIP3    H174021   3.210   5.744   4.160  0.9219  0.2797 -0.1371
17510TIP3    H274022   3.312   5.815   4.073 -1.0176  0.3470 -2.4680
17511TIP3   OH274023   1.363   6.332   2.056 -0.7723 -0.0272 -0.5069
17511TIP3    H174024   1.433   6.381   2.013 -0.7429 -0.6873 -1.2289
17511TIP3    H274025   1.284   6.354   2.007 -1.5533  2.3710  1.5472
17512TIP3   OH274026   0.171   1.255   2.282 -0.4303  0.4274 -1.3072
17512TIP3    H174027   0.230   1.331   2.287 -0.0090  0.1003  3.9564
17512TIP3    H274028   0.230   1.179   2.286 -0.9811  0.0487  0.6733
17513TIP3   OH274029   1.747   1.434  15.793  0.6151  0.2442 -0.2819
17513TIP3    H174030   1.660   1.460  15.762  0.3783  0.5700  0.6320
17513TIP3    H274031   1.749   1.339  15.781  0.1311  0.2326 -0.2987
17514TIP3   OH274032   0.546   1.413  11.323 -0.2820 -0.6430 -0.0069
17514TIP3    H174033   0.628   1.406  11.273 -0.6606  1.0707 -0.9493
17514TIP3    H274034   0.564   1.367  11.405  1.8106  0.0871  0.0106
17515TIP3   OH274035   2.490   1.346   4.477 -0.0959 -0.6421  0.1312
17515TIP3    H174036   2.395   1.341   4.461 -0.0383 -0.0655 -0.4265
17515TIP3    H274037   2.527   1.364   4.390  0.3953  0.6752  0.5906
17516TIP3   OH274038   4.815   6.537   0.335  0.2656  0.1437 -0.1885
17516TIP3    H174039   4.829   6.480   0.411  1.5212  1.8707  0.9372
17516TIP3    H274040   4.741   6.593   0.360 -1.0851 -1.0079 -1.3635
17517TIP3   OH274041   0.788   0.639   0.993  0.6709 -0.0859 -0.3571
17517TIP3    H174042   0.801   0.552   1.030  0.5384  0.7466  1.7802
17517TIP3    H274043   0.732   0.684   1.056  1.5484  1.8688 -0.8934
17518TIP3   OH274044   3.242   1.956   0.671  0.0177 -0.2441  0.2407
17518TIP3    H174045   3.240   1.991   0.582  2.4436 -2.0872 -0.6273
17518TIP3    H274046   3.317   1.999   0.712  1.1543 -2.0643  0.1499
17519TIP3   OH274047   4.582   0.217   0.417  0.1660 -0.5842 -1.0574
17519TIP3    H174048   4.664   0.179   0.387  1.7244  1.0339  0.8336
17519TIP3    H274049   4.578   0.195   0.511 -0.5431  1.0137 -0.6806
17520TIP3   OH274050   2.292   3.985  13.633 -0.2824 -0.0802  0.6334
17520TIP3    H174051   2.217   3.956  13.583  0.4355 -2.4621  0.8130
17520TIP3    H274052   2.358   4.008  13.567 -0.6145  0.5016  0.4949
17521TIP3   OH274053   5.646   5.570  14.921  0.4156 -0.1885  0.1168
17521TIP3    H174054   5.580   5.537  14.860 -0.3151  0.1807  0.7110
17521TIP3    H274055   5.674   5.654  14.884  1.4433 -0.8871 -0.7751
17522TIP3   OH274056   0.823   2.887   1.032 -0.0468 -0.1340 -0.1100
17522TIP3    H174057   0.874   2.866   0.953  0.4457 -0.5234  0.3080
17522TIP3    H274058   0.821   2.983   1.034  0.2726 -0.1202 -0.3831
17523TIP3   OH274059   3.708   1.941   3.148  0.5554  0.8557 -0.4304
17523TIP3    H174060   3.794   1.938   3.190  0.3961  1.0132 -0.0841
17523TIP3    H274061   3.674   1.852   3.159  0.7267  0.7585 -0.6821
17524TIP3   OH274062   0.727   3.131   4.206  0.2049  0.4112 -0.4827
17524TIP3    H174063   0.631   3.130   4.202  0.2218 -0.1407 -0.7848
17524TIP3    H274064   0.746   3.130   4.300 -0.0913  4.5337 -0.1856
17525TIP3   OH274065   0.247   3.295   2.091 -0.0199  0.1166 -0.3527
17525TIP3    H174066   0.190   3.303   2.015  0.3243  0.1554 -0.6057
17525TIP3    H274067   0.302   3.373   2.088  0.6300 -0.3434 -0.5918
17526TIP3   OH274068   6.302   0.553  10.934  0.2373 -0.3169 -0.1029
17526TIP3    H174069   6.249   0.474  10.943 -0.4299  0.0581 -0.5822
17526TIP3    H274070   6.348   0.561  11.017 -0.4255 -0.6893  0.3055
17527TIP3   OH274071   5.108   4.080  11.083 -0.1615 -0.3884 -0.3914
17527TIP3    H174072   5.072   4.081  10.995 -1.6039  1.6519  0.1254
17527TIP3    H274073   5.139   4.169  11.097  2.9595 -1.4382  0.1204
17528TIP3   OH274074   2.008   4.731   3.948 -0.1563  0.1450  0.7105
17528TIP3    H174075   1.995   4.661   4.013  0.7003 -0.4387  0.2753
17528TIP3    H274076   2.026   4.684   3.866  1.3137  0.8513  0.5960
17529TIP3   OH274077   6.592   1.522  16.014  0.3015 -0.1120 -0.1196
17529TIP3    H174078   6.597   1.450  15.952 -0.6624 -2.2619  2.1331
17529TIP3    H274079   6.683   1.544  16.033  0.6453 -1.6251  0.0767
17530TIP3   OH274080   1.491   0.744  10.808 -0.0171  0.1281  0.0324
17530TIP3    H174081   1.571   0.770  10.763 -0.2211 -0.3099 -0.5862
17530TIP3    H274082   1.428   0.727  10.738 -0.5634  0.1724  0.5030
17531TIP3   OH274083   2.763   5.180   2.828 -0.7280 -0.2071  0.1549
17531TIP3    H174084   2.828   5.230   2.876 -0.2599  0.4251 -1.0833
17531TIP3    H274085   2.685   5.181   2.884 -0.0655  0.0867  1.0911
17532TIP3   OH274086   1.966   2.066  12.363  0.2299  0.0311 -0.3096
17532TIP3    H174087   1.952   1.981  12.321 -1.6836 -0.4412  1.1571
17532TIP3    H274088   2.027   2.048  12.434  1.9995  0.4724 -1.6527
17533TIP3   OH274089   3.838   2.356   3.479  0.7918  0.5177 -0.1034
17533TIP3    H174090   3.905   2.422   3.458  0.6623  0.3435 -1.1250
17533TIP3    H274091   3.885   2.273   3.476  0.6206  0.4291 -0.4491
17534TIP3   OH274092   5.468   0.958   4.918 -0.0687 -0.0197  0.3978
17534TIP3    H174093   5.449   0.865   4.933  2.9036 -0.4979  2.1043
17534TIP3    H274094   5.435   1.002   4.997  1.9722 -0.2992  1.4931
17535TIP3   OH274095   4.238   1.865   4.499  0.8040 -0.1173 -0.5390
17535TIP3    H174096   4.205   1.881   4.587  0.1190 -0.5876 -0.7029
17535TIP3    H274097   4.279   1.779   4.503 -0.9022 -1.0091 -1.1100
17536TIP3   OH274098   1.489   3.475  12.129 -0.2517 -0.0874  0.3203
17536TIP3    H174099   1.446   3.554  12.095  2.7340  2.1217  1.2171
17536TIP3    H274100   1.565   3.463  12.072 -0.2446 -1.9172  0.6590
17537TIP3   OH274101   0.178   4.441   2.050 -0.5198 -0.4208 -0.5214
17537TIP3    H174102   0.224   4.431   2.133 -0.3995  1.4334 -0.3183
17537TIP3    H274103   0.091   4.406   2.067 -0.5160 -0.0120  0.4196
17538TIP3   OH274104   6.477   2.262   3.422 -0.4914 -0.3809  0.5404
17538TIP3    H174105   6.395   2.297   3.458 -1.1898 -0.0516 -1.2748
17538TIP3    H274106   6.529   2.339   3.401  0.3955 -0.5931  1.8568
17539TIP3   OH274107   0.833   4.222  11.300 -0.0829 -0.2498  0.1571
17539TIP3    H174108   0.835   4.204  11.394 -0.4634 -0.8605  0.0515
17539TIP3    H274109   0.925   4.223  11.274  0.0739  0.8051  0.6906
17540TIP3   OH274110   3.125   0.204   5.215  0.3233 -0.0166 -0.0429
17540TIP3    H174111   3.107   0.287   5.172 -4.3785 -0.8792 -0.1814
17540TIP3    H274112   3.169   0.151   5.148 -2.1050  0.4200 -2.1164
17541TIP3   OH274113   1.448   2.049   4.884 -0.8287 -0.2500  0.1851
17541TIP3    H174114   1.362   2.055   4.842 -0.9320 -1.4562  0.1863
17541TIP3    H274115   1.442   1.972   4.940 -0.0931  0.2783  1.0243
17542TIP3   OH274116   1.235   1.622   2.510  0.4660 -0.1783  0.7824
17542TIP3    H174117   1.280   1.680   2.448  1.5795 -3.0479 -1.3024
17542TIP3    H274118   1.305   1.592   2.569  0.0489 -0.0618  1.3477
17543TIP3   OH274119   5.361   2.764  15.642  0.3095 -0.2131 -0.7485
17543TIP3    H174120   5.416   2.687  15.657  1.7904  0.6371 -1.5122
17543TIP3    H274121   5.314   2.745  15.561  0.9089 -0.2174 -1.1067
17544TIP3   OH274122   1.283   6.156  16.577 -0.0960  0.1139 -0.0462
17544TIP3    H174123   1.269   6.085  16.640 -0.2493  0.4202  0.2720
17544TIP3    H274124   1.347   6.121  16.515 -0.5278 -0.4633 -0.1640
17545TIP3   OH274125   2.818   6.613   4.720 -0.1848  1.0518 -0.1710
17545TIP3    H174126   2.852   6.669   4.789 -0.4264  0.1056  0.7444
17545TIP3    H274127   2.752   6.558   4.763 -1.4202  1.4447 -1.4560
17546TIP3   OH274128   3.725   2.912   3.950  0.0683  0.0187  0.0203
17546TIP3    H174129   3.750   2.885   3.862  0.5007 -2.8325  0.9110
17546TIP3    H274130   3.807   2.938   3.992  0.2068 -0.6772  0.1984
17547TIP3   OH274131   1.286   3.585   5.321 -0.4540 -0.3468  0.1755
17547TIP3    H174132   1.216   3.543   5.272 -1.7364  1.3460  0.4554
17547TIP3    H274133   1.305   3.525   5.393  0.8310 -2.4458 -1.7781
17548TIP3   OH274134   5.189   4.299  10.738 -0.1139 -0.6523 -0.0857
17548TIP3    H174135   5.215   4.391  10.733  0.3219 -0.8177 -2.0769
17548TIP3    H274136   5.272   4.251  10.739 -0.2597 -1.0523 -1.9314
17549TIP3   OH274137   5.310   6.844  10.309  0.6480  0.0654 -0.1439
17549TIP3    H174138   5.215   6.834  10.308  0.4697  1.2279  1.4769
17549TIP3    H274139   5.343   6.755  10.301 -0.5937 -0.4550  0.1774
17550TIP3   OH274140   5.309   3.954  17.052  0.5801 -0.6044  0.1501
17550TIP3    H174141   5.327   4.037  17.095 -0.4422 -0.3492  0.1142
17550TIP3    H274142   5.257   3.905  17.115  0.1262 -0.7142 -0.2973
17551TIP3   OH274143   4.368   3.736  14.665  0.6669 -0.5258  0.0820
17551TIP3    H174144   4.319   3.813  14.636  1.3419 -0.0289  0.2511
17551TIP3    H274145   4.302   3.677  14.700  0.0838 -0.2359 -0.5038
17552TIP3   OH274146   3.431   2.707  14.770 -0.4702  0.0340 -0.1054
17552TIP3    H174147   3.518   2.746  14.757 -1.2130  1.2034 -1.8798
17552TIP3    H274148   3.449   2.623  14.813  1.4041  0.9746  1.0782
17553TIP3   OH274149   0.665   1.085   4.923  0.3387  0.2193  0.2120
17553TIP3    H174150   0.572   1.097   4.944  0.0047  0.1611 -1.1469
17553TIP3    H274151   0.667   1.072   4.828  1.6944 -0.2698  0.2838
17554TIP3   OH274152   2.131   1.042  15.869 -0.3607 -0.0978 -0.1173
17554TIP3    H174153   2.197   1.022  15.802 -0.2259  0.7554 -0.2480
17554TIP3    H274154   2.132   1.137  15.876 -0.5183 -0.1643  0.9578
17555TIP3   OH274155   4.722   6.794  11.435 -0.1995  0.8843  0.3544
17555TIP3    H174156   4.750   6.705  11.455 -0.7253  0.3733 -1.0192
17555TIP3    H274157   4.649   6.811  11.495 -1.2362 -0.2877 -0.5342
17556TIP3   OH274158   5.642   4.786  12.016  0.7142  0.0783 -0.0080
17556TIP3    H174159   5.618   4.872  12.049  2.0720  0.2387  0.6282
17556TIP3    H274160   5.584   4.772  11.941 -0.2643  1.0678  0.5324
17557TIP3   OH274161   6.171   0.591  10.566 -0.3799 -0.0212  0.4345
17557TIP3    H174162   6.193   0.617  10.656  2.5860  2.0983 -0.7498
17557TIP3    H274163   6.096   0.646  10.543 -1.1411 -0.5503  1.5190
17558TIP3   OH274164   0.607   1.979  12.295  0.1995  0.3144 -0.0743
17558TIP3    H174165   0.693   1.974  12.252  1.6068 -0.0211  2.5911
17558TIP3    H274166   0.605   2.068  12.332 -0.4416  0.1835  0.2055
17559TIP3   OH274167   3.036   4.164   1.371 -0.2464  0.1507  0.2422
17559TIP3    H174168   2.947   4.144   1.341  0.2199 -0.8053 -0.5402
17559TIP3    H274169   3.049   4.107   1.446 -0.4776  0.6777  0.6893
17560TIP3   OH274170   6.462   3.731   1.673  0.6362  0.0877 -0.2727
17560TIP3    H174171   6.484   3.718   1.581 -1.1094  0.0889 -0.7106
17560TIP3    H274172   6.530   3.683   1.721  1.6504  0.2097 -1.5341
17561TIP3   OH274173   4.373   0.490   2.160 -0.6424 -0.1502  0.1462
17561TIP3    H174174   4.409   0.510   2.073  1.8209 -0.9316  0.9119
17561TIP3    H274175   4.334   0.572   2.190  0.9896  0.9236 -0.5534
17562TIP3   OH274176   6.759   4.490  16.017 -0.9494 -0.0359  0.2605
17562TIP3    H174177   6.771   4.526  15.929  1.4471  2.0128  1.3179
17562TIP3    H274178   6.805   4.406  16.014  1.2171  1.1018  0.1521
17563TIP3   OH274179   2.201   6.260  10.742 -0.2565 -0.5086  0.1848
17563TIP3    H174180   2.124   6.298  10.701  0.0453 -0.9895 -0.8428
17563TIP3    H274181   2.275   6.298  10.695  0.1972  0.5259  1.6381
17564TIP3   OH274182   2.646   2.865  11.627 -0.1445  0.2833  0.0730
17564TIP3    H174183   2.712   2.797  11.639 -1.9827 -1.5962  0.1362
17564TIP3    H274184   2.682   2.941  11.673  1.7207 -0.8101  0.5451
17565TIP3   OH274185   4.629   4.363  15.492 -0.1176 -0.5991 -0.1779
17565TIP3    H174186   4.588   4.416  15.561  0.9570 -0.2696  0.2343
17565TIP3    H274187   4.624   4.418  15.414 -3.3609 -1.8463 -1.0012
17566TIP3   OH274188   6.574   2.152   4.946  0.0108 -0.6337  0.5731
17566TIP3    H174189   6.571   2.246   4.931 -1.4053 -0.2301  2.9635
17566TIP3    H274190   6.534   2.114   4.868  1.2022  0.6490 -0.7289
17567TIP3   OH274191   4.520   2.201  14.085  0.1835  0.5351 -0.5349
17567TIP3    H174192   4.443   2.183  14.031 -0.2260  1.4819 -0.2938
17567TIP3    H274193   4.594   2.176  14.031 -0.2966 -0.7100 -0.6492
17568TIP3   OH274194   6.813   1.057  17.026 -0.3975  0.1341 -0.1265
17568TIP3    H174195   6.891   1.107  17.002  0.5610 -1.8377 -1.3939
17568TIP3    H274196   6.763   1.115  17.084  0.7129  2.4406 -1.3656
17569TIP3   OH274197   3.001   2.538  11.871 -0.4612  0.2891 -0.3111
17569TIP3    H174198   3.084   2.522  11.825 -0.4725 -1.1142  0.0906
17569TIP3    H274199   3.006   2.482  11.948 -2.3025 -0.8158 -0.9391
17570TIP3   OH274200   5.323   2.961   1.735 -0.8127  0.3368  0.1283
17570TIP3    H174201   5.329   2.875   1.693 -3.2715 -0.8248  1.8837
17570TIP3    H274202   5.234   2.991   1.716 -0.8507  1.2957  1.6571
17571TIP3   OH274203   4.837   5.238   2.546  0.0183 -0.3364  0.6345
17571TIP3    H174204   4.807   5.239   2.455  0.5346 -1.0279  0.4542
17571TIP3    H274205   4.926   5.274   2.543  0.6422 -1.8219  0.6322
17572TIP3   OH274206   1.062   0.438   2.898  0.1304  0.0948 -0.2149
17572TIP3    H174207   1.102   0.379   2.962 -1.1592 -0.6967 -0.0995
17572TIP3    H274208   1.094   0.406   2.814 -0.8118 -1.0083 -0.1787
17573TIP3   OH274209   5.090   3.685   4.260  0.1491  0.6559  0.3770
17573TIP3    H174210   5.028   3.743   4.216 -0.0719 -1.6149 -2.5834
17573TIP3    H274211   5.037   3.640   4.326 -0.3098  1.7328  0.7732
17574TIP3   OH274212   3.062   5.849   0.961  0.0533  0.3953 -0.6432
17574TIP3    H174213   3.154   5.872   0.971 -0.2689  1.4893  0.0374
17574TIP3    H274214   3.032   5.904   0.888 -0.4742  1.4286  0.3158
17575TIP3   OH274215   1.180   2.131   2.851  0.2037 -0.0645 -0.4409
17575TIP3    H174216   1.141   2.212   2.819 -1.2696 -0.1290  1.0479
17575TIP3    H274217   1.107   2.071   2.861  0.6547 -0.3382  2.0341
17576TIP3   OH274218   0.623   2.626   2.768  0.3308  0.7750  0.5111
17576TIP3    H174219   0.541   2.669   2.746  0.4311  0.5792 -0.2742
17576TIP3    H274220   0.647   2.661   2.854 -1.6822 -0.7513  1.7953
17577TIP3   OH274221   2.661   5.965  12.850 -0.7899  0.0994 -0.0522
17577TIP3    H174222   2.703   5.891  12.807  0.3148  1.2388 -1.0200
17577TIP3    H274223   2.614   6.010  12.779 -1.3343  0.3975  0.4901
17578TIP3   OH274224   4.215   3.200   4.695  0.3167 -0.0870  0.3910
17578TIP3    H174225   4.284   3.175   4.756 -0.8392 -0.6897  1.5051
17578TIP3    H274226   4.175   3.278   4.734 -1.0737 -1.0482  0.9797
17579TIP3   OH274227   5.636   0.228   1.518 -0.0871  0.0862  0.8072
17579TIP3    H174228   5.544   0.253   1.514  0.2780  1.7510  1.6256
17579TIP3    H274229   5.637   0.147   1.568 -1.1499 -0.3152  0.2128
17580TIP3   OH274230   1.705   1.321  11.323 -0.1835 -0.1321  1.2119
17580TIP3    H174231   1.696   1.406  11.367  0.4586  0.8189 -0.4138
17580TIP3    H274232   1.680   1.257  11.390 -1.0546  1.3409  2.3678
17581TIP3   OH274233   1.933   0.179   3.732  0.7145  0.0881 -0.2711
17581TIP3    H174234   1.895   0.233   3.663 -0.8530  0.4659  0.8362
17581TIP3    H274235   1.897   0.092   3.716  1.8389 -0.2816 -0.9925
17582TIP3   OH274236   0.491   1.190  16.753  0.0319 -0.2001 -0.6571
17582TIP3    H174237   0.538   1.199  16.670  3.7650 -0.7636  1.1991
17582TIP3    H274238   0.404   1.156  16.728  1.1991 -0.9505 -4.2519
17583TIP3   OH274239   5.566   0.398   4.908  0.0636  0.2952  0.0267
17583TIP3    H174240   5.630   0.415   4.839 -0.7893 -0.8268 -1.0888
17583TIP3    H274241   5.484   0.435   4.874  0.1909  2.3749  1.7496
17584TIP3   OH274242   1.226   6.056   2.009  0.4086 -0.3738 -0.5526
17584TIP3    H174243   1.193   6.034   1.922  1.7038  0.3603 -1.2575
17584TIP3    H274244   1.213   6.151   2.017 -0.3946 -0.5406  0.3788
17585TIP3   OH274245   3.668   0.058   5.190 -0.1290  0.5071 -0.2794
17585TIP3    H174246   3.657   0.008   5.271 -1.8664  1.3979  0.0803
17585TIP3    H274247   3.711  -0.003   5.130  0.8056 -0.3090  1.1592
17586TIP3   OH274248   0.600   4.290  15.687 -0.2452  0.1099  0.2650
17586TIP3    H174249   0.539   4.352  15.728  0.5275  0.5622  0.7506
17586TIP3    H274250   0.577   4.293  15.594 -2.0760 -0.9835  0.6273
17587TIP3   OH274251   1.392   6.263   0.973 -0.5399 -0.1180 -1.2586
17587TIP3    H174252   1.309   6.239   0.931 -0.9833 -0.9758  0.0222
17587TIP3    H274253   1.371   6.264   1.067  1.0027 -0.7490 -0.8840
17588TIP3   OH274254   5.242   3.341  12.987  0.6924  0.1602 -0.4883
17588TIP3    H174255   5.292   3.361  12.908  2.1944 -2.8849 -0.4399
17588TIP3    H274256   5.240   3.246  12.991 -2.1346  0.1842  1.4717
17589TIP3   OH274257   4.827   1.144  12.644 -0.1846 -0.2821  0.1718
17589TIP3    H174258   4.858   1.094  12.721  1.2026  0.0820 -0.1209
17589TIP3    H274259   4.756   1.091  12.609 -0.5340 -0.6925  1.4447
17590TIP3   OH274260   3.050   3.842   0.289  0.0624  0.4166  0.4664
17590TIP3    H174261   2.988   3.775   0.318  1.8229 -2.8482 -2.5465
17590TIP3    H274262   3.010   3.880   0.211  0.6503  0.2441  0.0750
17591TIP3   OH274263   2.946   2.544   2.058  0.2604 -0.1622  0.1968
17591TIP3    H174264   2.948   2.610   1.989 -1.3570  0.2564  0.5120
17591TIP3    H274265   3.006   2.476   2.027  0.4983  0.5772 -1.0426
17592TIP3   OH274266   0.927   5.666   5.093  0.3081 -0.5788  0.1426
17592TIP3    H174267   0.940   5.712   5.010 -3.9562  1.2394  0.2390
17592TIP3    H274268   0.926   5.573   5.069  1.9669 -0.2868 -1.2591
17593TIP3   OH274269   0.929   6.798   0.657  0.4465 -0.0090 -0.4844
17593TIP3    H174270   0.935   6.892   0.637 -0.0392 -0.5170 -3.4729
17593TIP3    H274271   0.923   6.756   0.571  1.8942 -2.9102  0.7150
17594TIP3   OH274272   0.201   1.188  10.999 -0.3057  0.2279 -0.3129
17594TIP3    H174273   0.195   1.202  11.094 -0.3067  1.1748 -0.4418
17594TIP3    H274274   0.291   1.213  10.978 -0.7691  1.6002 -0.7920
17595TIP3   OH274275   4.853   5.662   6.304  0.5413  0.2764 -0.0078
17595TIP3    H174276   4.832   5.686   6.394 -1.5867  0.6477 -0.5597
17595TIP3    H274277   4.781   5.696   6.252  0.1545 -2.5320 -1.5082
17596TIP3   OH274278   2.048   3.375   1.969  0.4732 -0.3174 -0.8340
17596TIP3    H174279   2.142   3.384   1.957  0.4868 -0.0418 -0.5491
17596TIP3    H274280   2.032   3.408   2.058  0.3553 -2.1272 -0.1562
17597TIP3   OH274281   0.504   1.351   4.104  0.3022 -0.0149 -0.1831
17597TIP3    H174282   0.449   1.275   4.125  0.2320  0.5917  2.0658
17597TIP3    H274283   0.567   1.355   4.176  2.8482 -0.1980 -2.2447
17598TIP3   OH274284   3.047   3.679   2.663  0.0279  0.2005  0.7132
17598TIP3    H174285   3.058   3.718   2.750 -0.4480 -0.0554  0.8934
17598TIP3    H274286   3.133   3.644   2.642  0.6484  1.9224  0.2548
17599TIP3   OH274287   3.125   1.235   2.913  0.1604 -0.0501  0.6900
17599TIP3    H174288   3.095   1.325   2.898  0.7385  0.1785  0.8958
17599TIP3    H274289   3.109   1.219   3.006  0.9206  0.1726  0.8680
17600TIP3   OH274290   3.370   4.506  11.088  0.0587 -0.0942  0.8167
17600TIP3    H174291   3.403   4.499  11.177 -0.0460 -0.5111  0.8259
17600TIP3    H274292   3.401   4.591  11.057  0.0907  0.0503  1.2510
17601TIP3   OH274293   2.071   5.809  14.912 -0.7337 -0.2190 -0.0857
17601TIP3    H174294   2.128   5.758  14.970 -0.7563 -0.9845 -0.7149
17601TIP3    H274295   1.992   5.825  14.964 -0.3869 -0.0964  0.4132
17602TIP3   OH274296   3.818   3.758  12.156 -0.1911  0.6954 -0.1533
17602TIP3    H174297   3.910   3.749  12.184 -0.5414 -0.4924  0.7270
17602TIP3    H274298   3.822   3.761  12.061  0.6361 -1.9193 -0.2821
17603TIP3   OH274299   5.345   6.536   0.447  0.8145 -0.0554  0.4475
17603TIP3    H174300   5.440   6.531   0.459  1.0213  0.7266 -0.7174
17603TIP3    H274301   5.327   6.629   0.438 -0.0312 -0.2146  0.4271
17604TIP3   OH274302   5.138   2.449  11.365  0.3023 -0.0609 -0.9493
17604TIP3    H174303   5.076   2.500  11.313 -0.1223 -1.1989 -1.6116
17604TIP3    H274304   5.194   2.407  11.301  2.5177  1.7848 -0.3301
17605TIP3   OH274305   3.625   4.240   3.110 -0.3885  0.2336  0.5918
17605TIP3    H174306   3.553   4.228   3.048 -1.2101 -0.0799  1.5686
17605TIP3    H274307   3.596   4.193   3.189  1.1589 -0.4279  0.8085
17606TIP3   OH274308   2.870   5.615   0.696  0.3146  0.0117  0.2367
17606TIP3    H174309   2.816   5.658   0.762  0.6470  0.6827  0.0766
17606TIP3    H274310   2.807   5.584   0.631 -0.0614 -1.1479  1.1321
17607TIP3   OH274311   0.187   6.231  15.406 -0.9917 -0.4218 -0.7185
17607TIP3    H174312   0.165   6.319  15.438 -2.4739 -1.3842  1.1220
17607TIP3    H274313   0.149   6.227  15.319 -1.8704  0.4200 -0.3945
17608TIP3   OH274314   6.774   5.192  13.428 -0.3561 -0.2331 -0.1033
17608TIP3    H174315   6.793   5.286  13.431  0.0649 -0.3295  0.3265
17608TIP3    H274316   6.678   5.187  13.436 -0.6880  0.2816 -2.8214
17609TIP3   OH274317   2.640   3.717   5.705  0.4547  0.3305 -0.0829
17609TIP3    H174318   2.621   3.806   5.674  2.7348  1.8052  2.2814
17609TIP3    H274319   2.574   3.701   5.773  1.1654  1.0856  0.8237
17610TIP3   OH274320   5.021   2.805  14.773 -0.2931 -0.3607  0.1051
17610TIP3    H174321   5.040   2.870  14.841 -1.0009  0.0120 -0.0445
17610TIP3    H274322   5.033   2.720  14.817  1.5422 -0.1744  0.0552
17611TIP3   OH274323   3.765   2.480   4.465  0.0262  0.4796 -0.0106
17611TIP3    H174324   3.760   2.550   4.530 -0.2039  0.2777  0.1912
17611TIP3    H274325   3.821   2.414   4.506 -0.3145  0.2461  0.0861
17612TIP3   OH274326   5.807   5.668   4.650  0.2263 -0.4114  0.2872
17612TIP3    H174327   5.752   5.680   4.727  1.4919  0.1005  1.1583
17612TIP3    H274328   5.836   5.577   4.654  1.1457 -0.1067  1.0490
17613TIP3   OH274329   2.442   1.096   3.944 -0.0036  0.2297 -0.3720
17613TIP3    H174330   2.463   1.095   3.850  3.7373  1.6578  0.2761
17613TIP3    H274331   2.403   1.182   3.958 -0.2938  0.1311 -0.5603
17614TIP3   OH274332   6.548   0.762  12.891  0.3278  0.1487  0.3095
17614TIP3    H174333   6.531   0.773  12.797 -1.3840 -0.4683  0.5178
17614TIP3    H274334   6.552   0.852  12.925  1.4139  0.3940 -0.3966
17615TIP3   OH274335   1.813   5.966   1.848  0.5638 -0.3797 -0.6220
17615TIP3    H174336   1.718   5.975   1.859  0.1832  0.4966 -3.6727
17615TIP3    H274337   1.849   6.001   1.929 -1.7062 -0.1546  0.3822
17616TIP3   OH274338   0.154   2.258   1.939  0.6842 -0.2890  0.3647
17616TIP3    H174339   0.175   2.172   1.976 -1.2811 -1.5521 -1.2500
17616TIP3    H274340   0.082   2.291   1.993  0.5754 -0.2449  0.1931
17617TIP3   OH274341   3.624   3.586  14.646 -0.0588  0.9536 -0.3876
17617TIP3    H174342   3.542   3.544  14.621  0.6341 -0.1677 -0.8567
17617TIP3    H274343   3.607   3.622  14.733 -0.5202 -0.8961  0.3476
17618TIP3   OH274344   5.757   3.985  15.279 -0.0591 -0.5199  0.2502
17618TIP3    H174345   5.709   3.912  15.240 -0.9182  0.6348 -0.9510
17618TIP3    H274346   5.825   3.944  15.332 -1.8665 -2.2087  1.3796
17619TIP3   OH274347   5.014   3.745   2.432 -0.1104 -0.3238 -0.0576
17619TIP3    H174348   5.107   3.764   2.413 -0.2457 -0.0266 -0.4460
17619TIP3    H274349   4.966   3.802   2.372 -0.5569  0.2099  0.7839
17620TIP3   OH274350   0.122   0.842   1.948 -0.2095 -0.5235  0.2418
17620TIP3    H174351   0.162   0.781   1.885  1.3008  0.0170  0.6515
17620TIP3    H274352   0.114   0.791   2.028 -2.1899 -1.2319 -0.3393
17621TIP3   OH274353   2.522   5.127   1.018 -0.3299 -0.2073 -0.2297
17621TIP3    H174354   2.436   5.122   0.976 -0.4911  0.2930  0.0276
17621TIP3    H274355   2.507   5.096   1.107  0.1053 -1.7012 -0.6558
17622TIP3   OH274356   4.841   5.002  11.715  0.2999 -0.5583  0.3107
17622TIP3    H174357   4.747   4.992  11.701  0.4371 -1.4105 -0.0362
17622TIP3    H274358   4.874   4.913  11.728  0.9619 -0.2161  1.1143
17623TIP3   OH274359   5.061   2.963  11.022 -0.1061 -0.0932 -0.2155
17623TIP3    H174360   5.052   2.926  10.935 -1.4127 -0.7653  0.1854
17623TIP3    H274361   5.134   3.025  11.014  0.5179 -0.9441 -1.4961
17624TIP3   OH274362   0.248   0.822  16.191  0.3513  0.1004 -0.1019
17624TIP3    H174363   0.296   0.891  16.236 -2.5567  1.7049  0.7847
17624TIP3    H274364   0.301   0.743  16.204  2.6128  1.6784  0.8653
17625TIP3   OH274365   0.921   2.163   1.090 -0.1528 -0.3583 -0.3728
17625TIP3    H174366   1.004   2.208   1.108  0.0726 -0.5609 -0.8760
17625TIP3    H274367   0.925   2.143   0.996  0.8117 -3.5078  0.2180
17626TIP3   OH274368   4.149   2.946  15.599 -0.4290  0.4715 -0.2248
17626TIP3    H174369   4.058   2.969  15.620 -0.9162 -1.5122  0.0918
17626TIP3    H274370   4.151   2.942  15.504 -0.2820  1.8629 -0.3013
17627TIP3   OH274371   1.101   1.137  13.597  0.7020  0.9599 -0.0303
17627TIP3    H174372   1.097   1.183  13.682  1.6803  0.5968  0.2367
17627TIP3    H274373   1.195   1.127  13.581  0.5695  2.1196 -1.7677
17628TIP3   OH274374   2.451   5.843  14.018  0.8703 -0.3920  0.6163
17628TIP3    H174375   2.460   5.916  13.956  1.0900 -0.8927  0.0545
17628TIP3    H274376   2.526   5.787  14.001  0.7837 -0.6767  1.1531
17629TIP3   OH274377   3.061   0.075  14.483 -0.3060  0.3901 -0.3786
17629TIP3    H174378   3.012   0.087  14.564  1.7636  1.0249  0.8563
17629TIP3    H274379   3.103   0.160  14.468  0.1745 -0.0366 -1.5570
17630TIP3   OH274380   4.834   0.053   4.345 -0.3279 -0.3252  0.0409
17630TIP3    H174381   4.815  -0.026   4.294  0.4229 -1.0385  0.8203
17630TIP3    H274382   4.750   0.075   4.386 -0.4808 -0.9093  0.0579
17631TIP3   OH274383   3.454   1.984   4.553 -0.4620 -0.4913  0.2634
17631TIP3    H174384   3.542   1.960   4.525 -0.7605 -0.7144 -0.5155
17631TIP3    H274385   3.453   2.080   4.550  0.4132 -0.3639  2.3872
17632TIP3   OH274386   4.090   6.475   1.456 -0.2804  0.2441 -0.4971
17632TIP3    H174387   4.051   6.560   1.476  0.3353  0.2015  0.9549
17632TIP3    H274388   4.184   6.493   1.448 -0.1947 -0.2373 -0.6206
17633TIP3   OH274389   1.203   4.762   5.763 -0.3135 -1.2214 -0.2571
17633TIP3    H174390   1.195   4.820   5.839  0.1422 -0.0956 -1.0466
17633TIP3    H274391   1.267   4.696   5.790  1.4248  0.3549 -0.3350
17634TIP3   OH274392   1.166   6.047  16.120 -0.0432 -0.4441  0.2427
17634TIP3    H174393   1.096   6.030  16.057  0.2872  0.4105 -0.3711
17634TIP3    H274394   1.247   6.028  16.072  0.2129  0.2912  0.3657
17635TIP3   OH274395   6.470   6.671   2.806 -0.1380  0.0763  1.0192
17635TIP3    H174396   6.440   6.617   2.733  1.0180  0.0174  0.5703
17635TIP3    H274397   6.433   6.758   2.787 -0.4851 -0.1178  0.7784
17636TIP3   OH274398   6.205   0.638   2.254 -0.9591  0.3203  0.3458
17636TIP3    H174399   6.281   0.581   2.247  1.6753  3.1386  2.8146
17636TIP3    H274400   6.213   0.699   2.180 -0.4845  0.9218  0.8820
17637TIP3   OH274401   6.543   4.806   5.443  0.2512  0.5720  0.4905
17637TIP3    H174402   6.589   4.889   5.430  0.4585  0.4449  0.4084
17637TIP3    H274403   6.602   4.754   5.498 -0.0398  0.6155  0.8464
17638TIP3   OH274404   4.089   0.261  16.895  0.0054 -0.4442 -0.0074
17638TIP3    H174405   4.162   0.215  16.853  0.9184  1.8210 -1.0153
17638TIP3    H274406   4.020   0.260  16.830 -0.6496 -1.8573  0.6444
17639TIP3   OH274407   0.671   5.287  16.219  0.7419  0.4138 -0.1257
17639TIP3    H174408   0.694   5.340  16.295 -1.4827 -1.2285  1.8440
17639TIP3    H274409   0.705   5.199  16.239 -0.0567 -0.0956 -0.9026
17640TIP3   OH274410   5.941   2.906   5.105 -0.2578  0.1307 -0.5097
17640TIP3    H174411   5.977   2.895   5.194  1.0314 -1.0098 -1.1351
17640TIP3    H274412   5.901   2.822   5.084 -0.4483  0.3520 -1.0482
17641TIP3   OH274413   2.904   2.361   0.832  0.2563 -0.1608  0.1733
17641TIP3    H174414   2.992   2.396   0.843  0.3668 -0.6001  0.6907
17641TIP3    H274415   2.913   2.294   0.763  0.2876 -0.0697  0.0888
17642TIP3   OH274416   3.646   3.636  16.181  0.0077  1.1503  0.7366
17642TIP3    H174417   3.651   3.656  16.088  1.0371  0.7180  0.6868
17642TIP3    H274418   3.667   3.542  16.187 -1.2004  0.8999  1.2959
17643TIP3   OH274419   0.683   4.002  10.470  0.0205 -0.4993 -0.2300
17643TIP3    H174420   0.670   3.916  10.511  0.3606  0.6740  2.5980
17643TIP3    H274421   0.595   4.039  10.464  0.0617 -0.2649  0.4929
17644TIP3   OH274422   1.132   0.322   7.085 -0.4956 -0.0814 -0.1825
17644TIP3    H174423   1.090   0.294   7.166 -1.6630  1.0508 -0.3633
17644TIP3    H274424   1.089   0.271   7.016  2.2278 -2.9777 -0.0080
17645TIP3   OH274425   0.404   4.680   3.113 -0.6512 -0.4834 -0.4115
17645TIP3    H174426   0.404   4.650   3.203 -1.3344  0.4979 -0.0659
17645TIP3    H274427   0.350   4.616   3.066  0.1504 -1.2943 -0.2457
17646TIP3   OH274428   2.202   0.705   2.957  0.1693  0.0915  0.1086
17646TIP3    H174429   2.214   0.712   3.052  1.7434 -0.2344 -0.0322
17646TIP3    H274430   2.226   0.614   2.937 -2.1001 -0.4581 -0.3795
17647TIP3   OH274431   6.730   5.199   4.501  0.1910  0.0117  0.1166
17647TIP3    H174432   6.770   5.252   4.570 -0.6501  0.3998  0.3215
17647TIP3    H274433   6.654   5.249   4.473 -0.0706 -0.6355 -0.3669
17648TIP3   OH274434   5.506   6.005   0.685 -0.2725 -0.8649 -0.2273
17648TIP3    H174435   5.566   6.076   0.706  0.1051 -0.4305 -2.5487
17648TIP3    H274436   5.434   6.047   0.639 -0.3487 -1.8880 -1.0797
17649TIP3   OH274437   0.066   0.857  11.706 -0.4118 -0.0807  0.8927
17649TIP3    H174438   0.066   0.819  11.618 -0.7697 -0.2237  0.9519
17649TIP3    H274439   0.150   0.901  11.713 -0.1992 -0.4356  0.6337
17650TIP3   OH274440   5.710   3.940   6.386 -0.0115 -0.1697  0.4593
17650TIP3    H174441   5.726   3.874   6.318 -0.6150 -1.4703  1.5366
17650TIP3    H274442   5.617   3.958   6.380  0.1960  0.8224 -0.0037
17651TIP3   OH274443   0.769   4.918  11.907  0.0892 -0.5211  0.5461
17651TIP3    H174444   0.676   4.897  11.903 -0.0601  0.2781 -1.7830
17651TIP3    H274445   0.811   4.856  11.847  0.6722  0.7526 -0.4257
17652TIP3   OH274446   6.505   4.879   2.802 -0.5930 -0.7164 -0.1966
17652TIP3    H174447   6.525   4.950   2.741  2.3149  1.3751  2.8357
17652TIP3    H274448   6.452   4.920   2.870  0.9002 -1.4047  1.4674
17653TIP3   OH274449   2.640   1.596   2.870 -0.3117 -0.2226  0.4651
17653TIP3    H174450   2.598   1.622   2.788 -0.2678 -0.2890  0.4219
17653TIP3    H274451   2.610   1.507   2.886 -0.7050 -0.0404  0.7734
17654TIP3   OH274452   5.884   1.703   2.054  0.1650  0.6659  0.3636
17654TIP3    H174453   5.920   1.619   2.081 -0.5275  0.1103 -0.3632
17654TIP3    H274454   5.870   1.694   1.960 -2.0045  0.7476  0.6087
17655TIP3   OH274455   3.039   5.344  16.995 -0.2591  0.2924  0.2032
17655TIP3    H174456   3.058   5.323  17.086 -1.3693 -2.9527 -0.1826
17655TIP3    H274457   3.120   5.323  16.948  0.1995  1.6352  0.3540
17656TIP3   OH274458   0.518   3.684   0.321  0.9367  0.3866 -0.2009
17656TIP3    H174459   0.563   3.663   0.403  0.9409 -0.4986 -0.4147
17656TIP3    H274460   0.579   3.656   0.252  0.4274 -0.0225 -0.4951
17657TIP3   OH274461   4.524   0.816   2.059  0.1822  0.0407  0.0760
17657TIP3    H174462   4.476   0.896   2.038 -0.1801 -0.3427 -0.5683
17657TIP3    H274463   4.497   0.753   1.993  0.1248 -0.7558  0.8356
17658TIP3   OH274464   5.664   0.197  15.758 -0.3986  0.3272  0.4055
17658TIP3    H174465   5.598   0.220  15.693  0.9627 -1.3924 -1.7581
17658TIP3    H274466   5.712   0.278  15.773 -1.0187  0.8635 -0.4174
17659TIP3   OH274467   4.980   5.103   5.438 -0.2869 -0.4497 -0.1107
17659TIP3    H174468   4.922   5.031   5.464  0.0982 -0.5532  0.4535
17659TIP3    H274469   5.055   5.060   5.396 -0.9506 -0.2852 -1.5465
17660TIP3   OH274470   0.495   2.359   0.405 -0.7006 -0.4253 -0.2778
17660TIP3    H174471   0.582   2.370   0.366 -0.2622  0.7090  0.9604
17660TIP3    H274472   0.435   2.395   0.340 -0.0508  0.7864 -0.2338
17661TIP3   OH274473   6.326   1.849  16.666  0.2489 -0.0078 -0.5042
17661TIP3    H174474   6.358   1.931  16.626 -0.9135 -0.0724 -1.6364
17661TIP3    H274475   6.290   1.876  16.750 -1.9910  1.0560 -1.7075
17662TIP3   OH274476   2.819   1.808  16.158  0.2765  0.7740 -0.1321
17662TIP3    H174477   2.776   1.797  16.074 -0.7042  1.6719  0.2248
17662TIP3    H274478   2.748   1.817  16.221  0.9661  2.0526  0.5120
17663TIP3   OH274479   0.147   2.404   0.541 -0.9869 -0.0968  0.1666
17663TIP3    H174480   0.066   2.368   0.503 -1.5719  1.5236 -0.1819
17663TIP3    H274481   0.149   2.494   0.511 -0.5028  0.7209  2.4926
17664TIP3   OH274482   0.823   3.885  13.038  0.3609 -0.2395  0.0567
17664TIP3    H174483   0.794   3.843  12.957  0.6774  0.3399 -0.3601
17664TIP3    H274484   0.751   3.942  13.063 -0.0781 -1.0191  0.6362
17665TIP3   OH274485   5.926   5.143  16.471 -1.0003  0.3265  0.4833
17665TIP3    H174486   5.885   5.076  16.416 -0.8131 -0.0118  0.7515
17665TIP3    H274487   5.866   5.217  16.467 -0.6130  0.6061 -0.8149
17666TIP3   OH274488   5.626   2.437   1.873 -0.6953  0.4806  0.1077
17666TIP3    H174489   5.640   2.406   1.783 -4.1640 -1.5262  0.0968
17666TIP3    H274490   5.698   2.399   1.923 -0.4838 -1.0914 -1.3168
17667TIP3   OH274491   1.136   0.482   3.761 -0.2848 -0.0297  0.5426
17667TIP3    H174492   1.093   0.462   3.677 -0.4029  0.4432  0.4918
17667TIP3    H274493   1.189   0.404   3.779 -1.0827 -0.5797  0.5580
17668TIP3   OH274494   3.088   1.839  11.990 -0.1015 -0.3733 -0.0913
17668TIP3    H174495   3.150   1.910  11.972 -1.4859  1.1373  0.8171
17668TIP3    H274496   3.124   1.796  12.068  1.8351 -2.0564 -1.8139
17669TIP3   OH274497   5.064   4.342  16.292  0.2277 -0.1638 -0.5368
17669TIP3    H174498   5.103   4.279  16.232  0.7887 -0.3037 -0.0387
17669TIP3    H274499   5.133   4.360  16.356 -0.5121 -0.4057  0.3552
17670TIP3   OH274500   4.546   3.726  13.672  0.4474 -0.4812  0.4152
17670TIP3    H174501   4.540   3.755  13.763 -1.1121 -0.0551  0.2058
17670TIP3    H274502   4.482   3.779  13.625  2.2196  0.3078 -1.2319
17671TIP3   OH274503   4.217   3.533   5.631 -0.5061 -0.3141  0.2928
17671TIP3    H174504   4.129   3.534   5.670 -0.4937 -1.3385  0.3750
17671TIP3    H274505   4.248   3.623   5.639 -1.1871 -0.1391  1.0943
17672TIP3   OH274506   3.986   1.280  12.667 -0.1448 -0.3320 -0.0598
17672TIP3    H174507   4.072   1.287  12.708  0.1294  0.6568 -0.7797
17672TIP3    H274508   3.999   1.217  12.596 -0.1848 -0.6678  0.2232
17673TIP3   OH274509   4.080   3.447   3.292 -0.7766  0.2250 -0.5395
17673TIP3    H174510   4.025   3.409   3.224 -3.2501  0.1427  1.3620
17673TIP3    H274511   4.157   3.390   3.295 -2.0813 -1.6577 -1.1263
17674TIP3   OH274512   5.550   2.166  15.315  0.2116  0.0981  0.1784
17674TIP3    H174513   5.511   2.253  15.318  2.0470  1.1191 -2.3877
17674TIP3    H274514   5.641   2.179  15.339 -0.0315 -1.6344  2.4090
17675TIP3   OH274515   0.965   3.611   2.740  0.5171 -0.2078 -0.8028
17675TIP3    H174516   0.927   3.537   2.693 -2.4580 -0.4159  1.6465
17675TIP3    H274517   0.916   3.687   2.709 -1.0308 -0.2635  1.2422
17676TIP3   OH274518   4.620   3.793  12.460 -0.8825  0.7285  0.0665
17676TIP3    H174519   4.538   3.824  12.421 -1.2489  0.6851  0.7965
17676TIP3    H274520   4.673   3.872  12.470 -0.5258  0.6567 -1.1089
17677TIP3   OH274521   1.818   3.586  14.359 -0.1176 -0.0651 -0.1983
17677TIP3    H174522   1.845   3.576  14.450 -1.7681 -1.4884  0.1736
17677TIP3    H274523   1.724   3.599  14.362 -0.0236  1.2825 -1.6500
17678TIP3   OH274524   2.597   2.299   4.789 -0.4789 -0.0364 -0.0099
17678TIP3    H174525   2.567   2.269   4.703  1.1057 -0.5340 -0.4142
17678TIP3    H274526   2.655   2.230   4.820  0.1958  0.8497  0.7707
17679TIP3   OH274527   5.982   5.880   4.706 -0.2327  0.0127 -0.0260
17679TIP3    H174528   5.915   5.812   4.716  0.8503 -0.8509  1.9354
17679TIP3    H274529   6.015   5.894   4.795  1.6372  0.9881 -0.8238
17680TIP3   OH274530   0.516   1.898   0.282  0.2618  0.0102 -0.3890
17680TIP3    H174531   0.436   1.846   0.280 -0.0715  0.5417 -0.9004
17680TIP3    H274532   0.549   1.896   0.192  1.2860 -0.9065 -0.0204
17681TIP3   OH274533   6.775   2.685  13.205  0.3162 -0.1904 -0.1502
17681TIP3    H174534   6.736   2.619  13.262  0.9707  0.0316  0.5622
17681TIP3    H274535   6.838   2.637  13.151  1.2369 -0.0695  0.7878
17682TIP3   OH274536   2.043   0.572   0.166 -0.3127 -0.0975  0.0253
17682TIP3    H174537   2.091   0.534   0.092 -0.2431 -1.6971  0.8488
17682TIP3    H274538   1.958   0.528   0.165  0.7776 -2.6011  2.7102
17683TIP3   OH274539   3.480   1.707   3.377 -0.1561 -0.0493  0.6346
17683TIP3    H174540   3.526   1.705   3.461  1.0791  2.6314  0.1306
17683TIP3    H274541   3.388   1.724   3.400 -0.0187 -0.4083  1.4715
17684TIP3   OH274542   4.662   6.839   0.576 -0.2430  0.0465 -0.1186
17684TIP3    H174543   4.636   6.827   0.667  1.4793  1.4695  0.5999
17684TIP3    H274544   4.638   6.756   0.533 -1.7679 -0.3676  1.4204
17685TIP3   OH274545   0.381   6.484  14.604  0.6016  0.4296  0.4203
17685TIP3    H174546   0.406   6.394  14.625 -0.8162  0.0321  0.5390
17685TIP3    H274547   0.325   6.475  14.526  0.6060  1.2260  0.3214
17686TIP3   OH274548   2.013   1.138  14.067 -0.0921 -0.1060  0.0910
17686TIP3    H174549   2.007   1.187  13.985  0.1080 -1.6261 -0.8858
17686TIP3    H274550   2.024   1.047  14.039 -2.4758 -1.0167  1.8133
17687TIP3   OH274551   4.131   1.058  15.333  0.1884 -0.0921 -0.4751
17687TIP3    H174552   4.177   1.043  15.251  0.1185  1.6150 -0.8675
17687TIP3    H274553   4.039   1.067  15.309  0.2863  1.4152 -0.3810
17688TIP3   OH274554   3.613   6.076  12.655 -0.0469 -0.1441  0.0882
17688TIP3    H174555   3.640   6.129  12.730 -1.7525  1.1334 -0.1455
17688TIP3    H274556   3.616   6.137  12.580  1.4175 -1.3342 -0.8783
17689TIP3   OH274557   0.118   2.139  11.746 -0.6395  0.3851 -0.6663
17689TIP3    H174558   0.067   2.059  11.732  1.1552 -1.1703  1.0792
17689TIP3    H274559   0.064   2.190  11.807  0.2585 -1.8175  2.2063
17690TIP3   OH274560   2.007   2.733  15.778  0.2081 -0.0131 -0.3315
17690TIP3    H174561   1.927   2.702  15.820  0.2723 -0.9134 -0.8417
17690TIP3    H274562   2.076   2.677  15.814  0.7769  1.3055  0.7551
17691TIP3   OH274563   6.819   0.929   0.520  0.1983 -0.1637  0.1244
17691TIP3    H174564   6.794   1.022   0.521  0.6090 -0.0540  1.0238
17691TIP3    H274565   6.770   0.892   0.446  0.0150  0.7619 -0.2324
17692TIP3   OH274566   1.530   3.120   4.304 -0.0288  0.4409  0.1519
17692TIP3    H174567   1.487   3.186   4.249  1.9573  1.2284 -0.5438
17692TIP3    H274568   1.554   3.167   4.383 -0.6310 -0.0542  0.6392
17693TIP3   OH274569   4.567   5.319   1.304 -0.3606 -0.0147 -0.0865
17693TIP3    H174570   4.500   5.327   1.236  1.6448  2.4905 -1.9660
17693TIP3    H274571   4.609   5.235   1.286 -2.3415 -1.2138  0.5949
17694TIP3   OH274572   5.418   1.892  14.808  0.2150  0.0828  0.2772
17694TIP3    H174573   5.476   1.890  14.732  1.9836 -2.6753  1.5558
17694TIP3    H274574   5.440   1.973  14.854  0.2984  0.9437 -1.2212
17695TIP3   OH274575   6.551   5.730  10.393 -0.2038 -0.1512  0.1244
17695TIP3    H174576   6.476   5.772  10.351 -0.1609  0.5658  0.7329
17695TIP3    H274577   6.618   5.798  10.396  0.0223 -0.3940  0.7484
17696TIP3   OH274578   3.720   3.012  16.792  0.0826  0.0781  0.5630
17696TIP3    H174579   3.801   2.962  16.804  0.8350  1.7298  3.1126
17696TIP3    H274580   3.673   3.002  16.875 -0.8194  1.7198  0.2845
17697TIP3   OH274581   0.479   6.306  14.252 -0.3439 -0.6417 -0.2184
17697TIP3    H174582   0.538   6.292  14.178  2.2782 -0.0249  1.6056
17697TIP3    H274583   0.488   6.227  14.305  0.6114  0.3507  1.1710
17698TIP3   OH274584   5.500   3.017   6.057 -1.1518 -0.3374  0.3510
17698TIP3    H174585   5.431   3.045   6.116 -1.6890 -1.5479  0.3380
17698TIP3    H274586   5.578   3.012   6.111 -0.9420  1.4678  0.2722
17699TIP3   OH274587   1.347   3.306   3.247 -0.9419  0.2717 -0.0582
17699TIP3    H174588   1.354   3.318   3.341  1.1651 -1.4684  0.0795
17699TIP3    H274589   1.414   3.240   3.226 -0.3484  1.6503 -2.9681
17700TIP3   OH274590   2.628   4.129   4.728 -0.1468 -0.5532  0.6032
17700TIP3    H174591   2.649   4.042   4.694 -2.3591 -0.9552  0.1402
17700TIP3    H274592   2.568   4.112   4.801  1.4334  0.5020  2.2466
17701TIP3   OH274593   3.019   5.750  10.859  0.1923  0.2310  0.4502
17701TIP3    H174594   3.052   5.766  10.770 -0.0032  1.1341  0.5350
17701TIP3    H274595   2.926   5.773  10.854 -0.2253 -1.2935  0.4825
17702TIP3   OH274596   0.812   1.492  12.598  1.2831  0.0255  1.0597
17702TIP3    H174597   0.818   1.550  12.674  0.4070  0.6163  0.6818
17702TIP3    H274598   0.804   1.551  12.523 -0.9856 -0.5686  0.7852
17703TIP3   OH274599   1.053   2.581  11.548 -0.0705 -0.0312 -1.1177
17703TIP3    H174600   1.046   2.499  11.498 -0.1705  1.3968 -3.6582
17703TIP3    H274601   1.148   2.595  11.557 -0.0534 -0.4464 -0.6459
17704TIP3   OH274602   4.650   6.120  12.391 -0.5653 -0.3581  0.8121
17704TIP3    H174603   4.664   6.045  12.448 -0.0551  0.1656  1.3903
17704TIP3    H274604   4.560   6.110  12.359 -0.3563 -1.4421  0.5279
17705TIP3   OH274605   3.171   1.101   3.548 -0.4904  0.2539  0.3511
17705TIP3    H174606   3.179   1.012   3.582 -2.6932  0.0288  0.4204
17705TIP3    H274607   3.186   1.092   3.454 -1.2089 -0.2837  0.2840
17706TIP3   OH274608   3.406   1.579   5.916 -0.0604 -0.5471 -0.8459
17706TIP3    H174609   3.363   1.665   5.912  1.3026  0.2137  0.0022
17706TIP3    H274610   3.467   1.579   5.842  1.3972  0.0881  0.2958
17707TIP3   OH274611   0.646   3.776  14.237 -0.3204  0.2347 -0.2998
17707TIP3    H174612   0.562   3.745  14.272  0.2451 -0.7822  0.1787
17707TIP3    H274613   0.671   3.847  14.295 -1.0051  0.7874 -0.6521
17708TIP3   OH274614   2.347   1.648   2.106  0.0602  0.4413  0.2690
17708TIP3    H174615   2.336   1.703   2.029  0.3964  2.0396  1.3227
17708TIP3    H274616   2.423   1.593   2.086 -0.4956  0.0699 -0.9346
17709TIP3   OH274617   1.901   1.730  14.428  0.2510  0.6732 -0.5993
17709TIP3    H174618   1.886   1.726  14.522  2.3892 -1.5514 -0.2412
17709TIP3    H274619   1.897   1.823  14.407 -0.0438  1.2479  1.7185
17710TIP3   OH274620   6.135   0.310   5.276  0.2066 -0.1288 -0.5673
17710TIP3    H174621   6.211   0.353   5.316 -0.2163  0.4067 -0.3210
17710TIP3    H274622   6.088   0.273   5.351 -0.8329  1.2670 -0.4812
17711TIP3   OH274623   3.244   6.670  15.489 -0.2010  0.2435 -0.3236
17711TIP3    H174624   3.305   6.641  15.421  1.4927  2.0480  0.3259
17711TIP3    H274625   3.231   6.763  15.471 -0.0392  0.6712  1.5305
17712TIP3   OH274626   5.888   1.641   1.796 -0.0241 -0.1940 -0.4097
17712TIP3    H174627   5.983   1.625   1.802 -0.2995 -1.4736  1.1236
17712TIP3    H274628   5.880   1.709   1.728  1.7682 -2.0148 -2.6250
17713TIP3   OH274629   1.297   2.959  15.051  0.2930 -0.3050  0.0684
17713TIP3    H174630   1.388   2.935  15.071 -0.5416 -3.6512  0.4196
17713TIP3    H274631   1.251   2.950  15.134 -0.4793  1.0207 -0.1890
17714TIP3   OH274632   1.269   0.420  11.430  0.0693 -0.3149  0.9042
17714TIP3    H174633   1.181   0.394  11.457 -0.0617  1.1168  1.9479
17714TIP3    H274634   1.328   0.367  11.483 -0.1002 -1.8873 -0.3799
17715TIP3   OH274635   0.962   2.106  11.900 -0.0922 -0.0446  0.2393
17715TIP3    H174636   0.905   2.096  11.823  2.0864  0.3612 -1.5286
17715TIP3    H274637   1.047   2.072  11.872  1.0912  1.1489  2.1128
17716TIP3   OH274638   3.201   3.365   4.622  0.3298  0.0576  0.0403
17716TIP3    H174639   3.247   3.379   4.540  0.3711  1.6492  0.2856
17716TIP3    H274640   3.111   3.343   4.597  0.6195 -0.6199 -0.4192
17717TIP3   OH274641   1.398   4.601   5.398  0.1617 -0.1446  0.4558
17717TIP3    H174642   1.421   4.694   5.404 -0.1756 -0.0287  0.0163
17717TIP3    H274643   1.409   4.568   5.488  1.0892  0.1219  0.4525
17718TIP3   OH274644   3.649   6.741  12.048 -0.0560 -0.0014 -0.0056
17718TIP3    H174645   3.696   6.772  11.971  0.8445 -1.5938 -0.1350
17718TIP3    H274646   3.715   6.739  12.117 -0.6523  0.5656  0.6012
17719TIP3   OH274647   5.261   0.025   4.324  0.1416  0.3590 -0.4261
17719TIP3    H174648   5.184   0.060   4.280 -2.4086 -2.2721  1.4989
17719TIP3    H274649   5.273  -0.062   4.286 -0.3161 -0.8044  1.9327
17720TIP3   OH274650   5.594   6.059   2.851 -0.6696 -0.1313  0.3456
17720TIP3    H174651   5.647   6.076   2.929 -0.5306  2.1015 -0.1895
17720TIP3    H274652   5.628   5.976   2.817  0.9164  0.0865  1.3056
17721TIP3   OH274653   6.357   2.119  16.597  0.5726 -0.4762  0.1450
17721TIP3    H174654   6.400   2.202  16.575 -0.5327  0.1846  0.4130
17721TIP3    H274655   6.264   2.140  16.603 -0.1460 -2.3333 -2.6568
17722TIP3   OH274656   1.544   1.854   1.281  0.4947  0.1254  0.1650
17722TIP3    H174657   1.533   1.803   1.201  0.8932  1.2218 -0.6088
17722TIP3    H274658   1.578   1.938   1.251  0.3298  0.6705  1.4609
17723TIP3   OH274659   3.582   0.883  14.374  0.3318 -0.3082 -0.6523
17723TIP3    H174660   3.533   0.859  14.295  0.5422  0.5462 -1.0473
17723TIP3    H274661   3.522   0.864  14.445  0.6526 -2.4721 -0.8869
17724TIP3   OH274662   3.760   1.264   3.651  0.5032 -0.1100 -0.2768
17724TIP3    H174663   3.686   1.242   3.595 -0.8548 -0.4330  1.5551
17724TIP3    H274664   3.769   1.189   3.709  0.5910  1.0100  1.2078
17725TIP3   OH274665   3.124   0.595   4.556 -0.1839  0.1806 -0.8454
17725TIP3    H174666   3.202   0.638   4.590  0.8350 -1.4231 -1.0571
17725TIP3    H274667   3.080   0.559   4.633  0.1679 -0.3176 -0.8751
17726TIP3   OH274668   6.848   5.102  13.873  0.1015  0.0438 -0.0524
17726TIP3    H174669   6.754   5.119  13.870  0.0197 -0.2398 -3.3213
17726TIP3    H274670   6.888   5.185  13.844  0.7701 -0.2466  0.0191
17727TIP3   OH274671   0.792   5.208  11.352 -0.5246 -0.0990  0.0478
17727TIP3    H174672   0.815   5.300  11.342  1.0727 -0.2975  1.4357
17727TIP3    H274673   0.774   5.197  11.445 -1.8985 -0.9566 -0.2868
17728TIP3   OH274674   6.592   4.435   1.259  0.2454  0.1801  0.2487
17728TIP3    H174675   6.528   4.430   1.329  0.5586 -0.6819  0.4841
17728TIP3    H274676   6.611   4.344   1.237  0.0483  0.4274 -1.0532
17729TIP3   OH274677   1.111   3.686   4.989  0.3043 -0.1405 -0.1467
17729TIP3    H174678   1.114   3.761   5.047 -1.6939 -0.2420  0.1385
17729TIP3    H274679   1.091   3.612   5.046  2.7585 -1.0368 -0.3386
17730TIP3   OH274680   4.460   3.019  13.499 -0.2117  0.3578  0.5393
17730TIP3    H174681   4.414   2.992  13.578 -0.8518 -1.4739 -0.3919
17730TIP3    H274682   4.394   3.010  13.429  0.8447  0.1210 -0.4625
17731TIP3   OH274683   3.477   6.036   6.402 -0.1695  0.4538 -0.2161
17731TIP3    H174684   3.496   6.119   6.445 -0.6528  0.6671 -0.4037
17731TIP3    H274685   3.389   6.012   6.433 -0.1089  0.1038 -0.3017
17732TIP3   OH274686   6.387   5.310  12.570  0.5923  0.1557  0.1446
17732TIP3    H174687   6.395   5.268  12.656  1.9502 -0.7671 -0.3914
17732TIP3    H274688   6.352   5.397  12.589  2.6704  0.7039  1.8785
17733TIP3   OH274689   6.586   0.031   3.063  0.2845  0.4379 -0.5322
17733TIP3    H174690   6.500  -0.009   3.077  0.6616 -1.1085 -2.2404
17733TIP3    H274691   6.568   0.103   3.003  0.2929 -0.6885 -1.9466
17734TIP3   OH274692   2.518   0.729   4.381 -0.2241  0.4828  0.6125
17734TIP3    H174693   2.490   0.638   4.383 -1.0650  0.2468 -5.1397
17734TIP3    H274694   2.436   0.779   4.374  0.2826  1.1160 -1.4084
17735TIP3   OH274695   5.391   2.436  15.059 -0.1423 -0.3933 -0.2119
17735TIP3    H174696   5.318   2.376  15.052  1.1721 -2.0910  0.0017
17735TIP3    H274697   5.431   2.416  15.144  1.9347 -1.1760 -1.2976
17736TIP3   OH274698   4.761   0.132   5.704  0.5908 -0.2301 -0.5610
17736TIP3    H174699   4.667   0.139   5.683  0.6105  1.2967 -0.2397
17736TIP3    H274700   4.774   0.039   5.722 -0.8681 -0.4694 -0.5851
17737TIP3   OH274701   4.809   0.750  13.232  0.0787  0.4983  1.0099
17737TIP3    H174702   4.795   0.785  13.144  0.7330  0.5383  0.9141
17737TIP3    H274703   4.749   0.675  13.239  0.6558 -0.0492  0.2025
17738TIP3   OH274704   3.369   5.042   0.086  0.4406  0.2053 -0.3504
17738TIP3    H174705   3.313   5.059   0.161  0.7384  0.3670 -0.1609
17738TIP3    H274706   3.432   5.115   0.086  0.5061  0.1526 -0.6926
17739TIP3   OH274707   2.583   3.110   3.861  0.2984  0.4059 -0.1906
17739TIP3    H174708   2.508   3.092   3.917 -0.3906 -0.4497 -1.3377
17739TIP3    H274709   2.648   3.045   3.887  0.4807  0.8453  0.4835
17740TIP3   OH274710   3.468   2.434  16.552  0.1256  0.3658  0.4135
17740TIP3    H174711   3.562   2.437  16.571  0.4148  0.6020 -0.9346
17740TIP3    H274712   3.438   2.354  16.594  0.6925  0.8357  1.7909
17741TIP3   OH274713   0.544   3.178   0.594 -0.2200 -0.0460  1.0154
17741TIP3    H174714   0.560   3.102   0.537  0.5513 -0.2185  1.4465
17741TIP3    H274715   0.501   3.242   0.537  1.3058  0.1097 -0.0201
17742TIP3   OH274716   0.981   3.753   3.833  0.1869  0.4517  0.4450
17742TIP3    H174717   0.962   3.701   3.911 -0.5840 -2.8478 -1.7234
17742TIP3    H274718   0.895   3.768   3.793  0.6824  0.7476 -0.5426
17743TIP3   OH274719   1.847   6.076  16.071 -0.0217  0.2609 -0.1982
17743TIP3    H174720   1.906   6.067  15.997  1.0192  0.9266  0.5190
17743TIP3    H274721   1.899   6.121  16.138 -1.4722  1.2916  0.2961
17744TIP3   OH274722   2.882   5.761  12.978 -0.6596 -0.6126  0.4458
17744TIP3    H174723   2.845   5.848  12.961 -0.3028 -0.8496 -1.8473
17744TIP3    H274724   2.970   5.779  13.012 -0.7308 -0.0538  0.3427
17745TIP3   OH274725   2.087   5.756  12.188 -0.1715  0.4386 -0.2595
17745TIP3    H174726   2.133   5.680  12.224 -0.2200  0.3084 -0.4731
17745TIP3    H274727   2.149   5.794  12.126 -1.3267 -1.2816 -2.5713
17746TIP3   OH274728   6.757   5.314  16.156  0.4917  0.1093  0.0441
17746TIP3    H174729   6.763   5.249  16.086  3.5703  0.8262 -0.5004
17746TIP3    H274730   6.731   5.395  16.112 -0.6533 -0.1233  0.2740
17747TIP3   OH274731   0.754   0.710   6.058 -0.1648 -0.2867 -0.7934
17747TIP3    H174732   0.824   0.706   6.122 -0.6723  0.0457 -0.2056
17747TIP3    H274733   0.699   0.783   6.087 -2.1550 -2.0590  0.2119
17748TIP3   OH274734   1.975   5.054  16.405 -0.0112  0.2107 -0.4243
17748TIP3    H174735   1.973   4.968  16.446  0.7051 -0.4126 -1.6524
17748TIP3    H274736   2.052   5.097  16.442 -0.6400  0.5331  0.5519
17749TIP3   OH274737   0.004   3.773   2.592 -0.3872 -0.1530  0.0216
17749TIP3    H174738   0.038   3.817   2.515  1.7911 -1.6970  0.0099
17749TIP3    H274739  -0.091   3.771   2.579 -0.1936  1.0129 -1.8236
17750TIP3   OH274740   4.871   0.833  16.015  0.0208  0.2266 -0.0916
17750TIP3    H174741   4.951   0.797  15.976 -0.1940 -0.2199 -0.1341
17750TIP3    H274742   4.851   0.910  15.962 -1.3178 -1.3979 -2.1502
17751TIP3   OH274743   2.304   6.250  10.993  0.0100  0.4536 -0.2532
17751TIP3    H174744   2.275   6.264  10.902 -0.6571  2.2991  0.2104
17751TIP3    H274745   2.250   6.177  11.023 -0.4316  0.4372 -1.0412
17752TIP3   OH274746   1.740   1.550   0.816  0.0127  0.4471  0.0936
17752TIP3    H174747   1.795   1.514   0.746 -1.2854  0.6443 -1.0735
17752TIP3    H274748   1.698   1.473   0.855 -0.6965  0.4659 -0.6096
17753TIP3   OH274749   6.221   2.679   1.206  0.4658  0.0109 -0.3922
17753TIP3    H174750   6.175   2.759   1.183 -1.7573 -0.9862  0.2420
17753TIP3    H274751   6.218   2.626   1.126 -0.5731 -0.4920 -0.0474
17754TIP3   OH274752   6.166   1.304   1.711 -0.2371 -0.3514 -0.8673
17754TIP3    H174753   6.143   1.371   1.775  0.9915  1.0365 -1.8048
17754TIP3    H274754   6.247   1.265   1.744 -0.0104 -0.1559 -1.1848
17755TIP3   OH274755   4.264   4.323  16.071  0.6684 -0.1273  0.0241
17755TIP3    H174756   4.251   4.380  16.147 -1.5675 -1.2517  0.5505
17755TIP3    H274757   4.184   4.331  16.020  0.6868 -2.0329 -0.3945
17756TIP3   OH274758   2.001   6.092   2.454 -0.0471 -0.4564 -0.1626
17756TIP3    H174759   1.933   6.140   2.501  0.0530  0.6904 -1.1414
17756TIP3    H274760   1.954   6.030   2.399 -0.1847 -1.4059  0.9794
17757TIP3   OH274761   3.696   1.306  14.494 -0.5121 -0.6304 -0.0549
17757TIP3    H174762   3.664   1.392  14.469  1.7707 -0.0304 -1.2566
17757TIP3    H274763   3.719   1.315  14.587  0.6081  0.4105 -0.4016
17758TIP3   OH274764   0.163   5.281   1.406  0.3833 -0.0120 -0.0929
17758TIP3    H174765   0.116   5.243   1.332 -0.6505  2.4517 -0.8138
17758TIP3    H274766   0.255   5.275   1.383  0.2506 -1.7178 -0.2920
17759TIP3   OH274767   3.896   6.560   5.829 -0.2101  0.3406 -0.4252
17759TIP3    H174768   3.875   6.572   5.922 -0.1457  0.3564 -0.4122
17759TIP3    H274769   3.976   6.612   5.816 -1.2982  1.9664 -0.9481
17760TIP3   OH274770   4.689   0.493  16.869  0.0704 -0.1947 -0.6968
17760TIP3    H174771   4.782   0.484  16.849  0.0436 -1.8283 -0.2851
17760TIP3    H274772   4.665   0.579  16.837  2.1833  1.1304  1.0242
17761TIP3   OH274773   4.624   0.272  16.177 -0.1632 -0.1750 -0.6812
17761TIP3    H174774   4.667   0.220  16.245 -0.0129  0.7941 -0.0262
17761TIP3    H274775   4.690   0.281  16.108  0.2184  0.1733 -0.2682
17762TIP3   OH274776   4.827   2.011   3.208  0.4666 -0.7462 -0.0217
17762TIP3    H174777   4.792   1.966   3.285 -1.0638  1.2408  0.5263
17762TIP3    H274778   4.750   2.037   3.158  1.2775  0.7594 -0.5646
17763TIP3   OH274779   3.386   5.922   0.710  0.5282 -0.1392 -0.1050
17763TIP3    H174780   3.409   5.884   0.794 -1.6432 -1.9402 -0.2331
17763TIP3    H274781   3.355   6.010   0.731  0.5814 -0.3520  0.9042
17764TIP3   OH274782   1.540   0.256  13.746  0.0407  0.9120 -0.1727
17764TIP3    H174783   1.551   0.191  13.815 -0.3015  1.0246 -0.0086
17764TIP3    H274784   1.623   0.256  13.699 -0.5824 -1.0028 -1.3745
17765TIP3   OH274785   4.496   2.954  10.731 -0.0961 -0.5722 -0.0234
17765TIP3    H174786   4.518   2.872  10.775 -1.8576 -0.0971  1.9026
17765TIP3    H274787   4.406   2.973  10.758 -1.0878  0.1661 -3.3209
17766TIP3   OH274788   4.831   4.536  16.462 -0.6936  0.2709  0.2263
17766TIP3    H174789   4.830   4.449  16.502 -1.1353  0.2332  0.1395
17766TIP3    H274790   4.749   4.540  16.412 -0.2793  0.4222 -0.4495
17767TIP3   OH274791   0.726   2.654  14.622 -0.3861 -0.0520 -0.2389
17767TIP3    H174792   0.711   2.664  14.528 -0.9461 -0.3851 -0.1880
17767TIP3    H274793   0.780   2.576  14.629  1.9365  1.4443 -0.4595
17768TIP3   OH274794   4.740   5.620  15.422  0.0768 -0.0083 -0.0066
17768TIP3    H174795   4.692   5.672  15.357  1.3417 -0.0542 -1.0109
17768TIP3    H274796   4.671   5.574  15.471 -0.9336  0.5400 -0.8674
17769TIP3   OH274797   2.725   1.118  14.431  0.3245  0.6019  0.4802
17769TIP3    H174798   2.815   1.132  14.459 -0.1850  0.0211  2.5951
17769TIP3    H274799   2.675   1.116  14.512 -1.3828 -0.6447 -0.5479
17770TIP3   OH274800   5.274   0.540  14.624 -0.2230  0.2351  0.1568
17770TIP3    H174801   5.336   0.509  14.558  0.6012  1.3010  0.4120
17770TIP3    H274802   5.258   0.463  14.679  0.9696 -0.0356  0.1619
17771TIP3   OH274803   3.771   2.198   4.715  0.4059  0.2779 -0.1400
17771TIP3    H174804   3.806   2.225   4.630  0.6394  1.1327  0.2221
17771TIP3    H274805   3.677   2.184   4.698  0.5509 -0.1352 -0.6613
17772TIP3   OH274806   1.474   2.939   0.322 -0.0328 -0.2366 -0.1276
17772TIP3    H174807   1.396   2.910   0.368 -0.8505  3.0789  0.8453
17772TIP3    H274808   1.449   2.935   0.229 -1.6360  1.3064  0.1869
17773TIP3   OH274809   0.091   3.949   0.571 -0.1489  0.2113  0.4521
17773TIP3    H174810   0.124   3.865   0.538 -0.1060  0.1907  0.5476
17773TIP3    H274811   0.111   3.947   0.665  1.0561  0.8864  0.2258
17774TIP3   OH274812   5.096   4.837  14.298  0.6473  0.0515 -0.1954
17774TIP3    H174813   5.074   4.814  14.388  2.2018 -0.6290  0.0487
17774TIP3    H274814   5.026   4.895  14.270  0.1869  0.3507  1.4815
17775TIP3   OH274815   4.811   0.198  10.278  0.0922  0.2120 -0.0144
17775TIP3    H174816   4.860   0.272  10.313 -1.7708  1.9537 -0.9657
17775TIP3    H274817   4.731   0.194  10.330 -0.6194 -0.0437 -1.1058
17776TIP3   OH274818   1.422   6.598  17.046 -0.0328 -0.3251 -0.4281
17776TIP3    H174819   1.374   6.538  16.989  0.3400  0.2560 -1.3728
17776TIP3    H274820   1.514   6.583  17.024  0.0678  0.5626 -0.6653
17777TIP3   OH274821   3.398   1.404   0.714  0.0106  0.7005 -0.4235
17777TIP3    H174822   3.419   1.363   0.798 -2.1114  0.0162 -0.1810
17777TIP3    H274823   3.379   1.495   0.735 -2.1318  0.1730  0.1592
17778TIP3   OH274824   4.898   1.467  16.461  0.3094  0.7063 -0.5138
17778TIP3    H174825   4.863   1.450  16.549 -1.0864  1.9168 -0.7895
17778TIP3    H274826   4.980   1.513  16.476  0.8896 -0.4898  0.1422
17779TIP3   OH274827   4.484   4.555   0.126  0.4003  0.8055 -0.4384
17779TIP3    H174828   4.403   4.601   0.101 -2.6304 -3.0707  1.1222
17779TIP3    H274829   4.488   4.480   0.067  1.6733 -0.1881  0.8408
17780TIP3   OH274830   1.776   5.197  13.861  0.2851  0.3708 -0.0093
17780TIP3    H174831   1.729   5.162  13.937  0.3157 -3.5956 -1.6049
17780TIP3    H274832   1.869   5.179  13.880  0.2160 -1.7420 -1.3410
17781TIP3   OH274833   5.448   6.049  12.218 -0.0569  0.7081  0.4482
17781TIP3    H174834   5.407   6.134  12.207 -0.0909  0.7249  0.6964
17781TIP3    H274835   5.537   6.069  12.248  0.1021  0.6699 -0.0007
17782TIP3   OH274836   1.213   0.575  15.019  0.3815 -1.0042 -0.5363
17782TIP3    H174837   1.130   0.605  15.057  0.2586 -1.4447 -0.4482
17782TIP3    H274838   1.201   0.480  15.007  1.2225 -1.2465  0.3973
17783TIP3   OH274839   2.749   2.593   1.502  0.4065  0.3960 -0.1261
17783TIP3    H174840   2.714   2.606   1.591 -3.0216 -0.2903 -1.2294
17783TIP3    H274841   2.782   2.503   1.503 -2.7213 -0.8889 -0.2997
17784TIP3   OH274842   1.490   3.550  15.279 -0.2435  0.1385 -0.0536
17784TIP3    H174843   1.501   3.640  15.248  0.5986 -0.7519 -2.6334
17784TIP3    H274844   1.395   3.539  15.289 -0.2721  2.0463  3.0278
17785TIP3   OH274845   5.410   5.587   3.241 -0.6078 -0.4279  0.6691
17785TIP3    H174846   5.460   5.585   3.322 -0.1294  0.1312  0.3933
17785TIP3    H274847   5.325   5.623   3.265 -0.5794 -0.5596  0.9731
17786TIP3   OH274848   1.420   3.588  14.821 -0.8247 -0.2006 -0.4197
17786TIP3    H174849   1.327   3.601  14.799 -0.6860  0.0627 -0.8608
17786TIP3    H274850   1.437   3.496  14.800 -0.9702 -0.2315 -0.4025
17787TIP3   OH274851   5.282   6.068  13.072  0.5844  0.1849  0.5822
17787TIP3    H174852   5.332   6.004  13.021 -2.4247 -1.7022 -0.2687
17787TIP3    H274853   5.222   6.014  13.125  0.9494  2.2302  3.2846
17788TIP3   OH274854   3.461   0.388  16.071 -0.5993  0.2394 -0.9468
17788TIP3    H174855   3.484   0.306  16.114 -2.9222  0.5911  1.1732
17788TIP3    H274856   3.530   0.449  16.097 -0.4967 -0.2721  0.0369
17789TIP3   OH274857   5.346   5.446   4.799  0.1290 -1.0150  0.4449
17789TIP3    H174858   5.369   5.448   4.892 -0.5543  0.6615  0.6144
17789TIP3    H274859   5.384   5.526   4.764 -1.5964 -0.4456 -0.2045
17790TIP3   OH274860   1.814   5.229  14.864 -0.5767  0.1078 -0.2038
17790TIP3    H174861   1.837   5.270  14.948 -1.6439  1.1081 -0.3743
17790TIP3    H274862   1.897   5.227  14.815 -0.3532  1.4763  0.0756
17791TIP3   OH274863   6.416   2.381  16.313  0.0827 -0.1377  0.2449
17791TIP3    H174864   6.332   2.350  16.346  0.5048 -0.1896  1.3569
17791TIP3    H274865   6.475   2.373  16.389  0.6272  1.7310  0.0594
17792TIP3   OH274866   5.450   0.376   2.419 -0.3562  0.2212 -0.1172
17792TIP3    H174867   5.415   0.458   2.384 -0.8137  0.1925  0.2711
17792TIP3    H274868   5.430   0.379   2.512 -0.9106 -0.6003 -0.2057
17793TIP3   OH274869   4.195   1.023   2.209  0.8595  0.2410  0.1025
17793TIP3    H174870   4.205   1.085   2.137  0.5562  2.3376  1.7488
17793TIP3    H274871   4.101   1.006   2.214  0.9995 -0.8993 -0.7284
17794TIP3   OH274872   0.091   0.641   5.965  0.4062  0.7709 -0.2996
17794TIP3    H174873   0.043   0.682   6.037 -0.0411  1.2815 -0.8703
17794TIP3    H274874   0.067   0.549   5.970 -0.8816  1.0580 -0.7294
17795TIP3   OH274875   3.705   0.454   3.879  0.2471  0.4323  0.0514
17795TIP3    H174876   3.762   0.432   3.953 -2.1809 -2.3804  1.3247
17795TIP3    H274877   3.747   0.415   3.803  1.1794  0.4750  0.5384
17796TIP3   OH274878   1.314   5.537  15.289  0.3185  0.4036 -0.1081
17796TIP3    H174879   1.396   5.530  15.239  0.3552 -2.1818  0.1375
17796TIP3    H274880   1.269   5.612  15.251  3.1498  2.4589  0.3421
17797TIP3   OH274881   3.636   4.951  17.048  0.3191  0.2688  0.4614
17797TIP3    H174882   3.597   4.966  16.962 -0.4507 -1.4834  0.4715
17797TIP3    H274883   3.730   4.953  17.031  0.2016  0.9949 -0.2076
17798TIP3   OH274884   3.389   4.787   0.167  0.4228 -0.2394 -0.5510
17798TIP3    H174885   3.294   4.784   0.184  0.3849 -0.2095 -0.7531
17798TIP3    H274886   3.409   4.881   0.166  0.4150 -0.2402 -0.7302
17799TIP3   OH274887   6.549   4.844   4.880 -0.4707 -0.0318 -0.2640
17799TIP3    H174888   6.611   4.900   4.833  1.4576  0.1634  2.2796
17799TIP3    H274889   6.487   4.906   4.920 -2.0304 -0.1898 -2.3002
17800TIP3   OH274890   4.850   5.371   4.557  0.0864  0.3557  0.3713
17800TIP3    H174891   4.845   5.299   4.495 -0.0576  0.2415  0.5117
17800TIP3    H274892   4.910   5.434   4.518 -1.3017  1.0671 -0.7020
17801TIP3   OH274893   1.381   6.051  12.191 -0.1674  0.1255  0.7183
17801TIP3    H174894   1.461   6.047  12.138 -0.6967  1.0292 -0.1670
17801TIP3    H274895   1.375   6.142  12.219 -0.8342  0.0371  0.8748
17802TIP3   OH274896   5.343   6.715  12.046 -0.4873  0.0563 -0.2215
17802TIP3    H174897   5.385   6.731  12.131 -0.4952  1.5764 -0.4835
17802TIP3    H274898   5.258   6.759  12.052 -0.8157 -0.5007 -0.7413
17803TIP3   OH274899   1.859   6.312   1.481  0.0721 -0.1581  0.4727
17803TIP3    H174900   1.830   6.353   1.563 -1.3168 -1.1873  0.5304
17803TIP3    H274901   1.778   6.301   1.431  0.8758  0.2634 -0.9690
17804TIP3   OH274902   5.470   1.810  16.038 -0.0706 -0.5240  0.2638
17804TIP3    H174903   5.534   1.880  16.030  0.1480 -0.7622 -0.1040
17804TIP3    H274904   5.521   1.730  16.049 -0.3227 -0.6008  0.9512
17805TIP3   OH274905   0.655   1.700  12.270  0.8825 -0.3699  0.0478
17805TIP3    H174906   0.721   1.705  12.339 -0.3340  0.7948  1.1822
17805TIP3    H274907   0.621   1.789  12.263 -0.6884 -0.9765 -0.3872
17806TIP3   OH274908   1.002   3.010  10.885  0.5445 -0.2331 -0.3377
17806TIP3    H174909   1.042   2.950  10.823  1.0798 -0.3789  0.1377
17806TIP3    H274910   0.913   3.023  10.852  0.3602 -1.4224 -0.3530
17807TIP3   OH274911   3.064   6.624  15.759  0.2312 -0.3910  0.1416
17807TIP3    H174912   3.106   6.648  15.842  0.4405 -0.6945  0.1273
17807TIP3    H274913   3.092   6.692  15.698 -1.7450  1.1283  0.8299
17808TIP3   OH274914   1.331   4.227   0.162  0.0259  0.8466  0.0953
17808TIP3    H174915   1.393   4.257   0.228  0.4147 -0.0097  0.1212
17808TIP3    H274916   1.362   4.269   0.081  0.6726  0.3864  0.0961
17809TIP3   OH274917   1.832   0.792   0.979 -0.1455 -0.3867  0.0226
17809TIP3    H174918   1.787   0.865   1.023 -1.3831 -1.0515 -0.0746
17809TIP3    H274919   1.773   0.717   0.992  1.1641 -1.4098  0.2389
17810TIP3   OH274920   3.386   3.935   5.559 -0.1837  0.5162 -0.0299
17810TIP3    H174921   3.313   3.902   5.505  0.5588 -0.4765 -0.4673
17810TIP3    H274922   3.351   3.937   5.648 -0.8485  0.3645 -0.2822
17811TIP3   OH274923   3.794   1.339  16.698 -0.3281  0.3569 -0.0485
17811TIP3    H174924   3.784   1.255  16.742  1.1006 -0.7842 -1.7914
17811TIP3    H274925   3.732   1.335  16.625  0.3783  0.4278 -0.6622
17812TIP3   OH274926   3.050   3.142  13.904  0.2154 -0.3532  0.1122
17812TIP3    H174927   3.100   3.086  13.964  0.4774 -0.4534 -0.1925
17812TIP3    H274928   3.081   3.116  13.817  0.8400  0.7422 -0.0033
17813TIP3   OH274929   4.992   6.289   6.029  0.0476 -0.0491 -0.4373
17813TIP3    H174930   4.954   6.267   5.943  0.0098  1.4505 -0.8353
17813TIP3    H274931   5.072   6.237   6.033  0.1137 -0.0585 -1.4419
17814TIP3   OH274932   6.326   5.489  11.982 -0.0241  0.2703 -0.1763
17814TIP3    H174933   6.356   5.576  11.955 -1.6715  0.2015 -2.5403
17814TIP3    H274934   6.258   5.466  11.919  0.4746 -2.8350  0.2176
17815TIP3   OH274935   4.115   5.430  12.834 -0.1731 -0.5009  0.1370
17815TIP3    H174936   4.193   5.412  12.782  0.5989  0.7423  0.8332
17815TIP3    H274937   4.052   5.465  12.771  1.1607  2.1423  0.1490
17816TIP3   OH274938   3.861   0.192   1.908  0.3078  0.8614  1.0949
17816TIP3    H174939   3.778   0.231   1.884 -0.4347 -2.0098 -1.7462
17816TIP3    H274940   3.913   0.194   1.827  0.8209 -2.2880  1.2245
17817TIP3   OH274941   1.571   5.684   3.603 -0.3558 -0.4688  0.2532
17817TIP3    H174942   1.486   5.725   3.618 -0.5267 -0.0553 -1.6247
17817TIP3    H274943   1.605   5.726   3.524  0.7910 -1.8609 -0.0497
17818TIP3   OH274944   4.105   2.781   0.244 -0.6962  0.0219  0.1519
17818TIP3    H174945   4.147   2.788   0.159 -0.0954 -1.0588  0.3427
17818TIP3    H274946   4.012   2.770   0.224 -0.4385 -1.3006 -0.4181
17819TIP3   OH274947   1.877   5.166  16.042 -0.0029 -0.0970  0.0612
17819TIP3    H174948   1.926   5.144  15.963  1.1678  2.1308  0.0734
17819TIP3    H274949   1.785   5.159  16.015  0.3509 -0.6314 -1.1102
17820TIP3   OH274950   2.384   6.370   5.903  0.2888  0.0104  0.0610
17820TIP3    H174951   2.427   6.392   5.985  1.2382 -0.6944 -0.2238
17820TIP3    H274952   2.374   6.275   5.907 -2.0410  0.2161  0.4816
17821TIP3   OH274953   2.742   0.373  16.411  0.4184 -0.0754  0.4780
17821TIP3    H174954   2.835   0.356  16.402  0.2490 -0.3857 -0.8658
17821TIP3    H274955   2.736   0.466  16.433  1.0078  0.1320 -0.2253
17822TIP3   OH274956   1.951   6.194   3.649 -0.1516 -0.0399 -0.5429
17822TIP3    H174957   2.008   6.217   3.723  1.5609 -3.7729 -0.4992
17822TIP3    H274958   1.978   6.254   3.580  0.3316  1.5122  0.8954
17823TIP3   OH274959   6.850   5.460   4.634 -0.0819 -0.1488 -0.1177
17823TIP3    H174960   6.790   5.523   4.594  0.0337 -0.9266 -1.5932
17823TIP3    H274961   6.917   5.445   4.567 -0.0402 -1.7357  0.2274
17824TIP3   OH274962   5.981   0.332   4.578 -0.5715 -0.2921 -0.2883
17824TIP3    H174963   6.051   0.270   4.560  1.9575  2.6092 -1.2557
17824TIP3    H274964   5.961   0.319   4.671  0.4788 -1.9052 -0.2461
17825TIP3   OH274965   4.491   5.600   2.153  0.1119 -0.4982  0.7448
17825TIP3    H174966   4.542   5.581   2.231 -0.6021 -0.3281  1.2591
17825TIP3    H274967   4.537   5.673   2.111 -0.4400  0.5630  1.9201
17826TIP3   OH274968   0.533   2.141  16.157  0.2189 -0.4116 -0.1424
17826TIP3    H174969   0.533   2.106  16.245  3.4331  0.5031  0.3641
17826TIP3    H274970   0.555   2.234  16.168 -1.6697  0.3199 -1.8135
17827TIP3   OH274971   0.848   5.564  15.073  0.3677 -0.5392  0.1297
17827TIP3    H174972   0.929   5.530  15.036 -0.3500  0.4456 -2.6298
17827TIP3    H274973   0.835   5.514  15.154  3.4215 -1.0433  0.4071
17828TIP3   OH274974   3.770   1.853   4.838  0.1900  0.6277 -0.4608
17828TIP3    H174975   3.865   1.857   4.830  0.3920 -0.2382  1.1508
17828TIP3    H274976   3.749   1.760   4.835 -0.3372  0.6500  1.5346
17829TIP3   OH274977   5.791   4.543   3.778  0.1816  0.1215 -0.2327
17829TIP3    H174978   5.755   4.455   3.769 -0.2969  0.2846  0.0424
17829TIP3    H274979   5.726   4.590   3.830  1.7715 -0.1905  2.1962
17830TIP3   OH274980   6.530   5.610   5.716  1.0646 -0.5872  0.5609
17830TIP3    H174981   6.595   5.655   5.770  0.4730 -1.1786  1.7918
17830TIP3    H274982   6.455   5.596   5.773 -0.1652  0.0481 -0.8325
17831TIP3   OH274983   3.514   1.241   5.219 -0.0661 -0.5911 -0.1781
17831TIP3    H174984   3.524   1.220   5.126  1.4300 -1.9277  0.2366
17831TIP3    H274985   3.603   1.256   5.250 -0.3838 -1.5602  1.3183
17832TIP3   OH274986   3.249   0.391   0.908  0.3008 -0.1507 -0.0118
17832TIP3    H174987   3.260   0.454   0.837  0.1668 -0.1625 -0.0445
17832TIP3    H274988   3.338   0.361   0.928  0.3349 -0.1867 -0.2115
17833TIP3   OH274989   1.491   3.382   4.787  0.2901 -0.0017  0.8151
17833TIP3    H174990   1.547   3.458   4.800 -0.4502  0.8621 -0.7739
17833TIP3    H274991   1.403   3.413   4.806 -0.2965  0.1944 -1.8403
17834TIP3   OH274992   5.935   2.161  12.560  0.0630 -0.0031 -0.4428
17834TIP3    H174993   5.863   2.116  12.605  0.6707  0.0292  0.6000
17834TIP3    H274994   6.012   2.107  12.579  0.4622  0.4219 -0.8298
17835TIP3   OH274995   3.046   4.066  14.931  0.0439  0.8010 -1.4077
17835TIP3    H174996   3.093   4.113  14.861 -0.0919 -0.2337 -2.2263
17835TIP3    H274997   3.109   4.001  14.961 -0.3158  0.4554 -1.3998
17836TIP3   OH274998   2.739   1.403   4.888  0.0428  0.1347  0.0052
17836TIP3    H174999   2.776   1.424   4.974 -0.9808  0.4031  0.4013
17836TIP3    H275000   2.808   1.355   4.843  1.7364  2.5321 -0.1386
17837TIP3   OH275001   5.957   3.678   1.906 -0.5063  0.2127  0.0314
17837TIP3    H175002   5.887   3.615   1.892 -1.3036  0.8077  1.1742
17837TIP3    H275003   5.958   3.731   1.826 -1.9317  0.7252  0.3276
17838TIP3   OH275004   1.267   0.689  14.543  0.0809 -0.9293 -0.9546
17838TIP3    H175005   1.291   0.729  14.626  0.3587 -0.5671 -1.2082
17838TIP3    H275006   1.320   0.610  14.538 -1.9517 -2.5141  0.5246
17839TIP3   OH275007   4.716   3.049  11.758 -0.2342 -0.0246 -0.1052
17839TIP3    H175008   4.714   2.963  11.716 -2.2389 -0.1252  0.1338
17839TIP3    H275009   4.683   3.033  11.847 -2.8556  1.3200 -0.7656
17840TIP3   OH275010   3.800   0.762  11.028 -0.0644  0.5040  0.0842
17840TIP3    H175011   3.785   0.707  10.951 -1.3029  1.2497 -0.2461
17840TIP3    H275012   3.774   0.850  10.999 -0.2831  0.8442  1.2666
17841TIP3   OH275013   2.662   1.354  13.017 -0.7360  0.3110 -0.2791
17841TIP3    H175014   2.577   1.398  13.020  0.0249  1.8377  0.6274
17841TIP3    H275015   2.643   1.261  13.027 -2.3332  0.5622 -0.8117
17842TIP3   OH275016   2.996   0.150  11.668  0.6912  0.4538  0.5235
17842TIP3    H175017   3.055   0.079  11.643 -0.8525 -1.2181  1.4401
17842TIP3    H275018   2.946   0.169  11.589  0.3059 -0.2897  0.5865
17843TIP3   OH275019   2.599   4.962   0.619 -0.8856 -0.0546 -0.6754
17843TIP3    H175020   2.586   5.055   0.634 -0.5489  0.0408 -0.9671
17843TIP3    H275021   2.616   4.926   0.706 -3.0290 -0.1898 -0.2600
17844TIP3   OH275022   0.669   4.621   2.937  0.0850  0.0515 -0.2017
17844TIP3    H175023   0.606   4.660   2.876  0.4673  1.0272  0.0257
17844TIP3    H275024   0.615   4.564   2.992 -1.0230  2.4423  1.3681
17845TIP3   OH275025   0.197   2.571  16.644  0.2392 -0.6416 -0.0684
17845TIP3    H175026   0.236   2.507  16.704 -0.0739  0.7175  1.6876
17845TIP3    H275027   0.271   2.606  16.595  1.1543  0.9503  2.2783
17846TIP3   OH275028   1.180   1.451  16.088 -0.1945  0.1983 -0.6069
17846TIP3    H175029   1.171   1.546  16.097 -0.8721  0.0851 -0.0204
17846TIP3    H275030   1.268   1.433  16.123  0.3450  0.7111 -1.6425
17847TIP3   OH275031   5.454   3.440   4.753 -0.2654  0.1044  0.8441
17847TIP3    H175032   5.520   3.417   4.819 -0.8825 -1.5188  0.9421
17847TIP3    H275033   5.373   3.448   4.803 -0.6365 -0.6063  0.3834
17848TIP3   OH275034   4.156   2.663  11.871 -0.8464  0.3579  0.2302
17848TIP3    H175035   4.112   2.640  11.952 -0.7111 -0.5183  0.0588
17848TIP3    H275036   4.096   2.635  11.802  0.2161 -1.4440 -0.0255
17849TIP3   OH275037   6.128   1.622  10.705 -0.2975 -0.0355 -0.3127
17849TIP3    H175038   6.064   1.687  10.675  0.3103  1.4453  1.4629
17849TIP3    H275039   6.154   1.651  10.792  1.9517 -1.2348 -0.5053
17850TIP3   OH275040   0.378   2.892  13.860  0.2569 -0.3097 -0.3512
17850TIP3    H175041   0.377   2.802  13.826  1.9000 -0.4784  0.0109
17850TIP3    H275042   0.390   2.947  13.782  0.5530 -0.4855 -0.4300
17851TIP3   OH275043   2.801   3.115   5.228  0.7779  0.2602  0.2991
17851TIP3    H175044   2.733   3.125   5.160  0.4913  0.9021  0.6719
17851TIP3    H275045   2.854   3.041   5.198  0.1326 -0.0160 -0.1880
17852TIP3   OH275046   6.621   1.275   1.993  0.3458 -0.3068  0.2685
17852TIP3    H175047   6.589   1.358   2.028  2.2566  0.7768 -0.3936
17852TIP3    H275048   6.675   1.238   2.064 -0.7748 -1.1948  0.6909
17853TIP3   OH275049   3.772   3.885  11.527 -0.4655  0.3385  0.3044
17853TIP3    H175050   3.801   3.841  11.447  0.7959 -0.3363  1.1028
17853TIP3    H275051   3.829   3.851  11.595 -1.4080  1.0307  1.4784
17854TIP3   OH275052   5.025   4.070  12.280  0.5097 -0.3616 -1.3195
17854TIP3    H175053   5.062   4.109  12.201 -0.7603  2.6988 -0.5340
17854TIP3    H275054   5.099   4.067  12.342  0.7706  0.3157 -1.5891
17855TIP3   OH275055   1.274   4.323   2.332 -0.2962 -0.1126  0.3612
17855TIP3    H175056   1.206   4.390   2.318 -2.4414 -2.3961 -0.9913
17855TIP3    H275057   1.259   4.292   2.421 -1.2347 -0.7526 -0.0030
17856TIP3   OH275058   4.421   0.986   4.757 -0.1807 -0.0848 -0.2311
17856TIP3    H175059   4.326   0.976   4.761  0.0049 -1.8152  0.5689
17856TIP3    H275060   4.455   0.897   4.761  1.5156  0.5524  0.6265
17857TIP3   OH275061   6.376   6.218   0.570 -0.2009  0.5843 -0.3083
17857TIP3    H175062   6.286   6.208   0.539 -0.7349 -1.2186  1.5343
17857TIP3    H275063   6.388   6.145   0.632  2.2872  1.2056  0.0582
17858TIP3   OH275064   5.373   0.104   2.465 -0.3486  0.1689  0.0679
17858TIP3    H175065   5.457   0.071   2.434 -0.4617  0.0268 -0.0899
17858TIP3    H275066   5.367   0.192   2.429 -0.0495  0.3586  0.4817
17859TIP3   OH275067   4.226   3.528  13.046 -0.1111  0.3994  0.0395
17859TIP3    H175068   4.156   3.485  12.998 -1.4311  1.1260  1.2301
17859TIP3    H275069   4.291   3.552  12.980 -1.4927  0.6691 -1.2547
17860TIP3   OH275070   5.618   3.355   4.994  0.2314  0.1310  0.4322
17860TIP3    H175071   5.581   3.289   5.054  0.1339  0.9722  1.3222
17860TIP3    H275072   5.676   3.407   5.049 -0.6720  1.5945  0.0344
17861TIP3   OH275073   0.079   0.210   2.158 -0.0607 -0.0864  0.5399
17861TIP3    H175074   0.148   0.227   2.223 -0.3364 -0.1307  0.8427
17861TIP3    H275075   0.043   0.125   2.182 -1.2071  0.5765  1.2647
17862TIP3   OH275076   3.067   4.408   2.340 -0.2800  0.9506  0.0726
17862TIP3    H175077   3.011   4.485   2.331 -1.6004 -0.0016 -0.0216
17862TIP3    H275078   3.008   4.338   2.366  0.6633 -0.3573 -1.1494
17863TIP3   OH275079   6.836   4.798  10.926  0.0401 -0.0686 -0.0188
17863TIP3    H175080   6.772   4.868  10.934 -1.1716 -1.2585  1.4570
17863TIP3    H275081   6.852   4.790  10.832 -1.7086  0.5283 -0.4012
17864TIP3   OH275082   4.314   2.912   6.351  0.3669  0.1230  0.4702
17864TIP3    H175083   4.236   2.913   6.407 -0.0481 -1.6310 -0.0084
17864TIP3    H275084   4.285   2.868   6.271  0.9310  2.5684 -1.1969
17865TIP3   OH275085   5.028   4.330  12.600 -0.0008  0.0236 -0.2748
17865TIP3    H175086   5.077   4.411  12.587  0.7927 -0.8236 -3.3524
17865TIP3    H275087   5.003   4.332  12.693 -1.2081  4.3662 -0.4737
17866TIP3   OH275088   5.262   4.078   4.834 -0.4083  0.9508 -0.0909
17866TIP3    H175089   5.174   4.112   4.847  0.2558  2.1916  1.6674
17866TIP3    H275090   5.305   4.143   4.778 -0.4415  0.6619 -0.4505
17867TIP3   OH275091   0.402   2.679   3.559 -0.1867 -0.0363 -0.2904
17867TIP3    H175092   0.371   2.602   3.511 -0.3244  0.0828 -0.3934
17867TIP3    H275093   0.483   2.650   3.602 -0.7524 -0.5188  0.4635
17868TIP3   OH275094   6.164   5.774  11.297  0.4149  0.0262  0.3438
17868TIP3    H175095   6.092   5.834  11.314 -1.2386 -0.8930 -2.7104
17868TIP3    H275096   6.233   5.829  11.260  0.9072  0.7176  2.1718
17869TIP3   OH275097   0.984   6.090  17.095  0.3774 -0.3368 -0.2150
17869TIP3    H175098   0.951   6.045  17.017 -0.2801 -0.1681 -0.0327
17869TIP3    H275099   0.907   6.128  17.136  0.6434 -0.9590  0.8757
17870TIP3   OH275100   6.120   5.303   2.283  0.5906  0.2393  0.8874
17870TIP3    H175101   6.101   5.366   2.352  0.1057 -1.5251  2.4458
17870TIP3    H275102   6.074   5.224   2.310  0.2526 -0.4833 -1.5627
17871TIP3   OH275103   2.378   5.285  16.973 -0.0304  0.1259  0.0973
17871TIP3    H175104   2.288   5.264  16.949  0.2228  0.4037 -1.2247
17871TIP3    H275105   2.371   5.358  17.035 -0.7084  0.6134 -0.5297
17872TIP3   OH275106   5.037   4.076   4.446 -0.1725 -0.0029  0.2800
17872TIP3    H175107   5.000   4.111   4.365 -1.9131  0.2354  1.1291
17872TIP3    H275108   5.037   4.150   4.507 -0.9223 -0.6907  1.1417
17873TIP3   OH275109   3.344   5.851   5.732 -0.6868  0.6806 -0.1477
17873TIP3    H175110   3.339   5.903   5.812 -0.8636 -0.5346  0.6552
17873TIP3    H275111   3.255   5.819   5.718 -0.1611 -1.3230  0.7211
17874TIP3   OH275112   0.632   1.398  15.730 -0.2532 -0.3034 -0.7385
17874TIP3    H175113   0.619   1.484  15.690 -0.6740 -0.3704 -0.7498
17874TIP3    H275114   0.662   1.342  15.658 -3.0501 -0.9633 -1.5105
17875TIP3   OH275115   2.070   0.714   1.079  1.2900 -0.2712 -0.3261
17875TIP3    H175116   1.988   0.730   1.032  0.1837  0.7823  1.8493
17875TIP3    H275117   2.090   0.622   1.059 -1.2840 -1.0642  0.3152
17876TIP3   OH275118   2.042   4.313   2.018 -0.2890  0.0079  0.4212
17876TIP3    H175119   2.130   4.292   1.988  0.5169 -0.5080  2.9776
17876TIP3    H275120   2.016   4.389   1.965 -0.3165 -2.6230 -3.7671
17877TIP3   OH275121   0.705   0.746  12.271  0.1912 -0.4664  1.1296
17877TIP3    H175122   0.624   0.699  12.289  0.7768 -1.5683  0.9663
17877TIP3    H275123   0.677   0.825  12.225 -0.8327 -0.5289  1.6271
17878TIP3   OH275124   5.444   2.153  17.058  0.1271  0.4182  0.0235
17878TIP3    H175125   5.476   2.171  17.147  0.5573  1.3090 -0.2913
17878TIP3    H275126   5.470   2.063  17.041  3.8211  1.4396 -0.7169
17879TIP3   OH275127   2.041   2.438   1.598 -0.2400 -0.4631 -0.0618
17879TIP3    H175128   2.014   2.522   1.635 -1.4985 -1.1279  0.6033
17879TIP3    H275129   2.037   2.451   1.503  2.4732  1.0909 -0.0611
17880TIP3   OH275130   0.687   1.103  16.426  0.1290  0.6850  0.2037
17880TIP3    H175131   0.726   1.162  16.490  1.3271  1.5983 -1.3028
17880TIP3    H275132   0.732   1.123  16.344  1.4058 -3.0332 -0.2066
17881TIP3   OH275133   4.938   3.548   0.404  0.2989  0.2412 -0.3172
17881TIP3    H175134   4.955   3.643   0.399 -1.6886  0.7533  1.2240
17881TIP3    H275135   4.875   3.539   0.475  0.1037 -2.2317 -0.7167
17882TIP3   OH275136   3.242   4.731  12.238  0.2496  0.0863 -0.2163
17882TIP3    H175137   3.222   4.640  12.216  1.4684 -0.0057 -0.9996
17882TIP3    H275138   3.300   4.761  12.169 -0.5226  1.6387 -0.2420
17883TIP3   OH275139   5.873   5.816   5.547  0.1096  0.3046  0.4802
17883TIP3    H175140   5.904   5.767   5.623 -0.7717 -1.2195 -0.0761
17883TIP3    H275141   5.831   5.894   5.583 -0.5467 -0.5295  1.6052
17884TIP3   OH275142   3.619   5.016   0.966  0.2775 -0.6884 -0.4577
17884TIP3    H175143   3.714   5.010   0.966  0.3550 -0.6874  2.4947
17884TIP3    H275144   3.589   4.929   0.939  1.1409 -1.1974  0.1909
17885TIP3   OH275145   1.276   5.433  17.129 -0.8389  0.1111 -0.3586
17885TIP3    H175146   1.289   5.478  17.045  1.4422 -2.6778 -1.6735
17885TIP3    H275147   1.268   5.341  17.106 -3.1967 -0.5157  2.3590
17886TIP3   OH275148   4.754   1.773   1.073  0.3141 -0.2971  0.1493
17886TIP3    H175149   4.788   1.825   1.145  1.1430 -0.1738 -0.3148
17886TIP3    H275150   4.821   1.779   1.005  0.0183 -1.2381 -0.2500
17887TIP3   OH275151   6.290   1.531   4.813 -0.3955 -0.1445 -0.3396
17887TIP3    H175152   6.250   1.525   4.900 -0.3176 -0.1743 -0.3057
17887TIP3    H275153   6.245   1.604   4.771 -1.0470 -0.6871 -0.5942
17888TIP3   OH275154   5.673   4.379  13.417  0.2436  0.3911  0.0070
17888TIP3    H175155   5.695   4.354  13.507  0.8928 -0.6530 -0.4156
17888TIP3    H275156   5.678   4.297  13.368 -1.6803  0.6587 -0.7050
17889TIP3   OH275157   2.827   3.549   5.986  0.0686 -0.0488 -0.7328
17889TIP3    H175158   2.837   3.470   6.039 -1.7551 -0.7588 -1.3723
17889TIP3    H275159   2.832   3.621   6.049 -3.6508 -0.9053  0.7940
17890TIP3   OH275160   6.190   1.538   1.315  0.5759  0.6387 -0.3885
17890TIP3    H175161   6.102   1.572   1.332  0.8017  0.6713  0.7877
17890TIP3    H275162   6.247   1.591   1.370  1.1129 -0.5595  0.2583
17891TIP3   OH275163   6.117   5.838   1.940  0.1844 -0.7087  0.1218
17891TIP3    H175164   6.107   5.744   1.955 -1.1273 -0.5500  0.3906
17891TIP3    H275165   6.056   5.857   1.868  0.0662  0.0175  0.4010
17892TIP3   OH275166   2.986   6.794   0.736  0.1874 -0.1838  0.4146
17892TIP3    H175167   2.919   6.838   0.789 -1.2171 -1.4086 -0.2577
17892TIP3    H275168   2.994   6.849   0.658  0.0765  0.0506  0.5652
17893TIP3   OH275169   0.934   4.218   3.958  0.6888 -1.0827 -0.2112
17893TIP3    H175170   0.854   4.212   3.906  0.2803 -4.0710  0.6321
17893TIP3    H275171   1.004   4.195   3.896  0.8521  0.5241 -0.6815
17894TIP3   OH275172   0.145   3.022  11.067  0.1470 -0.1237 -0.4473
17894TIP3    H175173   0.138   3.091  11.133 -2.0312 -1.1032  0.4236
17894TIP3    H275174   0.229   2.979  11.086  1.3720  1.9635 -0.7810
17895TIP3   OH275175   5.169   3.262   2.142 -0.1309 -0.0091 -0.5276
17895TIP3    H175176   5.157   3.355   2.124  1.0568  0.7669  2.1252
17895TIP3    H275177   5.234   3.260   2.213 -0.3272 -2.8501 -0.3173
17896TIP3   OH275178   0.608   2.285   1.674  0.5643 -0.0593 -0.2468
17896TIP3    H175179   0.691   2.246   1.646  1.0947  1.7107 -1.2655
17896TIP3    H275180   0.549   2.274   1.599  0.2383 -0.2457  0.0319
17897TIP3   OH275181   2.137   1.544   2.279 -0.2773  0.1446  0.2441
17897TIP3    H175182   2.161   1.451   2.276  2.1706  0.6598  1.3778
17897TIP3    H275183   2.200   1.587   2.221 -1.9415  1.0803 -0.9987
17898TIP3   OH275184   4.304   0.974  13.837 -0.2101 -0.1204  0.2263
17898TIP3    H175185   4.393   1.010  13.833  0.4680 -1.8048 -1.0658
17898TIP3    H275186   4.252   1.032  13.781  0.5735 -0.3501 -0.7661
17899TIP3   OH275187   6.361   0.233   4.478  0.6528  0.2555 -0.2802
17899TIP3    H175188   6.292   0.202   4.536  1.7711 -0.4677  0.7224
17899TIP3    H275189   6.440   0.231   4.532  1.5658  0.4774 -1.5613
17900TIP3   OH275190   6.773   6.413   5.101 -0.4318  0.4026  0.5211
17900TIP3    H175191   6.830   6.465   5.044  0.9917 -0.4075  1.1396
17900TIP3    H275192   6.685   6.428   5.068  0.2347  0.9347 -1.0976
17901TIP3   OH275193   3.828   4.416   4.777 -0.0184 -0.0540  0.2462
17901TIP3    H175194   3.801   4.507   4.792  1.3633  0.4834 -0.3572
17901TIP3    H275195   3.919   4.422   4.748 -0.0659 -1.6011 -0.3424
17902TIP3   OH275196   6.595   2.088  16.804  0.1066 -0.6114 -0.6456
17902TIP3    H175197   6.539   2.115  16.877  0.3882  2.3671 -1.3771
17902TIP3    H275198   6.540   2.097  16.726  0.4281 -1.6673 -1.0108
17903TIP3   OH275199   5.655   1.294  12.361 -0.2634  0.3843  0.6937
17903TIP3    H175200   5.727   1.238  12.334  0.2236  0.9981  0.6826
17903TIP3    H275201   5.637   1.349  12.285 -0.7456  0.2295  0.6962
17904TIP3   OH275202   3.903   6.465  16.165 -0.3019 -0.2740  0.1081
17904TIP3    H175203   3.808   6.476  16.162 -0.1885  1.0208  0.8256
17904TIP3    H275204   3.938   6.553  16.173  0.9280 -0.7913  0.7359
17905TIP3   OH275205   2.391   3.618  12.861  0.0147 -0.4260  0.1613
17905TIP3    H175206   2.484   3.640  12.863  0.0038 -0.4555  1.7096
17905TIP3    H275207   2.356   3.673  12.790  0.9024  0.8486  0.6692
17906TIP3   OH275208   4.467   4.104   4.257  0.0264 -0.1011 -0.4081
17906TIP3    H175209   4.536   4.080   4.194 -0.4771 -2.6014 -0.1078
17906TIP3    H275210   4.417   4.173   4.213  0.5954 -0.7259 -2.1190
17907TIP3   OH275211   6.160   2.314  12.251  0.0184  0.0886  0.1627
17907TIP3    H175212   6.186   2.301  12.160  1.4843  0.1281  0.5514
17907TIP3    H275213   6.099   2.243  12.269  0.4155 -0.4495 -0.5810
17908TIP3   OH275214   0.169   0.601  15.379  0.0904  0.1276 -0.0211
17908TIP3    H175215   0.189   0.669  15.315  1.5481  0.7355  1.0193
17908TIP3    H275216   0.246   0.598  15.436 -1.3487 -0.0250  2.0327
17909TIP3   OH275217   3.093   1.118   1.200  0.7284 -0.6283  0.2824
17909TIP3    H175218   3.122   1.091   1.287  0.5033 -1.0187  0.2389
17909TIP3    H275219   3.108   1.212   1.198 -1.0570 -0.2701  1.4487
17910TIP3   OH275220   0.714   0.149  16.077 -0.0696 -0.1162  0.4784
17910TIP3    H175221   0.808   0.149  16.060 -0.3843 -0.5470 -1.5183
17910TIP3    H275222   0.700   0.225  16.135  1.5098 -0.1912  1.0011
17911TIP3   OH275223   6.331   3.501   2.177  0.8613 -0.0204 -0.3427
17911TIP3    H175224   6.330   3.514   2.083  2.6455 -1.3296 -0.5970
17911TIP3    H275225   6.383   3.422   2.190  0.6964  0.1534  1.7350
17912TIP3   OH275226   0.124   5.696   4.843  0.1121 -0.6350  0.2790
17912TIP3    H175227   0.096   5.698   4.935 -1.6674  1.7039 -0.2458
17912TIP3    H275228   0.044   5.711   4.793  1.2471 -0.6320 -1.6146
17913TIP3   OH275229   0.648   1.084   1.997  0.0769 -0.0060 -0.4211
17913TIP3    H175230   0.734   1.124   1.987 -0.0250 -0.0905 -1.8039
17913TIP3    H275231   0.648   1.048   2.085  1.7077 -0.5914 -0.6337
17914TIP3   OH275232   5.526   4.533   2.084 -0.4266  0.4887  0.1514
17914TIP3    H175233   5.602   4.570   2.038 -1.0724  1.1612 -0.3943
17914TIP3    H275234   5.560   4.455   2.126  0.3290  0.1608 -1.0036
17915TIP3   OH275235   5.711   4.210  10.716  0.7341  0.7941 -0.5069
17915TIP3    H175236   5.702   4.194  10.622  1.3426 -0.7278 -0.3231
17915TIP3    H275237   5.805   4.208  10.733  0.5715 -1.1551  0.4610
17916TIP3   OH275238   6.816   2.880   3.008 -0.5297 -0.2272  0.5448
17916TIP3    H175239   6.849   2.900   2.920 -0.4266  0.2649  0.6911
17916TIP3    H275240   6.804   2.785   3.008  0.0651 -0.3061  0.2047
17917TIP3   OH275241   0.452   6.738  13.078  0.0952 -0.0751  0.3063
17917TIP3    H175242   0.527   6.757  13.022  0.0628 -0.0369  0.2752
17917TIP3    H275243   0.430   6.647  13.060  0.4906 -0.2595  0.7377
17918TIP3   OH275244   3.318   1.018  14.830 -0.4611  0.2436  0.8724
17918TIP3    H175245   3.355   0.943  14.876  0.1107 -1.2566 -1.7885
17918TIP3    H275246   3.381   1.088  14.842 -0.2958 -0.1231  2.2369
17919TIP3   OH275247   2.661   2.474   5.444 -0.0203  0.0219  0.5926
17919TIP3    H175248   2.661   2.518   5.529 -2.7771  0.6069  0.3767
17919TIP3    H275249   2.693   2.540   5.382 -1.8587  0.9949  0.6254
17920TIP3   OH275250   6.573   3.863  12.775  1.2275  0.3388  0.4446
17920TIP3    H175251   6.577   3.917  12.854  2.0596  0.3305  0.4136
17920TIP3    H275252   6.520   3.787  12.801  0.0340  1.1460  0.4858
17921TIP3   OH275253   1.995   0.279  13.380 -0.1196  0.2381 -0.2683
17921TIP3    H175254   2.074   0.327  13.406  0.2450  0.0325 -0.9773
17921TIP3    H275255   2.026   0.191  13.361 -0.4037  0.3247 -1.1892
17922TIP3   OH275256   1.366   6.663   0.476 -0.7808  0.1892  0.6252
17922TIP3    H175257   1.445   6.611   0.460 -1.7907 -0.6590 -2.1189
17922TIP3    H275258   1.294   6.605   0.451 -1.9937  2.7112 -2.2819
17923TIP3   OH275259   4.975   2.560  12.503 -0.3325  0.0273  0.0243
17923TIP3    H175260   4.991   2.585  12.594  2.4900 -0.2222 -0.3277
17923TIP3    H275261   4.885   2.527  12.503  0.3942 -2.3927  3.2567
17924TIP3   OH275262   2.385   3.793   4.208  0.1095 -0.8423  0.2436
17924TIP3    H175263   2.410   3.769   4.298  0.9372  0.5785  0.4106
17924TIP3    H275264   2.356   3.884   4.215 -0.3168 -0.8874 -0.8545
17925TIP3   OH275265   4.756   5.252   0.039  0.2527 -0.2907 -0.1070
17925TIP3    H175266   4.809   5.328   0.013  1.3516 -0.9242  0.2189
17925TIP3    H275267   4.788   5.229   0.126  0.5449 -1.6516 -0.5519
17926TIP3   OH275268   3.282   1.522  14.361 -0.2931 -0.2487  0.0602
17926TIP3    H175269   3.197   1.565  14.373 -0.2566 -0.1553 -0.0167
17926TIP3    H275270   3.295   1.473  14.442 -1.0565 -1.3760 -0.4790
17927TIP3   OH275271   2.174   3.048  11.043  0.5677  0.4099 -0.2405
17927TIP3    H175272   2.219   3.001  10.973  1.0709 -0.8805  0.9217
17927TIP3    H275273   2.234   3.044  11.117 -0.7864 -0.0102  0.8709
17928TIP3   OH275274   5.273   4.386  14.230 -0.6449  0.3384  0.4738
17928TIP3    H175275   5.319   4.469  14.218  0.7751 -0.4411  0.2898
17928TIP3    H275276   5.205   4.386  14.163  0.1414  0.8172 -0.3391
17929TIP3   OH275277   1.484   5.664  11.691  0.3573  0.4100  0.1086
17929TIP3    H175278   1.441   5.584  11.661  1.2212  0.4207 -1.2994
17929TIP3    H275279   1.422   5.705  11.752 -1.0005 -0.2587 -0.7812
17930TIP3   OH275280   1.409   5.476  16.392 -0.6350 -0.4438  0.3803
17930TIP3    H175281   1.475   5.478  16.461  0.4082 -0.5369 -0.5723
17930TIP3    H275282   1.441   5.409  16.330 -1.4402 -0.2408 -0.2829
17931TIP3   OH275283   2.605   2.157   1.311  0.1356 -0.3019 -0.0971
17931TIP3    H175284   2.593   2.251   1.328 -1.3261 -0.1761 -1.5521
17931TIP3    H275285   2.696   2.149   1.284 -0.4636  1.2724 -2.9842
17932TIP3   OH275286   5.252   1.894   4.206  0.3689  0.6371 -0.3335
17932TIP3    H175287   5.217   1.868   4.291  0.3632  1.8666  0.0665
17932TIP3    H275288   5.278   1.812   4.164  1.8281  0.0741  1.5047
17933TIP3   OH275289   5.492   0.201  13.659 -0.4883 -0.3573 -0.3964
17933TIP3    H175290   5.499   0.126  13.718 -1.8878 -0.9415 -0.9467
17933TIP3    H275291   5.570   0.195  13.604 -0.9739 -1.8730 -0.9548
17934TIP3   OH275292   1.286   3.190   4.134 -0.0966 -0.2218  0.5386
17934TIP3    H175293   1.244   3.246   4.199 -1.9329 -2.8514  1.8010
17934TIP3    H275294   1.275   3.237   4.051  0.0926  2.0755  1.7572
17935TIP3   OH275295   0.523   1.783   2.831 -0.3312 -0.3124  0.2851
17935TIP3    H175296   0.498   1.746   2.916 -1.8328  1.0863  0.5244
17935TIP3    H275297   0.584   1.854   2.853  0.9255 -1.2773 -0.0007
17936TIP3   OH275298   2.130   0.604  15.324  0.3588 -0.0184 -0.5829
17936TIP3    H175299   2.085   0.634  15.403  0.5535  2.1531 -1.2197
17936TIP3    H275300   2.220   0.588  15.352  0.0137 -1.0623 -0.0143
17937TIP3   OH275301   4.929   5.259  15.097  0.1212 -0.3391  0.5438
17937TIP3    H175302   4.839   5.292  15.096 -0.4529 -1.8188  0.5948
17937TIP3    H275303   4.983   5.334  15.074 -1.1622  0.4844  0.1459
17938TIP3   OH275304   3.467   2.064   2.980 -0.0767  0.5547 -0.2596
17938TIP3    H175305   3.525   1.997   3.016  0.9732  0.3312 -2.2535
17938TIP3    H275306   3.514   2.146   2.995 -0.7291  0.7368  0.9327
17939TIP3   OH275307   1.790   3.800   4.735 -0.2017 -0.5188 -0.3366
17939TIP3    H175308   1.765   3.849   4.657 -0.2508 -1.4090 -0.8943
17939TIP3    H275309   1.836   3.863   4.790  0.3057 -0.0163 -1.3236
17940TIP3   OH275310   2.293   2.309  10.345 -0.1176  0.4321 -0.2118
17940TIP3    H175311   2.200   2.307  10.367 -0.3592 -1.5586 -1.1674
17940TIP3    H275312   2.296   2.329  10.252  0.3144 -0.6009 -0.4391
17941TIP3   OH275313   6.645   0.740   2.918  0.0906 -0.3723  0.3475
17941TIP3    H175314   6.644   0.734   3.014  0.2467  0.6540  0.4272
17941TIP3    H275315   6.735   0.717   2.894 -0.6630 -3.5267  0.1902
17942TIP3   OH275316   3.766   4.243  12.664 -0.5553 -0.4224  0.6572
17942TIP3    H175317   3.724   4.282  12.588 -0.6792 -0.3382  0.7683
17942TIP3    H275318   3.697   4.239  12.730 -0.0769  0.9297  1.2846
17943TIP3   OH275319   2.457   0.058  16.975  0.3173 -0.0187  0.0307
17943TIP3    H175320   2.505   0.008  16.909  2.2509  0.6482  0.8392
17943TIP3    H275321   2.377   0.086  16.931 -0.5870 -3.1959 -0.6599
17944TIP3   OH275322   1.570   4.085   3.659  0.0256  0.2690 -0.4539
17944TIP3    H175323   1.605   4.082   3.748 -0.3022 -0.2508 -0.3389
17944TIP3    H275324   1.523   4.168   3.654 -2.5661 -1.0144  0.8620
17945TIP3   OH275325   3.636   5.043  14.833 -0.4662  0.1125  0.0561
17945TIP3    H175326   3.600   5.040  14.745  0.5460 -2.5707 -0.3404
17945TIP3    H275327   3.713   5.100  14.826 -1.3906  1.3596 -0.3281
17946TIP3   OH275328   4.389   5.500   1.464  0.8034  0.1392  0.0353
17946TIP3    H175329   4.372   5.415   1.424  1.0711 -0.0663  0.3594
17946TIP3    H275330   4.359   5.563   1.398 -0.3928 -0.2068  0.2287
17947TIP3   OH275331   5.537   2.597  13.694  0.2159 -0.7053 -0.1278
17947TIP3    H175332   5.495   2.512  13.686  0.0276 -0.5353 -1.1081
17947TIP3    H275333   5.546   2.611  13.788  1.3175 -2.3138  0.0293
17948TIP3   OH275334   4.240   1.241  12.518  0.1156  0.2277 -0.3178
17948TIP3    H175335   4.329   1.251  12.553 -0.1878  0.4460  0.3945
17948TIP3    H275336   4.223   1.147  12.523  0.9247 -0.0619 -2.0186
17949TIP3   OH275337   6.214   1.650   5.435  0.8745  0.4145 -0.1427
17949TIP3    H175338   6.155   1.720   5.463 -0.8421 -1.4727  1.2957
17949TIP3    H275339   6.262   1.627   5.514  0.2179 -1.0867 -0.1466
17950TIP3   OH275340   0.541   1.061  13.788  0.1491  0.5310  0.5044
17950TIP3    H175341   0.493   0.979  13.797  0.0822  0.2049 -2.0092
17950TIP3    H275342   0.602   1.062  13.862 -0.8695 -1.0457  1.4131
17951TIP3   OH275343   5.103   1.838   4.540 -0.2957  0.2397 -0.3321
17951TIP3    H175344   5.092   1.777   4.613  3.3767 -2.1933 -1.5286
17951TIP3    H275345   5.030   1.818   4.481 -2.0028  0.6414  1.5373
17952TIP3   OH275346   0.917   2.581  11.777  0.5832  0.1665 -0.0610
17952TIP3    H175347   0.947   2.574  11.686 -1.6179  1.3456 -0.9612
17952TIP3    H275348   0.851   2.651  11.776 -0.9425 -1.0925  2.0252
17953TIP3   OH275349   5.088   1.909   1.093  0.2200  0.2074 -0.3867
17953TIP3    H175350   5.127   1.929   1.007 -0.7151  0.8994 -0.6694
17953TIP3    H275351   5.015   1.971   1.101 -0.2610 -0.4566  0.5241
17954TIP3   OH275352   4.136   1.974  16.560  0.0886  0.1577  0.6881
17954TIP3    H175353   4.171   1.920  16.489  0.0907  0.5649  0.3750
17954TIP3    H275354   4.097   2.050  16.515  0.7802  0.8130  1.1664
17955TIP3   OH275355   4.008   6.230   1.327  0.2696  0.6058  0.1181
17955TIP3    H175356   3.998   6.188   1.412 -0.2109 -2.0287 -1.1418
17955TIP3    H275357   4.042   6.317   1.347  0.1689  0.0799  2.9746
17956TIP3   OH275358   6.399   0.451  15.589  0.1748  0.1107 -0.4944
17956TIP3    H175359   6.437   0.539  15.596 -0.0486  0.2780 -1.2708
17956TIP3    H275360   6.461   0.395  15.635 -1.1446  1.0567  2.6996
17957TIP3   OH275361   3.019   6.421   3.618 -0.0161 -0.0038 -0.0378
17957TIP3    H175362   3.007   6.493   3.680  1.0918  1.2722 -1.2312
17957TIP3    H275363   3.095   6.373   3.652 -1.0513 -0.9696  1.0297
17958TIP3   OH275364   6.030   0.842  12.812  0.0579  0.4435 -0.6554
17958TIP3    H175365   6.103   0.885  12.768  0.1730 -0.1509 -1.0551
17958TIP3    H275366   5.957   0.902  12.801 -0.1824 -0.1325 -2.5583
17959TIP3   OH275367   1.247   4.066   5.752 -0.7403  0.5334  0.4287
17959TIP3    H175368   1.219   4.034   5.666  0.5670  2.1295 -0.6543
17959TIP3    H275369   1.300   3.995   5.788 -1.2624 -0.1374 -0.0925
17960TIP3   OH275370   1.738   4.232   1.627 -0.7668 -0.3074 -0.3150
17960TIP3    H175371   1.802   4.296   1.659 -1.0564 -0.1810  0.0284
17960TIP3    H275372   1.776   4.197   1.547 -1.4847  1.7575 -1.6476
17961TIP3   OH275373   1.491   4.585   0.576  0.4053  0.2143  0.4415
17961TIP3    H175374   1.415   4.553   0.626  0.0168  3.3916  2.1423
17961TIP3    H275375   1.453   4.634   0.503  0.7872  1.2629  0.9288
17962TIP3   OH275376   4.739   1.920   3.444  0.4721 -0.2319  0.0829
17962TIP3    H175377   4.787   1.953   3.520  0.8576 -3.0357  1.1829
17962TIP3    H275378   4.660   1.880   3.481  0.1046 -0.6772 -1.1220
17963TIP3   OH275379   0.663   2.896   3.918  0.3788 -0.2471 -0.1739
17963TIP3    H175380   0.734   2.908   3.981 -0.4340 -0.5196  0.8187
17963TIP3    H275381   0.583   2.900   3.970 -0.3990  0.8928 -1.3855
17964TIP3   OH275382   1.909   3.605  14.608  0.0316 -0.0060 -0.5901
17964TIP3    H175383   1.821   3.610  14.646 -0.1401  1.8715 -1.1422
17964TIP3    H275384   1.942   3.695  14.614  0.7780 -0.0655 -3.0309
17965TIP3   OH275385   0.802   2.573  17.076  0.2885 -0.1998 -0.0146
17965TIP3    H175386   0.824   2.653  17.124  2.0189 -0.1938 -0.7596
17965TIP3    H275387   0.723   2.595  17.027  1.1158  1.2849 -0.7287
17966TIP3   OH275388   3.714   2.035  15.824  0.1121 -0.2048 -0.3836
17966TIP3    H175389   3.747   2.119  15.857 -1.8417  0.7315 -0.7023
17966TIP3    H275390   3.658   2.002  15.895 -1.9334  0.5012 -1.5972
17967TIP3   OH275391   3.794   2.528  11.212 -0.5360 -0.2238 -0.6946
17967TIP3    H175392   3.844   2.587  11.155  0.4981 -0.4563 -0.0387
17967TIP3    H275393   3.836   2.443  11.202 -0.5173 -0.3247  0.2112
17968TIP3   OH275394   1.953   5.826  15.185  0.4952 -0.1640 -0.6238
17968TIP3    H175395   1.904   5.745  15.199  0.3445 -0.0159 -0.2795
17968TIP3    H275396   1.892   5.884  15.139 -0.2956  0.6612  1.3718
17969TIP3   OH275397   4.303   0.193  15.600  0.6717 -0.0734 -0.5455
17969TIP3    H175398   4.304   0.246  15.520 -0.7217  1.0888  0.1607
17969TIP3    H275399   4.340   0.251  15.666  0.0643 -0.3423  0.0337
17970TIP3   OH275400   0.242   4.492  16.368  0.3565  0.3535  0.0266
17970TIP3    H175401   0.305   4.523  16.303 -0.4154  2.0703  0.0413
17970TIP3    H275402   0.156   4.512  16.330 -0.1285  0.2451  1.0386
17971TIP3   OH275403   4.805   1.169  14.435 -0.6533 -0.1521 -0.0449
17971TIP3    H175404   4.853   1.247  14.406 -2.0220  1.8321  2.5239
17971TIP3    H275405   4.716   1.202  14.451 -1.6020 -2.5700 -0.0298
17972TIP3   OH275406   6.053   2.835  12.117 -0.3960 -0.7280 -0.1973
17972TIP3    H175407   6.014   2.803  12.198 -0.1476  0.5892  0.4635
17972TIP3    H275408   6.109   2.763  12.087  0.1259 -0.9286  1.2193
17973TIP3   OH275409   0.256   4.287  11.928 -0.0044  0.0026 -0.0162
17973TIP3    H175410   0.211   4.366  11.898 -1.0334  0.0218  1.5093
17973TIP3    H275411   0.340   4.319  11.962 -0.8273  0.5848  1.5095
17974TIP3   OH275412   1.343   4.685  11.292 -0.3318  0.0738  0.7137
17974TIP3    H175413   1.429   4.699  11.332  1.2247  0.2385 -2.4120
17974TIP3    H275414   1.305   4.772  11.286 -0.0187  0.2067  0.6397
17975TIP3   OH275415   3.287   2.559   5.995  0.6134 -0.5047 -0.3858
17975TIP3    H175416   3.253   2.646   5.979 -0.0543 -0.8111 -0.6456
17975TIP3    H275417   3.216   2.512   6.038  1.7810 -0.2150  2.0236
17976TIP3   OH275418   2.608   3.308  12.414  0.5606  0.3764 -0.5667
17976TIP3    H175419   2.651   3.322  12.330 -0.5243  0.9807 -1.0421
17976TIP3    H275420   2.647   3.228  12.448  1.0605  0.1602 -1.6122
17977TIP3   OH275421   0.059   3.356  14.520 -0.1127 -0.0949  0.0133
17977TIP3    H175422   0.022   3.319  14.440  1.6922 -2.9847  0.3704
17977TIP3    H275423  -0.004   3.331  14.589 -0.3831  0.1532 -0.1402
17978TIP3   OH275424   2.904   0.383   6.202 -0.3843  0.5381  0.0840
17978TIP3    H175425   2.894   0.435   6.281 -0.8429  0.5457  0.0215
17978TIP3    H275426   2.815   0.369   6.171 -0.1955  0.7283 -0.5575
17979TIP3   OH275427   0.312   0.098  12.006 -0.5041 -0.6473 -0.1701
17979TIP3    H175428   0.274   0.103  12.094  1.5589 -2.1068  0.8836
17979TIP3    H275429   0.308   0.188  11.973 -0.0810  0.2323  1.9946
17980TIP3   OH275430   5.130   3.100   0.099 -0.3016 -0.1458  0.5778
17980TIP3    H175431   5.037   3.108   0.079  0.0924 -0.0842 -1.5085
17980TIP3    H275432   5.168   3.062   0.020  1.2473 -1.5435  1.9342
17981TIP3   OH275433   5.446   1.771   3.523 -0.3668 -0.1030  0.4484
17981TIP3    H175434   5.386   1.800   3.454 -3.1289 -1.3924  2.1426
17981TIP3    H275435   5.489   1.693   3.487  0.1923  0.7037 -0.7002
17982TIP3   OH275436   1.885   1.274   3.487 -0.6130  0.4980 -0.1817
17982TIP3    H175437   1.954   1.214   3.514 -0.5168  0.3032 -0.8515
17982TIP3    H275438   1.831   1.285   3.566 -0.0165  0.3900  0.2488
17983TIP3   OH275439   6.510   5.700   2.605 -0.0883  0.4199 -0.0379
17983TIP3    H175440   6.593   5.690   2.560  0.5664 -0.8113  1.3612
17983TIP3    H275441   6.515   5.785   2.647 -0.3519  1.1914 -1.5013
17984TIP3   OH275442   3.556   2.151   3.250 -0.2628 -0.5516  0.2803
17984TIP3    H175443   3.607   2.079   3.212 -1.0028 -1.0985  0.3008
17984TIP3    H275444   3.467   2.116   3.255 -0.3784 -0.0933  1.5214
17985TIP3   OH275445   2.331   5.482   3.919 -0.0800 -0.4269 -0.3077
17985TIP3    H175446   2.370   5.441   3.842  0.1878  0.5011 -0.6750
17985TIP3    H275447   2.406   5.515   3.969 -0.3339  0.2634 -0.3860
17986TIP3   OH275448   5.942   3.285   4.637  0.8236  0.3732  0.1785
17986TIP3    H175449   5.860   3.237   4.628  0.0665  1.2235  2.0462
17986TIP3    H275450   5.956   3.325   4.551 -0.0253 -0.8164 -0.5452
17987TIP3   OH275451   3.007   1.765  16.418 -0.3717 -0.1116 -0.4022
17987TIP3    H175452   3.037   1.845  16.373  0.4558 -0.9511 -1.3943
17987TIP3    H275453   2.973   1.796  16.502  0.2654  1.2510 -0.6149
17988TIP3   OH275454   1.937   0.670  12.425  0.1819 -0.5831 -0.0061
17988TIP3    H175455   1.916   0.672  12.518 -1.5797 -0.6043 -0.3589
17988TIP3    H275456   1.860   0.631  12.384 -0.5687  2.4179 -1.8124
17989TIP3   OH275457   6.597   4.156   1.219 -0.4331 -0.1420  0.1879
17989TIP3    H175458   6.611   4.150   1.314  2.6654 -0.5714 -0.1934
17989TIP3    H275459   6.504   4.135   1.207 -1.6018  2.4771  3.2982
17990TIP3   OH275460   5.002   6.482   3.770  0.2156 -0.2824  0.0021
17990TIP3    H175461   4.989   6.547   3.839  0.2229 -1.3582  1.0465
17990TIP3    H275462   5.003   6.398   3.816 -1.8079 -1.2237 -1.5014
17991TIP3   OH275463   1.323   2.783  15.307 -0.2386  0.3493  0.4499
17991TIP3    H175464   1.258   2.848  15.334  0.0920  1.0437 -0.3864
17991TIP3    H275465   1.390   2.834  15.262 -0.6479 -0.7084 -1.4639
17992TIP3   OH275466   1.647   4.569  11.200 -0.2761 -0.2163 -0.2331
17992TIP3    H175467   1.727   4.525  11.171  1.3599  1.5608  1.2496
17992TIP3    H275468   1.607   4.601  11.119  0.9953 -0.3879 -0.9718
17993TIP3   OH275469   2.331   2.431   3.295 -0.0356 -0.2670 -0.4919
17993TIP3    H175470   2.282   2.424   3.213  0.6214  1.9726 -1.1286
17993TIP3    H275471   2.384   2.351   3.298 -0.6335 -0.7476 -1.8490
17994TIP3   OH275472   4.083   5.495  13.993  0.4209 -0.5394 -0.8321
17994TIP3    H175473   4.174   5.478  13.971  0.1046 -1.4509 -1.5144
17994TIP3    H275474   4.038   5.413  13.974 -0.3637 -0.4604  0.5625
17995TIP3   OH275475   5.868   5.301  12.098  0.7308  0.5752 -0.0056
17995TIP3    H175476   5.800   5.275  12.036  0.6258  1.4572 -0.2688
17995TIP3    H275477   5.937   5.337  12.043  1.7582 -0.9892  0.1920
17996TIP3   OH275478   4.450   4.751   5.163 -0.2838  0.2926 -0.2279
17996TIP3    H175479   4.396   4.824   5.132 -1.7106  0.2075  1.8893
17996TIP3    H275480   4.391   4.698   5.215  0.9635 -1.9154 -0.9342
17997TIP3   OH275481   5.371   6.440  12.007 -0.4796 -0.3865  0.1350
17997TIP3    H175482   5.352   6.531  12.029 -1.9170 -0.4234 -0.8102
17997TIP3    H275483   5.362   6.393  12.089  0.2434  0.3021  0.6292
17998TIP3   OH275484   2.659   1.212   1.038  0.0211 -0.0420  0.1977
17998TIP3    H175485   2.574   1.181   1.069  0.6810 -0.9570  1.1801
17998TIP3    H275486   2.670   1.297   1.081 -0.5811  0.2904 -0.2907
17999TIP3   OH275487   4.872   2.960  14.571  0.5682 -0.6802 -0.1311
17999TIP3    H175488   4.935   2.939  14.640  0.2535  1.0958  0.7439
17999TIP3    H275489   4.883   3.054  14.556 -1.9972 -0.2420  0.2318
18000TIP3   OH275490   5.943   3.432   1.588 -0.3491  0.5974  0.6254
18000TIP3    H175491   5.902   3.493   1.648  0.1978  0.9926  0.6089
18000TIP3    H275492   5.938   3.347   1.631 -2.0344  0.4425  0.2081
18001TIP3   OH275493   2.868   4.618   1.937  0.3558  0.4001 -0.0394
18001TIP3    H175494   2.822   4.649   1.859  1.6906 -0.6038 -1.2835
18001TIP3    H275495   2.957   4.598   1.906  0.7215 -0.7116  1.5832
18002TIP3   OH275496   4.146   0.410  12.221 -0.2923  0.0056  0.3797
18002TIP3    H175497   4.167   0.488  12.169 -0.5601 -0.2529 -0.1292
18002TIP3    H275498   4.128   0.343  12.155 -1.6260 -0.0668  0.7914
18003TIP3   OH275499   1.919   6.079   2.787  0.2288  0.3793  0.4460
18003TIP3    H175500   1.990   6.143   2.782  0.8206 -0.3300 -0.8885
18003TIP3    H275501   1.843   6.126   2.754  0.7419  0.3135 -0.8978
18004TIP3   OH275502   3.964   4.069  13.557 -0.3840 -0.0013  0.1730
18004TIP3    H175503   3.969   3.974  13.564 -0.4908 -0.0690 -0.5870
18004TIP3    H275504   4.055   4.098  13.555 -0.2701 -0.3189 -2.2292
18005TIP3   OH275505   0.445   1.587  15.362 -0.0664 -0.2331 -0.3960
18005TIP3    H175506   0.366   1.582  15.415 -0.0009  0.4265 -0.2216
18005TIP3    H275507   0.446   1.507  15.311 -0.5676 -0.4882 -0.0049
18006TIP3   OH275508   6.783   2.375   2.073 -0.3027  0.6854  0.3910
18006TIP3    H175509   6.716   2.383   2.005 -1.8075  0.1542  1.7641
18006TIP3    H275510   6.746   2.315   2.137  2.1076 -0.8364  0.5052
18007TIP3   OH275511   0.014   3.033  12.708  0.2063 -0.0650  0.0682
18007TIP3    H175512  -0.048   3.095  12.745 -2.1180 -1.6967 -0.8490
18007TIP3    H275513   0.003   3.042  12.613 -0.0548 -1.7049 -0.0828
18008TIP3   OH275514   3.924   1.239  14.986 -0.6893  0.6435 -0.5118
18008TIP3    H175515   3.961   1.315  14.942  0.9659  0.1614 -0.0192
18008TIP3    H275516   3.929   1.168  14.921 -0.0746  0.4046 -0.2072
18009TIP3   OH275517   3.947   2.554  14.696  0.1678 -0.0786  0.6622
18009TIP3    H175518   3.988   2.515  14.773 -0.4901  0.1957  1.1650
18009TIP3    H275519   4.018   2.596  14.649  0.4979  0.2076  1.4010
18010TIP3   OH275520   3.021   6.159  12.786  0.3018  0.4950 -0.2656
18010TIP3    H175521   3.048   6.078  12.829  3.7091  0.7176 -1.6497
18010TIP3    H275522   3.003   6.133  12.695  0.6945  1.1488 -0.5398
18011TIP3   OH275523   5.518   2.829   4.394  0.5768  0.0162 -0.3339
18011TIP3    H175524   5.544   2.777   4.470  2.0022 -0.1379 -0.8892
18011TIP3    H275525   5.521   2.920   4.425 -1.5044 -0.1485  0.5177
18012TIP3   OH275526   6.608   3.152   3.690  0.2081  0.4268  0.0149
18012TIP3    H175527   6.698   3.156   3.723 -0.2283 -0.0207  1.3399
18012TIP3    H275528   6.610   3.084   3.623  1.0886  1.2146 -0.7786
18013TIP3   OH275529   3.036   0.846  12.636 -0.3626  0.4023  0.6841
18013TIP3    H175530   2.985   0.848  12.555 -0.2244 -0.9995  0.5412
18013TIP3    H275531   3.081   0.930  12.638  1.1981 -0.2672 -1.7263
18014TIP3   OH275532   1.887   2.767  14.648 -0.4950 -0.0672  0.1366
18014TIP3    H175533   1.911   2.844  14.699  0.3715 -0.8052  0.8695
18014TIP3    H275534   1.822   2.799  14.585 -1.3996  0.9181  1.5200
18015TIP3   OH275535   1.463   4.456  11.889  0.4924  0.0169 -0.4292
18015TIP3    H175536   1.398   4.420  11.828  0.2460  0.5066 -0.4576
18015TIP3    H275537   1.500   4.379  11.932 -1.1331 -0.2021  0.6425
18016TIP3   OH275538   4.516   5.571  16.000 -0.1007  0.0151 -0.0349
18016TIP3    H175539   4.564   5.618  15.932  0.4939 -0.9783 -0.3208
18016TIP3    H275540   4.574   5.499  16.025 -0.4440  0.1643  1.2949
18017TIP3   OH275541   2.409   4.820  12.719 -0.2901 -0.2204  0.1374
18017TIP3    H175542   2.469   4.892  12.701  0.8689 -1.0833  0.4758
18017TIP3    H275543   2.446   4.776  12.795 -1.8392 -0.2520  0.9051
18018TIP3   OH275544   2.594   3.192  16.156  0.4983 -0.0413 -0.0354
18018TIP3    H175545   2.524   3.151  16.105 -0.1606  0.3096  0.5706
18018TIP3    H275546   2.607   3.278  16.115  1.0656 -0.3813 -0.5793
18019TIP3   OH275547   3.051   5.208   5.671  0.0844 -0.0711 -0.3346
18019TIP3    H175548   3.145   5.193   5.658  0.1065  0.2174 -0.5267
18019TIP3    H275549   3.021   5.243   5.587 -0.5521 -1.7808 -0.8585
18020TIP3   OH275550   5.846   3.618  15.554  0.1521 -0.3589 -0.2087
18020TIP3    H175551   5.883   3.628  15.466  1.0103  0.5118  0.2348
18020TIP3    H275552   5.754   3.595  15.539  0.1080  0.4886 -1.3296
18021TIP3   OH275553   0.472   6.609   0.359  0.2958  0.2306 -0.3020
18021TIP3    H175554   0.518   6.598   0.276 -1.0653  1.0691 -1.2098
18021TIP3    H275555   0.514   6.685   0.399  0.6006  0.1554 -0.4716
18022TIP3   OH275556   5.969   5.961  11.379  0.6481  0.4468 -0.4256
18022TIP3    H175557   6.002   6.051  11.379 -1.7548  1.4070  0.9248
18022TIP3    H275558   5.875   5.970  11.367  0.2988 -1.8846  0.1433
18023TIP3   OH275559   1.710   1.170  13.279 -0.3989 -0.0469 -0.2522
18023TIP3    H175560   1.747   1.150  13.193 -0.4836 -1.0590 -0.0691
18023TIP3    H275561   1.661   1.251  13.266 -1.6136 -0.9530 -1.5098
18024TIP3   OH275562   6.157   3.540  13.263 -0.2167 -0.0846  0.6266
18024TIP3    H175563   6.192   3.464  13.217 -1.5817 -1.1150  1.2074
18024TIP3    H275564   6.214   3.551  13.339 -0.4321 -1.0225  0.9411
18025TIP3   OH275565   2.371   1.129  14.376 -0.8417 -0.6317  0.3265
18025TIP3    H175566   2.376   1.057  14.439 -0.4448  0.2457  1.3261
18025TIP3    H275567   2.277   1.136  14.357 -1.0209 -0.6598  1.1282
18026TIP3   OH275568   4.456   0.917   3.046 -0.4271 -0.8683  0.6382
18026TIP3    H175569   4.444   0.875   3.131  0.7310 -0.1471  1.1712
18026TIP3    H275570   4.504   0.997   3.064  1.1755 -1.4267 -0.8617
18027TIP3   OH275571   2.076   2.327  13.793  0.2321  0.6632  0.0913
18027TIP3    H175572   2.116   2.240  13.788  3.7782  2.2327 -1.8159
18027TIP3    H275573   1.983   2.311  13.774  0.9895 -2.5340 -1.5917
18028TIP3   OH275574   1.384   1.239   5.934 -0.1256  0.0602 -0.7457
18028TIP3    H175575   1.418   1.204   6.016 -0.0762  2.1237  0.1696
18028TIP3    H275576   1.289   1.243   5.947 -0.3203 -1.3068 -1.5234
18029TIP3   OH275577   6.086   6.177  13.937  0.0485  0.1797 -0.1812
18029TIP3    H175578   6.042   6.092  13.941  1.5941 -0.6216  1.4700
18029TIP3    H275579   6.102   6.192  13.844  2.4827 -2.8976 -0.3990
18030TIP3   OH275580   6.716   1.587   3.980 -0.1389 -0.3576 -1.3144
18030TIP3    H175581   6.691   1.505   4.022  1.1434 -0.8228 -1.4217
18030TIP3    H275582   6.682   1.655   4.038  0.6869 -0.9858 -0.0642
18031TIP3   OH275583   3.544   0.661  16.309 -0.0108  0.2681  0.5641
18031TIP3    H175584   3.528   0.621  16.394  0.9408  1.5483  1.3968
18031TIP3    H275585   3.533   0.755  16.324 -2.1669  0.4095 -1.3066
18032TIP3   OH275586   1.465   2.820   2.055  0.6053 -0.8500 -0.3884
18032TIP3    H175587   1.522   2.895   2.038 -0.3730  0.0290  0.0938
18032TIP3    H275588   1.497   2.752   1.996  0.7147  0.3485 -1.7740
18033TIP3   OH275589   2.179   4.641   5.194  0.1940 -0.6504 -0.8776
18033TIP3    H175590   2.216   4.728   5.210 -0.4198 -0.5111 -0.2013
18033TIP3    H275591   2.210   4.618   5.106 -1.4846  1.2269 -2.0389
18034TIP3   OH275592   5.936   6.608   2.320  0.0799 -0.8182  0.0754
18034TIP3    H175593   5.923   6.536   2.257 -1.2089 -0.5916  0.0595
18034TIP3    H275594   5.874   6.589   2.390  0.4555 -0.2549  0.5647
18035TIP3   OH275595   5.271   3.651   0.936  0.0573 -0.0347  0.3464
18035TIP3    H175596   5.333   3.690   0.997  0.3143 -0.1450  0.1573
18035TIP3    H275597   5.192   3.704   0.945  0.4747  0.6832 -0.0749
18036TIP3   OH275598   5.582   4.942  15.845  0.9758 -0.2146 -0.2513
18036TIP3    H175599   5.590   4.891  15.765 -0.2796  0.2276 -0.6672
18036TIP3    H275600   5.550   5.027  15.817  0.5472 -0.0383  0.7167
18037TIP3   OH275601   4.494   1.102  12.410  0.3712 -0.3445  0.4491
18037TIP3    H175602   4.492   1.171  12.476  0.9589  0.9948 -0.8880
18037TIP3    H275603   4.403   1.089  12.385  0.0755 -1.2747  1.8988
18038TIP3   OH275604   6.403   1.599   3.966 -0.0087 -0.4090 -0.4305
18038TIP3    H175605   6.431   1.594   4.057 -0.6961  0.5320 -0.1532
18038TIP3    H275606   6.430   1.515   3.928 -1.9967 -1.9521  1.2933
18039TIP3   OH275607   3.165   6.389  11.006  0.5789 -0.0346  0.0706
18039TIP3    H175608   3.096   6.437  11.052 -0.2178 -1.1428  0.0698
18039TIP3    H275609   3.221   6.356  11.075 -0.2504 -1.1451  0.2419
18040TIP3   OH275610   5.010   2.039  14.822 -0.3668  0.2469  0.0134
18040TIP3    H175611   5.059   1.966  14.859  0.8893  0.3991 -1.2388
18040TIP3    H275612   5.049   2.117  14.862  0.5215  0.3723 -1.0416
18041TIP3   OH275613   0.257   5.843   4.421 -0.1649 -0.5731  0.4408
18041TIP3    H175614   0.241   5.761   4.374 -0.8596 -1.1962  1.6882
18041TIP3    H275615   0.320   5.819   4.490  0.7371  0.2822 -0.0764
18042TIP3   OH275616   0.511   0.146   3.237  0.2848  0.1136 -0.1187
18042TIP3    H175617   0.589   0.143   3.292  0.7423 -0.3869 -0.7873
18042TIP3    H275618   0.443   0.104   3.290 -0.6811  4.0012  2.1777
18043TIP3   OH275619   3.994   4.869   6.166 -0.1255  0.6192 -0.7572
18043TIP3    H175620   4.066   4.833   6.219 -1.4562 -0.7341  0.2191
18043TIP3    H275621   3.989   4.961   6.192 -0.9191 -0.0537  1.7882
18044TIP3   OH275622   0.386   4.990  12.715  0.4318 -0.4210  0.6254
18044TIP3    H175623   0.307   4.999  12.768  0.4915  2.1080  0.4259
18044TIP3    H275624   0.427   4.909  12.746 -1.8334 -1.3882  1.2320
18045TIP3   OH275625   4.603   0.933  15.355 -0.4327  0.6792 -0.6943
18045TIP3    H175626   4.557   0.854  15.327 -0.8527  0.2261  1.1343
18045TIP3    H275627   4.536   0.986  15.397  0.2678  1.0347 -0.0001
18046TIP3   OH275628   4.636   1.212  12.166 -0.3090  0.7965  0.1294
18046TIP3    H175629   4.573   1.167  12.223  1.6012  0.6276  2.2554
18046TIP3    H275630   4.641   1.156  12.089 -1.4232 -0.1345  0.6861
18047TIP3   OH275631   2.041   2.215   5.325  0.2112 -0.5698  0.5177
18047TIP3    H175632   2.084   2.300   5.336 -0.4869  0.0426 -1.1381
18047TIP3    H275633   1.966   2.218   5.384 -0.5101  0.5023 -0.3978
18048TIP3   OH275634   1.599   4.628   4.268 -0.0706  0.1359  0.1571
18048TIP3    H175635   1.657   4.677   4.209 -0.4908 -0.7306 -1.0215
18048TIP3    H275636   1.589   4.684   4.344  1.5213  0.7392 -0.0456
18049TIP3   OH275637   1.761   2.903   2.364 -0.7775 -1.0771 -0.1650
18049TIP3    H175638   1.825   2.926   2.432 -0.1761 -1.8031 -0.4727
18049TIP3    H275639   1.701   2.978   2.361  0.6783  0.1139 -0.6253
18050TIP3   OH275640   2.374   4.543  13.077 -0.1771 -0.4089  0.0285
18050TIP3    H175641   2.386   4.469  13.018 -0.6504 -2.0781  1.9003
18050TIP3    H275642   2.279   4.555  13.083 -0.1207  0.0100  0.1239
18051TIP3   OH275643   2.530   4.858   2.938 -0.3084 -0.2725 -0.6863
18051TIP3    H175644   2.560   4.894   2.854 -1.7174  2.2696 -0.1832
18051TIP3    H275645   2.550   4.926   3.002  0.1972 -1.9188  0.9981
18052TIP3   OH275646   2.511   2.513  15.342 -0.3873  0.0825  0.3701
18052TIP3    H175647   2.473   2.467  15.417 -0.4207 -1.6927 -0.6892
18052TIP3    H275648   2.563   2.447  15.297  0.0180  1.2333 -0.9237
18053TIP3   OH275649   2.756   0.782  16.657  0.0310 -0.5506 -0.0892
18053TIP3    H175650   2.823   0.719  16.631 -1.0327 -0.9652 -2.0097
18053TIP3    H275651   2.757   0.847  16.586  2.6378  2.9969  2.8083
18054TIP3   OH275652   4.092   1.655  15.920  0.2430  0.0084 -0.3097
18054TIP3    H175653   4.121   1.638  16.010 -1.3881 -0.3255  0.1879
18054TIP3    H275654   3.996   1.655  15.925  0.0849 -1.2891 -2.2916
18055TIP3   OH275655   6.113   5.911   3.529  0.2795 -0.6513 -0.3170
18055TIP3    H175656   6.145   5.885   3.616  0.3067  0.7506  0.1125
18055TIP3    H275657   6.134   6.004   3.522  0.6299 -0.8231 -2.0039
18056TIP3   OH275658   0.539   1.670   2.075 -0.3304 -0.0505  0.1758
18056TIP3    H175659   0.503   1.606   2.137 -1.7807  0.9402  0.3792
18056TIP3    H275660   0.606   1.620   2.027  1.8580 -0.5527  3.3618
18057TIP3   OH275661   2.340   5.047   1.229  0.1804  0.4146  0.3417
18057TIP3    H175662   2.298   4.963   1.249 -0.0900  0.5238  0.2355
18057TIP3    H275663   2.271   5.099   1.188 -0.2067  1.3852  2.1393
18058TIP3   OH275664   3.256   6.648   5.702 -0.0303 -0.2035 -0.3405
18058TIP3    H175665   3.315   6.599   5.759  0.2275  0.8563  0.3341
18058TIP3    H275666   3.312   6.681   5.632  0.0868  0.3324 -0.0029
18059TIP3   OH275667   3.904   6.127   3.984 -0.0973 -0.1919 -0.3371
18059TIP3    H175668   3.940   6.126   3.896  1.4714 -0.6351  0.2737
18059TIP3    H275669   3.928   6.213   4.019 -0.2568 -0.2149 -0.1703
18060TIP3   OH275670   1.709   5.227   3.397  0.3659 -0.4068  0.4343
18060TIP3    H175671   1.649   5.301   3.406  0.3176 -0.3668 -0.1714
18060TIP3    H275672   1.794   5.268   3.379  0.5148 -0.4741  0.9610
18061TIP3   OH275673   0.845   6.803  11.825 -0.0079 -0.3020  0.0675
18061TIP3    H175674   0.903   6.876  11.804 -1.9649  1.0497 -0.9656
18061TIP3    H275675   0.897   6.746  11.883  2.4526  0.5657 -1.1721
18062TIP3   OH275676   5.892   0.918   5.068 -0.4941  0.0687 -0.4700
18062TIP3    H175677   5.897   0.974   4.991 -1.4252 -0.3134 -0.8225
18062TIP3    H275678   5.867   0.977   5.139 -2.2591 -0.0071 -0.9931
18063TIP3   OH275679   2.332   6.131   4.127  0.3523  0.0702  0.0874
18063TIP3    H175680   2.253   6.149   4.177 -0.8987 -2.6653 -0.7504
18063TIP3    H275681   2.345   6.211   4.075 -1.6427  0.7237  0.4923
18064TIP3   OH275682   2.236   1.313   4.381  0.2071  0.1141  0.2549
18064TIP3    H175683   2.223   1.379   4.313  0.2139 -0.9077 -0.7698
18064TIP3    H275684   2.266   1.235   4.334 -0.2783 -0.7814  1.3631
18065TIP3   OH275685   1.169   3.363  13.393 -0.4436  0.3987 -0.4217
18065TIP3    H175686   1.224   3.294  13.431 -0.8702  0.6756  0.7436
18065TIP3    H275687   1.231   3.432  13.369  0.0058 -0.4241 -1.7502
18066TIP3   OH275688   0.313   4.007   4.779  0.0123  0.0558  0.2706
18066TIP3    H175689   0.289   4.070   4.712 -0.8081  0.0370  0.5348
18066TIP3    H275690   0.237   4.002   4.836  0.2592 -0.7920  0.5493
18067TIP3   OH275691   1.048   5.246   5.735 -0.2429 -0.3929 -0.2938
18067TIP3    H175692   1.128   5.293   5.754  2.5857 -3.9890 -2.0056
18067TIP3    H275693   1.014   5.219   5.820  2.0219 -1.1634  0.4234
18068TIP3   OH275694   5.266   5.392  12.708 -0.3388  0.3303  0.3496
18068TIP3    H175695   5.332   5.447  12.667 -2.3451  0.8998 -2.4230
18068TIP3    H275696   5.183   5.434  12.687 -1.7425 -1.7003  1.4711
18069TIP3   OH275697   2.729   2.175  11.374  0.6956  0.4764 -0.4229
18069TIP3    H175698   2.818   2.143  11.361  0.8604  0.7153  0.0809
18069TIP3    H275699   2.707   2.152  11.464  0.7594  1.5949 -0.0968
18070TIP3   OH275700   1.086   2.804  10.684 -0.3601 -0.0979 -0.3718
18070TIP3    H175701   1.145   2.765  10.749 -0.5639 -0.5858 -0.4723
18070TIP3    H275702   1.144   2.850  10.624 -0.0654 -0.6593 -0.5278
18071TIP3   OH275703   4.081   0.151   0.909 -0.4327 -0.4131 -0.0239
18071TIP3    H175704   4.033   0.183   0.986 -2.0361 -1.3619 -0.5664
18071TIP3    H275705   4.134   0.225   0.882 -1.0516  0.4730  1.0583
18072TIP3   OH275706   3.455   1.103   0.881  0.0464 -0.0870 -0.6542
18072TIP3    H175707   3.460   1.115   0.975 -0.0233 -0.6506 -0.5749
18072TIP3    H275708   3.361   1.107   0.861 -0.0675 -1.4767 -0.4829
18073TIP3   OH275709   4.812   1.048   6.540 -0.9074  0.2378  0.1880
18073TIP3    H175710   4.906   1.057   6.522 -0.9272  0.0074 -0.0263
18073TIP3    H275711   4.770   1.081   6.461 -0.9999 -0.2200  0.0418
18074TIP3   OH275712   2.337   0.511   4.167 -0.1743 -0.3994  0.6499
18074TIP3    H175713   2.322   0.596   4.125 -2.0870 -0.4176  1.1739
18074TIP3    H275714   2.274   0.452   4.125  2.5686 -2.2121 -1.2781
18075TIP3   OH275715   6.033   0.337   0.750  0.0887 -0.5312 -0.4904
18075TIP3    H175716   6.101   0.328   0.683  0.3929  1.2387 -0.4626
18075TIP3    H275717   6.053   0.268   0.813  0.0610 -1.9537 -1.9674
18076TIP3   OH275718   1.674   1.031   4.649 -0.5290 -0.3726 -0.5683
18076TIP3    H175719   1.613   0.958   4.637 -0.5097 -0.3175 -0.9993
18076TIP3    H275720   1.642   1.099   4.590 -0.2044 -0.2477 -0.6005
18077TIP3   OH275721   1.791   2.028   5.996 -0.3849  0.2484 -0.7115
18077TIP3    H175722   1.851   1.991   6.060  0.3036  1.2732 -0.7389
18077TIP3    H275723   1.835   2.107   5.964 -1.0217  0.1488 -1.9297
18078TIP3   OH275724   0.821   4.620   0.179  0.1538 -0.1827 -0.0862
18078TIP3    H175725   0.790   4.601   0.268 -0.0634  0.6630  0.0284
18078TIP3    H275726   0.747   4.662   0.136 -0.2509 -1.8995 -1.1682
18079TIP3   OH275727   4.696   6.423   5.387  0.0143  0.0337  0.0825
18079TIP3    H175728   4.773   6.480   5.390  0.6165 -0.7803  2.3334
18079TIP3    H275729   4.638   6.464   5.323  0.6400  2.8584  1.1758
18080TIP3   OH275730   3.622   6.136   2.780  0.2027  0.0991  0.3238
18080TIP3    H175731   3.712   6.105   2.773  0.7475  1.6936 -0.0240
18080TIP3    H275732   3.593   6.146   2.689 -0.2171 -0.0611  0.4345
18081TIP3   OH275733   3.676   1.310   5.593 -0.8198 -0.3575  0.0285
18081TIP3    H175734   3.766   1.307   5.624 -0.7220 -2.2862 -0.3537
18081TIP3    H275735   3.683   1.299   5.498 -1.3844  1.1635 -0.2210
18082TIP3   OH275736   2.747   1.031   3.749  0.2864 -0.3429  0.5905
18082TIP3    H175737   2.774   0.950   3.707 -1.4408 -2.0376  2.5190
18082TIP3    H275738   2.656   1.044   3.720  1.0303  1.9198 -1.0391
18083TIP3   OH275739   6.306   2.020   2.282  0.1435  0.1752  0.0000
18083TIP3    H175740   6.274   2.009   2.371  1.0369  1.6224  0.5171
18083TIP3    H275741   6.396   1.988   2.284  0.1921  0.2770 -0.3781
18084TIP3   OH275742   0.970   3.938   3.034  0.0900  0.0379  0.0081
18084TIP3    H175743   0.962   4.004   3.103  1.3069 -0.1325  0.3266
18084TIP3    H275744   1.030   3.977   2.970  0.3474 -0.5197 -0.0923
18085TIP3   OH275745   3.701   4.728   3.281 -0.3713 -0.3207 -0.1044
18085TIP3    H175746   3.774   4.773   3.240  0.6938 -1.1302  0.8527
18085TIP3    H275747   3.624   4.781   3.257  0.5945  0.9441 -0.5371
18086TIP3   OH275748   5.157   4.697   1.661 -0.1085  0.5979 -0.1960
18086TIP3    H175749   5.199   4.650   1.588 -2.0063 -1.9491  0.1893
18086TIP3    H275750   5.207   4.672   1.738 -1.1290 -0.9930  0.0122
18087TIP3   OH275751   0.213   6.466   5.754  0.6452  0.3295  0.3142
18087TIP3    H175752   0.175   6.532   5.811  0.8215  1.6804 -1.0640
18087TIP3    H275753   0.268   6.412   5.811 -1.4059 -0.1727  1.9011
18088TIP3   OH275754   1.776   2.630   3.153  0.0689 -0.0962 -0.3720
18088TIP3    H175755   1.701   2.616   3.095  1.2685  0.2207 -2.0765
18088TIP3    H275756   1.825   2.548   3.149 -1.0169 -0.9470  2.1073
18089TIP3   OH275757   5.940   2.758  15.254  0.5059  0.0292 -0.5341
18089TIP3    H175758   5.994   2.825  15.297  0.9755 -0.9051  0.4047
18089TIP3    H275759   5.876   2.733  15.321  1.1018 -1.2997 -0.4352
18090TIP3   OH275760   3.785   6.588  10.704  0.7565  0.0421 -0.0120
18090TIP3    H175761   3.754   6.668  10.661  2.0863  0.2510 -0.6236
18090TIP3    H275762   3.807   6.529  10.632  2.4558  0.1747  0.3661
18091TIP3   OH275763   6.595   3.365   0.915  0.0563  0.8629  0.0317
18091TIP3    H175764   6.575   3.386   1.006  1.5083 -0.4925  0.7084
18091TIP3    H275765   6.602   3.269   0.913  2.1514  0.9740 -0.9935
18092TIP3   OH275766   4.435   0.332   3.208  0.1269 -0.5252  0.0551
18092TIP3    H175767   4.375   0.280   3.154 -2.6911  0.4976  1.9842
18092TIP3    H275768   4.415   0.423   3.186  0.4102 -0.1492  1.2670
18093TIP3   OH275769   4.747   1.090  17.033  0.4419  0.1633 -0.1294
18093TIP3    H175770   4.759   1.149  16.959 -1.4045  1.1453  0.2936
18093TIP3    H275771   4.721   1.147  17.106 -1.8593 -1.1382  0.1734
18094TIP3   OH275772   2.032   5.540  14.228 -0.0343 -0.3153 -0.4549
18094TIP3    H175773   2.013   5.448  14.247 -0.8529  0.2355  1.6881
18094TIP3    H275774   2.118   5.539  14.186  0.6033 -1.9796  0.7665
18095TIP3   OH275775   5.568   1.370   3.682 -0.4438 -0.4141 -0.3806
18095TIP3    H175776   5.662   1.386   3.670 -0.3686 -1.8316 -2.1903
18095TIP3    H275777   5.527   1.438   3.629 -0.5235  0.8687  1.2491
18096TIP3   OH275778   2.481   1.057   5.987 -0.0462 -0.3437 -0.3937
18096TIP3    H175779   2.521   1.126   6.041 -1.0879  0.5369 -0.7057
18096TIP3    H275780   2.419   1.014   6.045  1.0579 -1.4639 -0.0167
18097TIP3   OH275781   6.691   2.185   1.591 -0.0750 -0.3659  0.4160
18097TIP3    H175782   6.667   2.224   1.507  3.0381 -2.7776 -1.8769
18097TIP3    H275783   6.650   2.098   1.590  0.6112 -0.7096  1.0155
18098TIP3   OH275784   0.358   6.282  12.157  0.4531  0.4110 -0.4385
18098TIP3    H175785   0.339   6.356  12.214 -1.5938 -0.6147  0.3417
18098TIP3    H275786   0.440   6.305  12.113  1.4175  1.8099  1.9233
18099TIP3   OH275787   4.611   2.220  11.440 -0.3349  0.1529 -0.2553
18099TIP3    H175788   4.589   2.295  11.385 -0.0611  0.3819 -0.0557
18099TIP3    H275789   4.675   2.170  11.390 -1.7055 -0.8346 -1.0960
18100TIP3   OH275790   5.553   2.718   2.632 -0.8431  0.0836 -0.4518
18100TIP3    H175791   5.576   2.809   2.613  1.3025 -0.2070  0.5343
18100TIP3    H275792   5.635   2.671   2.628 -1.9199 -1.8589 -0.9266
18101TIP3   OH275793   3.489   5.055  11.968 -0.1055  0.7233  0.0972
18101TIP3    H175794   3.548   5.060  12.042  0.0853  2.8234 -0.1404
18101TIP3    H275795   3.487   5.144  11.932 -0.7282 -0.0731 -1.9937
18102TIP3   OH275796   3.757   5.997  15.507 -0.3812  0.4379 -0.8147
18102TIP3    H175797   3.772   5.983  15.600  1.1485 -0.0330 -1.0974
18102TIP3    H275798   3.784   5.915  15.465 -1.1829  0.5893 -1.6658
18103TIP3   OH275799   2.829   3.048   4.927  0.3797  0.3362 -0.2321
18103TIP3    H175800   2.908   3.099   4.945 -0.3638  0.9553  1.4722
18103TIP3    H275801   2.861   2.959   4.910  1.3921  0.3951  1.2322
18104TIP3   OH275802   6.708   4.406  12.094 -0.0217  0.1426  0.0964
18104TIP3    H175803   6.792   4.443  12.121  0.4702 -0.4470 -0.6037
18104TIP3    H275804   6.729   4.317  12.066 -1.0391 -0.3400  0.8387
18105TIP3   OH275805   1.126   6.073  13.625  0.3637  0.3809  0.1157
18105TIP3    H175806   1.179   6.074  13.546  0.2547  2.7788 -0.0186
18105TIP3    H275807   1.048   6.022  13.602  1.8396 -1.8822 -0.1562
18106TIP3   OH275808   2.533   5.586  13.018  0.6000  0.1351  0.3935
18106TIP3    H175809   2.620   5.548  13.012  0.4603 -0.7303  2.7963
18106TIP3    H275810   2.479   5.519  13.060 -1.0748  0.9077 -0.3905
18107TIP3   OH275811   3.374   3.101  16.561 -0.1535 -0.3063  0.2022
18107TIP3    H175812   3.420   3.177  16.598 -0.3128 -0.1351  0.0466
18107TIP3    H275813   3.391   3.106  16.467 -0.7603 -0.0640  0.1038
18108TIP3   OH275814   4.360   2.494  14.480  0.6138  0.0256  0.3047
18108TIP3    H175815   4.393   2.415  14.438  0.2919 -0.4537  0.9271
18108TIP3    H275816   4.377   2.564  14.417  0.0050 -0.6863 -0.6946
18109TIP3   OH275817   2.956   2.295  12.488  0.0713  0.2293  0.0293
18109TIP3    H175818   2.999   2.216  12.519  0.7022  0.2025 -0.8706
18109TIP3    H275819   2.988   2.364  12.547 -0.2921 -0.1391  0.6615
18110TIP3   OH275820   3.163   2.794   3.117 -0.8077 -0.0208 -0.2606
18110TIP3    H175821   3.182   2.888   3.113 -1.5936  0.1818  0.4745
18110TIP3    H275822   3.068   2.788   3.106 -0.7455 -0.7474 -0.4595
18111TIP3   OH275823   2.396   1.260  12.880  0.1277 -0.1642 -0.3463
18111TIP3    H175824   2.444   1.308  12.813  0.8313  0.8113  0.8293
18111TIP3    H275825   2.342   1.198  12.830  1.2654 -0.0704 -1.7752
18112TIP3   OH275826   2.603   3.386  11.306  0.1910  0.2274 -0.1003
18112TIP3    H175827   2.535   3.380  11.374 -1.1162 -1.3203 -1.4580
18112TIP3    H275828   2.669   3.321  11.333 -0.8808 -1.2245 -0.8387
18113TIP3   OH275829   6.059   2.095  12.952  0.2634 -0.0789  0.1877
18113TIP3    H175830   6.134   2.144  12.986 -0.0790  1.0239 -0.5577
18113TIP3    H275831   6.081   2.003  12.965  0.9426  0.2666  1.6301
18114TIP3   OH275832   4.075   4.297   3.125  1.0662  0.1678  0.1225
18114TIP3    H175833   3.993   4.312   3.077 -0.1535  0.7229  2.2625
18114TIP3    H275834   4.078   4.202   3.137 -0.2493  0.2635  1.5574
18115TIP3   OH275835   1.112   6.226   1.103 -0.1908  0.3573 -0.1088
18115TIP3    H175836   1.050   6.296   1.123 -0.2492  0.5508 -0.9226
18115TIP3    H275837   1.072   6.178   1.032  0.0737 -0.2177  0.1279
18116TIP3   OH275838   5.662   6.267  12.963  0.4204  0.6008 -0.4135
18116TIP3    H175839   5.729   6.321  12.921  0.3032  0.2742 -1.0248
18116TIP3    H275840   5.668   6.182  12.920  0.8265  0.0043  0.7726
18117TIP3   OH275841   1.121   5.261  15.725 -0.0604  1.0742  0.3171
18117TIP3    H175842   1.061   5.204  15.772  0.7841  0.6914  0.9566
18117TIP3    H275843   1.092   5.258  15.634 -1.7525  1.8569  0.7939
18118TIP3   OH275844   5.274   1.135   3.010 -0.1600 -0.3960 -0.2982
18118TIP3    H175845   5.270   1.191   3.087 -1.9034  0.1957 -0.7633
18118TIP3    H275846   5.201   1.073   3.022 -0.0901 -0.6657 -1.1911
18119TIP3   OH275847   4.385   0.411  12.428 -0.2321 -0.6222 -0.0625
18119TIP3    H175848   4.430   0.495  12.441 -0.7943 -0.3129 -0.0775
18119TIP3    H275849   4.295   0.428  12.456 -0.2574 -1.3311  0.2914
18120TIP3   OH275850   6.577   2.204   5.612 -0.3355  0.1198  0.1410
18120TIP3    H175851   6.543   2.140   5.550  2.6118 -0.6708 -0.7870
18120TIP3    H275852   6.561   2.164   5.698 -0.2469 -0.9600 -0.3336
18121TIP3   OH275853   5.352   0.436   4.681  0.2345 -0.2582  0.1311
18121TIP3    H175854   5.387   0.420   4.593  0.1323  1.3511 -0.2326
18121TIP3    H275855   5.289   0.365   4.695  1.4245 -1.4845 -0.4078
18122TIP3   OH275856   3.014   4.319   5.399  0.7568 -0.5166  0.3245
18122TIP3    H175857   2.949   4.350   5.462  0.0605 -0.0609 -0.5768
18122TIP3    H275858   2.962   4.288   5.325  1.5040 -2.3726  0.5295
18123TIP3   OH275859   1.810   3.645   3.742 -0.2204 -0.1974  0.0514
18123TIP3    H175860   1.820   3.645   3.838 -0.9188 -1.4370  0.1586
18123TIP3    H275861   1.864   3.571   3.713  0.0795  0.2486 -0.5262
18124TIP3   OH275862   4.201   5.419  11.363  0.3801 -0.3556  0.2309
18124TIP3    H175863   4.153   5.348  11.406 -0.2862  0.6195  1.1386
18124TIP3    H275864   4.275   5.437  11.422  1.5220 -1.4021 -0.8315
18125TIP3   OH275865   3.888   6.022   4.442  0.0113 -0.0081 -0.4270
18125TIP3    H175866   3.889   6.107   4.398 -1.0074  0.1115 -0.2461
18125TIP3    H275867   3.962   5.975   4.406 -1.0781 -0.1061 -2.6738
18126TIP3   OH275868   4.874   4.670   4.127  0.0172 -0.6628  0.1150
18126TIP3    H175869   4.931   4.700   4.197 -1.0686 -0.4507  0.9400
18126TIP3    H275870   4.786   4.692   4.157 -0.4831 -0.6862 -1.2622
18127TIP3   OH275871   3.267   0.444  16.297  0.7060  0.3583  0.7383
18127TIP3    H175872   3.263   0.446  16.393  0.5766 -1.3709  0.7979
18127TIP3    H275873   3.308   0.527  16.273  1.1111  0.6483  2.3144
18128TIP3   OH275874   6.694   3.563   2.767  0.1641 -0.5345  0.0323
18128TIP3    H175875   6.635   3.611   2.708 -0.3241 -0.6101  0.4499
18128TIP3    H275876   6.703   3.477   2.726  1.2098 -0.0363 -0.8278
18129TIP3   OH275877   2.761   5.677  14.702  0.0210  0.3515 -0.0937
18129TIP3    H175878   2.790   5.641  14.618 -2.0800 -0.3925 -0.5627
18129TIP3    H275879   2.779   5.771  14.696  0.8505  0.1485 -0.9532
18130TIP3   OH275880   0.474   0.411   3.194  0.3775  0.5377  0.1016
18130TIP3    H175881   0.381   0.428   3.179 -0.2004 -0.8943  1.7135
18130TIP3    H275882   0.482   0.316   3.190  1.2427  0.4404  2.3688
18131TIP3   OH275883   2.027   6.122  14.978  0.5512  0.2386 -0.3527
18131TIP3    H175884   1.940   6.082  14.981  0.5546  0.2831  0.8564
18131TIP3    H275885   2.082   6.063  15.030  1.0014  0.7585 -0.2351
18132TIP3   OH275886   2.742   5.218  13.840  0.3788 -0.6280 -0.1643
18132TIP3    H175887   2.739   5.289  13.776  0.0657  0.1716  0.7094
18132TIP3    H275888   2.696   5.146  13.799 -2.5309  0.8249  0.2880
18133TIP3   OH275889   4.046   4.648   5.918 -0.1661  0.2530  0.2106
18133TIP3    H175890   4.122   4.694   5.882  2.3797 -1.9470  2.3463
18133TIP3    H275891   3.971   4.704   5.895  1.9049  2.0417 -2.8691
18134TIP3   OH275892   6.193   6.480  17.038 -0.0200 -0.0035  0.3674
18134TIP3    H175893   6.198   6.432  16.955 -0.0302 -0.3044  0.5410
18134TIP3    H275894   6.284   6.497  17.062 -0.0306  0.9511 -0.2038
18135TIP3   OH275895   6.616   4.280   5.788 -0.6860 -0.6245  0.0943
18135TIP3    H175896   6.593   4.354   5.844  0.9905 -1.6039  2.2327
18135TIP3    H275897   6.695   4.308   5.742 -0.6103 -0.7266  0.1616
18136TIP3   OH275898   2.054   5.122   3.106  1.0574 -0.1410  0.1512
18136TIP3    H175899   2.068   5.028   3.112 -1.2030 -0.5888 -0.5622
18136TIP3    H275900   1.959   5.133   3.115  1.2786  2.0842  0.3563
18137TIP3   OH275901   2.486   2.830   6.626 -0.6045 -0.3447  0.0316
18137TIP3    H175902   2.436   2.909   6.607 -0.9200 -0.1750  1.4225
18137TIP3    H275903   2.558   2.861   6.681 -0.1884 -0.8998 -0.1955
18138TIP3   OH275904   5.250   5.788  15.981 -0.6776  0.7460  0.1600
18138TIP3    H175905   5.322   5.810  16.041  1.9244 -0.7230 -2.1835
18138TIP3    H275906   5.247   5.860  15.919  1.2745 -0.7198 -1.7895
18139TIP3   OH275907   6.022   5.915   4.162  0.1058 -0.0172  0.2020
18139TIP3    H175908   6.040   5.852   4.232  0.4628  0.2339  0.3383
18139TIP3    H275909   6.103   5.916   4.110 -0.0122  0.0977  0.0199
18140TIP3   OH275910   0.205   1.188  16.956  0.3254  0.4065  0.1691
18140TIP3    H175911   0.206   1.134  16.877  0.1723 -0.0755  0.4899
18140TIP3    H275912   0.211   1.278  16.924  1.0624  0.1790 -0.3479
18141TIP3   OH275913   1.533   6.264   2.443  0.1786  0.2589  0.2002
18141TIP3    H175914   1.581   6.341   2.475  0.2936  0.3858 -0.2647
18141TIP3    H275915   1.443   6.278   2.474 -0.0849  1.2123 -0.9208
18142TIP3   OH275916   4.641   3.329   5.158 -0.2267 -0.2247 -0.8482
18142TIP3    H175917   4.689   3.325   5.241 -0.2941 -3.5013 -0.8422
18142TIP3    H275918   4.654   3.419   5.127  0.7341  0.7777  2.1246
18143TIP3   OH275919   3.330   6.450   5.343  0.3066  0.1949  0.0693
18143TIP3    H175920   3.364   6.539   5.338  1.6394 -0.3309 -0.8584
18143TIP3    H275921   3.275   6.450   5.421  0.7369  1.6733  0.4093
18144TIP3   OH275922   0.894   6.111  13.071  0.1139 -0.1770  0.5370
18144TIP3    H175923   0.962   6.124  13.137 -1.1144  1.4252  1.5674
18144TIP3    H275924   0.934   6.140  12.989  1.3000 -1.1416  0.7535
18145TIP3   OH275925   1.241   4.525   0.728 -0.3349 -0.1835  0.1778
18145TIP3    H175926   1.279   4.603   0.768 -0.3343  0.1658 -0.4761
18145TIP3    H275927   1.153   4.551   0.703 -0.3201 -0.3753 -0.0795
18146TIP3   OH275928   5.043   4.900   0.207 -0.3993 -0.2466 -0.3728
18146TIP3    H175929   5.082   4.985   0.226 -0.4361 -0.0413 -1.2017
18146TIP3    H275930   5.088   4.869   0.129  0.3281 -1.4605  0.4922
18147TIP3   OH275931   5.462   0.700  15.240  0.0821  0.2641  0.5091
18147TIP3    H175932   5.524   0.739  15.179 -0.2437 -2.2590 -1.6002
18147TIP3    H275933   5.497   0.612  15.257 -1.1466  0.0199  2.0266
18148TIP3   OH275934   2.344   0.654   2.203  0.3046  0.5338  0.1433
18148TIP3    H175935   2.378   0.649   2.292  0.3732 -0.3196  0.0778
18148TIP3    H275936   2.408   0.708   2.156  1.6049 -1.0198  0.0297
18149TIP3   OH275937   1.325   4.738   0.856 -0.1535  0.5335 -0.1477
18149TIP3    H175938   1.330   4.822   0.810 -1.7308  0.7964  0.0784
18149TIP3    H275939   1.371   4.753   0.938 -0.7908  1.3485  0.0845
18150TIP3   OH275940   3.964   2.953  14.970 -0.0402 -0.4517 -0.4181
18150TIP3    H175941   4.013   2.891  14.915  0.1710  0.4134 -1.2214
18150TIP3    H275942   4.029   2.987  15.032 -0.3414 -1.6450  0.5965
18151TIP3   OH275943   1.738   0.556   0.445  0.5597  0.1347 -0.0921
18151TIP3    H175944   1.775   0.475   0.480  0.3835  0.0119 -0.1863
18151TIP3    H275945   1.754   0.621   0.513  1.2515  0.1642 -0.2769
18152TIP3   OH275946   5.863   3.063   1.206  0.1905  0.5936 -0.3457
18152TIP3    H175947   5.934   3.078   1.143  1.1189  1.2731  0.8108
18152TIP3    H275948   5.908   3.048   1.290 -0.9591 -1.3725 -0.0075
18153TIP3   OH275949   4.082   3.355   1.389 -0.2820  0.1175  1.2789
18153TIP3    H175950   4.102   3.272   1.347 -1.4518  0.5908 -0.3199
18153TIP3    H275951   4.112   3.421   1.327 -1.4165  0.8512  1.4720
18154TIP3   OH275952   4.649   2.755  11.778  0.0793  0.0212  0.5763
18154TIP3    H175953   4.571   2.704  11.800 -0.6518  1.1683  0.7060
18154TIP3    H275954   4.720   2.712  11.827  0.0152 -2.4033 -1.2360
18155TIP3   OH275955   6.492   4.863  12.063 -0.5449  0.6935 -0.5199
18155TIP3    H175956   6.430   4.791  12.073 -0.0073  0.1384 -1.0717
18155TIP3    H275957   6.526   4.853  11.974  1.7842 -0.1983  0.3829
18156TIP3   OH275958   6.664   5.407  15.703  0.3525  0.1694  0.1827
18156TIP3    H175959   6.585   5.353  15.699 -1.5181  2.6211  1.6709
18156TIP3    H275960   6.675   5.428  15.796  1.8194  1.2540 -0.1913
18157TIP3   OH275961   2.129   2.104  13.052 -0.1404 -0.4859  0.2129
18157TIP3    H175962   2.183   2.081  12.976  1.2428  0.0872  0.9851
18157TIP3    H275963   2.122   2.022  13.102  1.3048 -0.2449  0.8614
18158TIP3   OH275964   5.408   0.547  15.997 -0.3319 -0.2012 -0.4268
18158TIP3    H175965   5.363   0.465  15.977 -1.1992  0.5071 -1.5576
18158TIP3    H275966   5.397   0.559  16.091 -1.0672 -0.8906 -0.4176
18159TIP3   OH275967   4.249   0.441   2.974 -0.0051  0.2765  0.0329
18159TIP3    H175968   4.297   0.508   3.022  3.0314 -1.6109 -0.0830
18159TIP3    H275969   4.275   0.455   2.882 -1.1003  0.2669 -0.2894
18160TIP3   OH275970   6.524   0.913  15.097  0.3660  0.4801 -0.0411
18160TIP3    H175971   6.502   0.995  15.142  0.4517  0.1698  0.5679
18160TIP3    H275972   6.600   0.936  15.043  2.1423  0.1625  2.1898
18161TIP3   OH275973   4.526   0.212   2.148  0.3089  0.2889  0.2824
18161TIP3    H175974   4.560   0.146   2.208 -1.6874 -0.9223  0.1600
18161TIP3    H275975   4.494   0.282   2.204 -0.5075 -0.3282  0.6093
18162TIP3   OH275976   5.824   4.208  14.889 -0.4795 -0.4090 -0.1783
18162TIP3    H175977   5.748   4.213  14.948  0.4847 -0.4627  1.1043
18162TIP3    H275978   5.855   4.298  14.883 -1.7090 -0.0641 -2.2002
18163TIP3   OH275979   6.480   5.577   4.624  0.0268 -0.2843  0.5080
18163TIP3    H175980   6.458   5.627   4.703  0.3889  2.1577 -0.8416
18163TIP3    H275981   6.414   5.509   4.620 -0.2737 -0.1894  2.6644
18164TIP3   OH275982   1.532   1.536  16.744 -0.0204 -0.0576 -0.2588
18164TIP3    H175983   1.523   1.617  16.794 -3.1153 -1.5949  2.0031
18164TIP3    H275984   1.509   1.561  16.654  0.9193  1.8736 -0.0107
18165TIP3   OH275985   2.509   2.507  10.433  0.8850 -0.2799  0.6843
18165TIP3    H175986   2.520   2.487  10.340  0.5954  3.4110 -0.2766
18165TIP3    H275987   2.428   2.557  10.437 -0.5839 -2.5582  3.4202
18166TIP3   OH275988   1.366   4.067   6.288 -0.4844  0.3785 -0.3798
18166TIP3    H175989   1.447   4.113   6.311  0.6643 -1.5731 -0.2800
18166TIP3    H275990   1.297   4.118   6.330  0.8579  1.1184  1.0343
18167TIP3   OH275991   0.032   5.940   2.893  0.1662  0.5166 -0.3518
18167TIP3    H175992   0.101   5.958   2.957  0.4050  1.7361 -0.9207
18167TIP3    H275993  -0.049   5.962   2.939  0.2419  0.1264 -0.0346
18168TIP3   OH275994   2.330   2.849   2.844 -0.2526  0.0402  0.1451
18168TIP3    H175995   2.253   2.883   2.889  1.4582  2.9970  1.0670
18168TIP3    H275996   2.380   2.803   2.911  0.6353  1.5023  0.5194
18169TIP3   OH275997   1.882   1.804  15.984  0.3500  0.3224  0.0287
18169TIP3    H175998   1.907   1.887  15.944  2.6939  0.0378  0.7049
18169TIP3    H275999   1.904   1.815  16.077 -1.6643 -0.2300  0.6168
18170TIP3   OH276000   3.570   5.771   3.771 -0.1621  0.0723 -0.4390
18170TIP3    H176001   3.564   5.866   3.783  0.0281  0.0688 -0.3200
18170TIP3    H276002   3.606   5.739   3.853 -1.8500 -0.2964  0.2122
18171TIP3   OH276003   1.334   3.904   1.157 -0.3802  0.6836  0.2858
18171TIP3    H176004   1.354   3.958   1.081 -1.8884  1.1383  0.1870
18171TIP3    H276005   1.316   3.818   1.121 -1.8374  1.0773  0.0228
18172TIP3   OH276006   6.830   5.141  14.619 -0.3857  0.1197  0.2014
18172TIP3    H176007   6.787   5.121  14.535  0.1139 -0.6670  0.1228
18172TIP3    H276008   6.804   5.069  14.676 -0.9592  0.8025  0.8283
18173TIP3   OH276009   3.049   0.638   3.190  0.2066 -0.4960  0.1243
18173TIP3    H176010   3.095   0.699   3.247  0.9940 -1.8685  1.0107
18173TIP3    H276011   3.114   0.614   3.123 -0.0348 -0.5255 -0.1039
18174TIP3   OH276012   3.084   3.380   2.129  0.9170 -0.1139 -0.0847
18174TIP3    H176013   3.147   3.344   2.067  0.5011 -0.0420 -0.5539
18174TIP3    H276014   3.011   3.410   2.075 -0.1502 -1.4694  0.5534
18175TIP3   OH276015   2.068   4.260   2.761  0.0859  0.5597 -0.8370
18175TIP3    H176016   2.033   4.187   2.709 -0.6376 -0.2587  0.7344
18175TIP3    H276017   2.141   4.293   2.709 -0.7084 -0.1191 -2.4398
18176TIP3   OH276018   4.952   1.794  11.107  0.0853 -0.2447  0.0889
18176TIP3    H176019   4.939   1.709  11.148 -2.5706  0.6556  1.3890
18176TIP3    H276020   4.884   1.798  11.039  0.9328  0.4009 -0.7393
18177TIP3   OH276021   2.452   0.099   2.137 -0.2845  0.7595 -0.2844
18177TIP3    H176022   2.488   0.049   2.063  0.7840  1.9850 -0.6220
18177TIP3    H276023   2.492   0.059   2.214  0.2818  0.8526 -0.5234
18178TIP3   OH276024   5.359   4.292  13.941  0.1973 -0.2121 -0.8411
18178TIP3    H176025   5.357   4.254  14.029 -1.4746  1.0837 -0.2645
18178TIP3    H276026   5.366   4.386  13.957  0.6500 -0.0160 -2.1355
18179TIP3   OH276027   6.554   0.363   1.490  0.4035 -0.2230 -0.0111
18179TIP3    H176028   6.554   0.387   1.398  2.6487  0.0858  0.0164
18179TIP3    H276029   6.515   0.276   1.492  0.6141 -0.3654 -1.2847
18180TIP3   OH276030   0.423   3.136  15.997  0.1364  0.1232  0.3290
18180TIP3    H176031   0.484   3.115  16.068 -0.4008  2.3060  1.5104
18180TIP3    H276032   0.384   3.051  15.974  1.7811 -0.9412  1.2298
18181TIP3   OH276033   0.602   6.197  16.690  0.1226  0.0302 -0.0522
18181TIP3    H176034   0.628   6.288  16.677  1.3621 -0.3676 -0.4971
18181TIP3    H276035   0.663   6.164  16.756  0.2412 -0.7123 -0.5208
18182TIP3   OH276036   6.803   4.746   2.841 -0.3171 -0.2427 -0.1474
18182TIP3    H176037   6.842   4.755   2.928 -0.1846 -0.6565 -0.1612
18182TIP3    H276038   6.756   4.829   2.826 -1.5550 -0.7207  0.9190
18183TIP3   OH276039   0.090   1.189  14.838  0.3157 -0.0374  0.4618
18183TIP3    H176040   0.138   1.147  14.909 -1.2628 -1.7739  0.5878
18183TIP3    H276041   0.105   1.283  14.850  2.9543 -0.4456  0.9244
18184TIP3   OH276042   1.779   0.520   2.823 -0.0118  0.2398  0.8475
18184TIP3    H176043   1.827   0.565   2.892  1.2613 -0.4847  0.4602
18184TIP3    H276044   1.807   0.562   2.742  1.1080 -1.1069  0.4913
18185TIP3   OH276045   4.417   1.926   4.245  0.1721 -0.0559  0.6120
18185TIP3    H176046   4.391   2.015   4.223  1.8545  0.9006  2.2262
18185TIP3    H276047   4.358   1.901   4.316 -1.2535 -0.8322 -0.7898
18186TIP3   OH276048   1.697   6.169  16.508  0.2464  0.1580 -0.0013
18186TIP3    H176049   1.784   6.190  16.476 -0.4589  0.8449 -1.5789
18186TIP3    H276050   1.658   6.254  16.528 -0.3525 -0.0894 -0.1055
18187TIP3   OH276051   3.288   0.734   0.392 -0.1308  0.1460 -0.1903
18187TIP3    H176052   3.338   0.682   0.455  0.6329  1.5813  0.4513
18187TIP3    H276053   3.298   0.688   0.309 -1.4481 -1.9956  0.7409
18188TIP3   OH276054   4.648   5.828  15.122  0.6109 -0.0086  0.0316
18188TIP3    H176055   4.738   5.835  15.154  0.8696 -0.4760 -0.5890
18188TIP3    H276056   4.594   5.852  15.198  1.2531  0.2670  0.4071
18189TIP3   OH276057   5.382   2.364  13.647 -0.5238 -0.4592 -0.0186
18189TIP3    H176058   5.399   2.297  13.580 -1.9284 -1.5006  0.6219
18189TIP3    H276059   5.332   2.431  13.601 -1.1479 -0.9826 -0.1209
18190TIP3   OH276060   5.116   6.118   2.100  0.3295 -0.0968 -0.3490
18190TIP3    H176061   5.063   6.040   2.089 -0.9628  0.7037 -0.0131
18190TIP3    H276062   5.058   6.181   2.142  0.7497  1.6646 -2.2419
18191TIP3   OH276063   2.539   0.708  14.746 -0.0347  0.4373  0.4339
18191TIP3    H176064   2.494   0.661  14.816 -2.9290 -0.7153 -1.9759
18191TIP3    H276065   2.612   0.752  14.790 -1.7189 -0.0520  4.1481
18192TIP3   OH276066   3.334   4.914  12.405 -0.0074  0.6640 -0.0560
18192TIP3    H176067   3.312   4.828  12.372 -0.4342  1.2039 -1.2156
18192TIP3    H276068   3.418   4.902  12.450 -0.0976 -0.3514 -0.1415
18193TIP3   OH276069   5.781   6.340  11.457  0.1492 -0.0687  0.4340
18193TIP3    H176070   5.691   6.337  11.490 -0.2315  1.2825 -0.4185
18193TIP3    H276071   5.772   6.365  11.365  1.4442  1.2226  0.6359
18194TIP3   OH276072   4.659   2.002  12.529 -0.4201  0.2544  0.6615
18194TIP3    H176073   4.714   1.924  12.518  1.4159  1.6359 -0.6010
18194TIP3    H276074   4.592   1.994  12.462  1.6274  1.1781 -1.6516
18195TIP3   OH276075   5.976   5.453  15.589  0.2552  0.4458  0.1017
18195TIP3    H176076   6.063   5.468  15.625  0.4649 -0.6462  0.0875
18195TIP3    H276077   5.961   5.527  15.530  0.6586  1.2882  1.0449
18196TIP3   OH276078   1.993   2.472  15.555 -0.3721 -0.4913 -0.4833
18196TIP3    H176079   1.944   2.475  15.473 -0.7205 -2.1596 -0.3842
18196TIP3    H276080   2.073   2.522  15.537 -1.7105  1.5821 -0.8974
18197TIP3   OH276081   4.984   6.619  14.832  0.5128 -0.2706 -0.0813
18197TIP3    H176082   4.965   6.554  14.764 -1.0886 -0.3492  0.4112
18197TIP3    H276083   4.966   6.575  14.914  1.7951  0.0442  0.3941
18198TIP3   OH276084   1.257   2.960  15.627  0.2840  0.0201 -0.2275
18198TIP3    H176085   1.275   2.876  15.584  0.5044  0.0160 -0.1323
18198TIP3    H276086   1.253   2.939  15.720 -0.4756 -0.0176 -0.2637
18199TIP3   OH276087   0.680   5.159   4.109 -0.0296  0.2547  0.0404
18199TIP3    H176088   0.706   5.250   4.099 -0.0401  0.4342  1.4410
18199TIP3    H276089   0.761   5.109   4.092  0.6472  0.6807  1.7834
18200TIP3   OH276090   2.497   3.483   5.578 -0.0661  0.0408  0.4585
18200TIP3    H176091   2.568   3.543   5.602  1.4781 -0.2849 -2.7728
18200TIP3    H276092   2.428   3.539   5.543  0.4103  0.1196 -0.3798
18201TIP3   OH276093   1.543   2.592  12.998 -0.4397  0.3054  0.0414
18201TIP3    H176094   1.450   2.592  13.019 -0.1495 -0.7989  1.5016
18201TIP3    H276095   1.548   2.548  12.913 -1.1354 -1.1784  0.7288
18202TIP3   OH276096   6.766   3.712  12.943 -0.0576 -0.7051 -0.4129
18202TIP3    H176097   6.740   3.778  13.007  1.6821  0.4842 -0.8537
18202TIP3    H276098   6.776   3.761  12.861 -0.2919 -1.8247 -1.1263
18203TIP3   OH276099   0.315   6.064   5.428 -0.6706 -0.0769  0.2683
18203TIP3    H176100   0.347   6.004   5.361 -0.5335  0.7302 -0.3998
18203TIP3    H276101   0.221   6.049   5.431 -0.7194  0.1072 -0.3336
18204TIP3   OH276102   0.689   5.511  13.514  0.9328 -0.3271 -0.1063
18204TIP3    H176103   0.661   5.481  13.427 -0.6988  2.4432 -0.6525
18204TIP3    H276104   0.778   5.542  13.500  0.6785  0.1215 -0.8406
18205TIP3   OH276105   3.538   6.286  11.401 -0.4357 -0.6345 -0.1372
18205TIP3    H176106   3.554   6.373  11.436 -0.6041 -0.6962  0.0957
18205TIP3    H276107   3.570   6.290  11.311 -2.0714  0.1913 -0.7193
18206TIP3   OH276108   4.206   0.912   0.296 -0.5597  0.4163  0.2241
18206TIP3    H176109   4.245   0.968   0.229 -1.2714  0.3048 -0.2869
18206TIP3    H276110   4.117   0.945   0.307 -0.5768  0.1790  0.8268
18207TIP3   OH276111   5.125   2.888   5.613  0.0011  0.4335  0.1579
18207TIP3    H176112   5.165   2.939   5.542  0.4318 -1.3749 -0.9443
18207TIP3    H276113   5.174   2.913   5.691  1.4931  0.2952 -0.6971
18208TIP3   OH276114   5.270   1.176  14.316  0.3425  0.1908 -0.1462
18208TIP3    H176115   5.235   1.087  14.312 -0.2554  0.4597 -1.0799
18208TIP3    H276116   5.312   1.180  14.402  0.6156 -1.0738 -0.1966
18209TIP3   OH276117   4.507   5.359   5.370 -0.2527  0.5725  0.5470
18209TIP3    H176118   4.583   5.386   5.421  0.3985 -0.7925  0.3586
18209TIP3    H276119   4.468   5.441   5.339  2.0361  1.3009 -0.6318
18210TIP3   OH276120   1.143   0.178  13.768 -0.3567  0.2600 -0.0019
18210TIP3    H176121   1.107   0.091  13.751 -0.3718  0.3641 -0.5192
18210TIP3    H276122   1.091   0.236  13.712 -1.7241  0.9006  1.8259
18211TIP3   OH276123   1.986   5.656   4.823  0.2468  0.1089  0.3166
18211TIP3    H176124   2.006   5.619   4.909 -0.3265  1.9508  1.3038
18211TIP3    H276125   2.048   5.728   4.813 -0.7022  0.8902 -0.1067
18212TIP3   OH276126   2.221   5.186  11.046 -0.3032 -0.4709  0.2068
18212TIP3    H176127   2.148   5.193  10.985  0.7597  0.4389 -1.0240
18212TIP3    H276128   2.298   5.209  10.995  0.6332  0.4503  1.9170
18213TIP3   OH276129   5.655   0.814  12.741 -0.0122 -0.0754 -0.8534
18213TIP3    H176130   5.664   0.741  12.803  0.8293  0.1146 -0.7307
18213TIP3    H276131   5.647   0.892  12.796  0.4668  0.0634 -0.9707
18214TIP3   OH276132   1.628   5.803   5.813  0.2806 -0.0551 -0.6089
18214TIP3    H176133   1.699   5.825   5.873  1.3805 -0.6180 -1.6722
18214TIP3    H276134   1.563   5.759   5.868  1.1247 -0.2959  0.2212
18215TIP3   OH276135   1.667   2.710   1.840 -0.1262 -0.2588  0.2583
18215TIP3    H176136   1.746   2.748   1.879 -1.3543  0.2449  2.3792
18215TIP3    H276137   1.677   2.726   1.746  1.3003  1.6890  0.6793
18216TIP3   OH276138   5.124   5.822  16.733  0.0191 -0.1213  0.4083
18216TIP3    H176139   5.068   5.899  16.724  1.0482  0.5692 -0.4918
18216TIP3    H276140   5.178   5.841  16.810 -0.4150 -0.4167  0.7904
18217TIP3   OH276141   0.415   5.543  13.563 -0.2011  0.6572 -0.1965
18217TIP3    H176142   0.359   5.466  13.573  0.7485 -0.1964 -1.1694
18217TIP3    H276143   0.500   5.508  13.538  0.9054  1.9068  1.5671
18218TIP3   OH276144   4.320   0.472  11.447  0.4994  0.7744  0.3252
18218TIP3    H176145   4.407   0.438  11.470  1.9021  1.3962 -3.3369
18218TIP3    H276146   4.331   0.567  11.446  0.1431  0.8200 -1.2399
18219TIP3   OH276147   4.519   1.926  13.330  0.1557 -0.1574  0.8386
18219TIP3    H176148   4.445   1.865  13.327 -2.8133  3.0623  1.0216
18219TIP3    H276149   4.556   1.923  13.242 -0.0667 -1.9446  0.7705
18220TIP3   OH276150   2.233   0.097  16.198  0.0937  0.6858  0.2075
18220TIP3    H176151   2.212   0.069  16.109 -2.5648  1.5056  0.4759
18220TIP3    H276152   2.219   0.019  16.252 -0.7283  0.8014  0.1727
18221TIP3   OH276153   6.197   6.719  16.291 -0.3520  0.4719 -0.1583
18221TIP3    H176154   6.220   6.629  16.269  1.1420  1.3024 -2.3423
18221TIP3    H276155   6.209   6.724  16.386  2.6089 -0.8801 -0.3285
18222TIP3   OH276156   2.112   0.481  10.643  0.3989  0.0433  0.6406
18222TIP3    H176157   2.186   0.531  10.678  0.3794  0.5985 -0.0998
18222TIP3    H276158   2.036   0.537  10.657  0.0397 -0.6709  1.7210
18223TIP3   OH276159   1.888   4.395   4.890  0.5532 -0.1131  0.1436
18223TIP3    H176160   1.823   4.460   4.915  1.6110  1.0660 -0.0743
18223TIP3    H276161   1.920   4.424   4.805 -0.2887 -1.9900 -0.8703
18224TIP3   OH276162   4.436   6.786  15.171  0.5939  0.8858 -0.2979
18224TIP3    H176163   4.493   6.831  15.233 -3.5711  4.0947  1.7562
18224TIP3    H276164   4.355   6.771  15.220 -1.2736 -1.0909 -3.6069
18225TIP3   OH276165   1.367   1.752   4.821  0.2368  0.1093 -0.3682
18225TIP3    H176166   1.310   1.819   4.782 -0.2260 -0.6715 -1.0711
18225TIP3    H276167   1.315   1.713   4.891  1.1638  1.6928  1.2903
18226TIP3   OH276168   6.299   1.023   0.151 -0.1750  0.0637  0.6465
18226TIP3    H176169   6.300   0.935   0.113  0.4168 -0.0087  0.8090
18226TIP3    H276170   6.217   1.061   0.121  0.8405  0.4934 -1.8497
18227TIP3   OH276171   1.787   3.351   3.361 -0.2344  0.1441  0.5498
18227TIP3    H176172   1.848   3.279   3.341  0.8299  1.3698 -0.8064
18227TIP3    H276173   1.702   3.308   3.366  0.5022 -1.3838  0.9191
18228TIP3   OH276174   2.263   1.306   3.454  0.2548  0.1610 -0.9814
18228TIP3    H176175   2.303   1.227   3.490  0.3788 -0.5562 -2.5879
18228TIP3    H276176   2.226   1.352   3.530  0.6726 -1.1462  0.0455
18229TIP3   OH276177   5.418   5.560   4.531 -0.1797  0.1757  0.2961
18229TIP3    H176178   5.468   5.635   4.500 -1.2356  0.8478  0.1374
18229TIP3    H276179   5.370   5.530   4.454 -1.8413  1.0664  0.9253
18230TIP3   OH276180   4.616   1.646   0.586 -0.0194  0.5719 -0.1744
18230TIP3    H176181   4.588   1.736   0.600 -1.7230  0.3538 -1.7913
18230TIP3    H276182   4.648   1.645   0.496 -0.2714 -0.5077 -0.2617
18231TIP3   OH276183   5.936   6.757  16.865  0.6787  0.4291  0.6680
18231TIP3    H176184   5.927   6.722  16.953 -0.7339 -0.2712  0.2690
18231TIP3    H276185   5.888   6.696  16.809  1.8892  0.6255 -0.6694
18232TIP3   OH276186   0.589   2.501   4.946 -0.2327 -0.5557  0.2221
18232TIP3    H176187   0.656   2.435   4.964 -0.1698 -0.1441  1.6264
18232TIP3    H276188   0.615   2.540   4.862  0.0468 -1.9062 -0.3349
18233TIP3   OH276189   5.871   3.384   4.090 -0.1644  0.2752 -0.5503
18233TIP3    H176190   5.966   3.395   4.098 -0.4335  1.3719  3.8266
18233TIP3    H276191   5.840   3.468   4.056  0.2971  1.3852  1.5595
18234TIP3   OH276192   2.752   2.829  16.115  0.0698  0.2113  0.0585
18234TIP3    H176193   2.680   2.872  16.162 -0.5748  0.9349 -1.5225
18234TIP3    H276194   2.793   2.899  16.065  1.3719 -0.3601  0.2852
18235TIP3   OH276195   4.296   5.510  14.223  0.1142  0.5645  0.1803
18235TIP3    H176196   4.216   5.467  14.256  0.6254 -0.0376  0.6722
18235TIP3    H276197   4.326   5.452  14.154  0.0725  0.8447 -0.0717
18236TIP3   OH276198   0.366   6.516  16.286 -1.3070 -0.0740  0.0092
18236TIP3    H176199   0.286   6.475  16.253 -1.6293  0.7135 -0.2143
18236TIP3    H276200   0.437   6.472  16.240 -1.5798 -1.0915  0.5404
18237TIP3   OH276201   4.378   3.718   4.643 -0.5440  0.3579 -0.1895
18237TIP3    H176202   4.381   3.635   4.595  0.1071 -0.5896  1.4255
18237TIP3    H276203   4.456   3.765   4.613 -0.9209  0.4176 -1.1241
18238TIP3   OH276204   1.002   1.348  12.890  0.4727  0.9950 -0.2936
18238TIP3    H176205   1.031   1.373  12.978  0.6366 -0.8359  0.2209
18238TIP3    H276206   0.952   1.423  12.859  0.3777  1.6683  1.3801
18239TIP3   OH276207   0.170   3.542   1.053  0.5277 -0.0785  0.1619
18239TIP3    H176208   0.191   3.458   1.094 -0.4485 -1.1900 -1.4821
18239TIP3    H276209   0.081   3.561   1.082 -0.0847 -0.7613 -1.1684
18240TIP3   OH276210   1.390   2.105  11.102 -0.5951 -0.2044 -0.0204
18240TIP3    H176211   1.340   2.184  11.124  0.9094  1.0495 -0.8874
18240TIP3    H276212   1.451   2.134  11.034  0.3347 -2.0127 -0.0019
18241TIP3   OH276213   5.601   6.274  13.968 -0.2175 -0.0362  0.0894
18241TIP3    H176214   5.670   6.271  13.902 -0.4900  1.4298 -0.2957
18241TIP3    H276215   5.620   6.200  14.026  2.1390  0.7452  0.4381
18242TIP3   OH276216   1.791   1.780   3.712 -0.8986 -0.0713 -0.3751
18242TIP3    H176217   1.795   1.708   3.650 -1.2843  0.0377 -0.5332
18242TIP3    H276218   1.721   1.755   3.773 -0.0102 -0.5362  0.4774
18243TIP3   OH276219   1.417   2.988   0.676 -0.1270 -0.5600 -0.5418
18243TIP3    H176220   1.387   3.064   0.726  0.8334  1.0384 -2.2719
18243TIP3    H276221   1.400   3.011   0.584  2.7054 -1.2414 -1.3279
18244TIP3   OH276222   5.184   2.377  12.422  0.2223  0.3081  0.4727
18244TIP3    H176223   5.233   2.397  12.501  0.6420  0.3517  0.2082
18244TIP3    H276224   5.117   2.446  12.417  1.9731  2.0504 -0.7044
18245TIP3   OH276225   3.164   3.773  16.377 -0.0329 -0.8334  0.4956
18245TIP3    H176226   3.077   3.796  16.346  0.2978 -0.0455  0.0982
18245TIP3    H276227   3.172   3.679  16.361  0.3693 -0.3741 -2.5299
18246TIP3   OH276228   3.443   5.934   1.261  0.2162 -0.2335 -0.1809
18246TIP3    H176229   3.491   5.867   1.310  0.2060  1.0805  1.7240
18246TIP3    H276230   3.458   6.015   1.309  0.0428  1.1246 -2.3034
18247TIP3   OH276231   4.928   2.664   6.334 -0.3426 -0.0322  0.5864
18247TIP3    H176232   4.880   2.619   6.264 -0.9580  2.0827 -0.4487
18247TIP3    H276233   4.883   2.637   6.414 -0.2745 -1.7187  0.0873
18248TIP3   OH276234   5.161   3.806   0.077 -0.2508 -0.1132 -0.1703
18248TIP3    H176235   5.126   3.752   0.005  1.9830 -1.4726 -0.3608
18248TIP3    H276236   5.201   3.742   0.137  4.1063  1.2198 -1.2682
18249TIP3   OH276237   6.551   1.103   4.332  0.3955  0.4777 -0.4347
18249TIP3    H176238   6.517   1.192   4.320 -0.7468  0.2734  1.0801
18249TIP3    H276239   6.612   1.110   4.405  0.9135  0.1531 -0.8274
18250TIP3   OH276240   6.702   2.567  11.632  0.4471  0.4146 -0.1280
18250TIP3    H176241   6.725   2.658  11.613 -1.9243  1.6793  2.4073
18250TIP3    H276242   6.653   2.538  11.555  0.1305  1.7173 -0.4354
18251TIP3   OH276243   6.817   2.031   5.410 -0.0567 -0.1238  0.1081
18251TIP3    H176244   6.723   2.023   5.394 -0.0455  0.1660 -0.1190
18251TIP3    H276245   6.858   2.014   5.325  0.0406  0.7326 -0.0319
18252TIP3   OH276246   5.228   4.822  13.915  0.8561  0.0695 -0.1596
18252TIP3    H176247   5.214   4.782  13.830  1.7841 -1.4116  0.3523
18252TIP3    H276248   5.322   4.837  13.920  0.6477  1.4750  0.0572
18253TIP3   OH276249   6.164   6.639  12.009 -0.2199  0.1998  0.5487
18253TIP3    H176250   6.243   6.687  12.033  0.2787 -0.5282  0.4116
18253TIP3    H276251   6.190   6.587  11.933 -0.8166 -0.0803  0.5309
18254TIP3   OH276252   0.192   4.226  13.138 -0.4045  0.4100 -0.0794
18254TIP3    H176253   0.259   4.259  13.197 -1.2537  1.2355  0.4423
18254TIP3    H276254   0.112   4.224  13.190 -0.5416 -1.8791 -0.2654
18255TIP3   OH276255   5.814   4.629   5.829 -0.3574  0.4529 -0.3201
18255TIP3    H176256   5.825   4.719   5.857 -0.3540  0.1160  0.8233
18255TIP3    H276257   5.729   4.628   5.783 -1.3422  0.6630  1.4119
18256TIP3   OH276258   1.550   6.326   5.937 -0.2710  0.0629 -0.1338
18256TIP3    H176259   1.564   6.325   5.843 -1.8542 -1.9078 -0.4249
18256TIP3    H276260   1.626   6.372   5.973  0.0623  1.4042 -2.3848
18257TIP3   OH276261   0.887   5.728   0.760  0.2026 -0.3352  0.0566
18257TIP3    H176262   0.900   5.665   0.689 -0.4354  0.1824 -0.5291
18257TIP3    H276263   0.792   5.740   0.764  0.3328  0.7969 -0.0251
18258TIP3   OH276264   3.651   6.360  15.399  0.2365  0.8635 -0.4286
18258TIP3    H176265   3.642   6.273  15.360 -0.7557  0.0841  1.3925
18258TIP3    H276266   3.592   6.416  15.347  1.6487  0.7373 -2.2561
18259TIP3   OH276267   5.331   0.906   1.913  0.7786 -0.3477  0.2863
18259TIP3    H176268   5.398   0.941   1.972  1.2373 -0.1641 -0.3313
18259TIP3    H276269   5.292   0.984   1.873  0.0820 -0.4454  0.7553
18260TIP3   OH276270   1.578   4.733   1.055 -0.4519 -0.3909 -0.7729
18260TIP3    H176271   1.536   4.649   1.075 -1.3789 -0.0351 -1.1999
18260TIP3    H276272   1.598   4.728   0.962 -2.8601  0.8441 -1.4292
18261TIP3   OH276273   6.049   3.647   4.113  0.0378  0.1914 -0.3502
18261TIP3    H176274   6.092   3.704   4.049  0.1545  0.6341  0.1137
18261TIP3    H276275   5.961   3.632   4.077  0.4413 -0.3921 -1.1052
18262TIP3   OH276276   4.299   0.135  12.610  0.4885  0.3280  0.1883
18262TIP3    H176277   4.240   0.060  12.624  1.0258 -0.2608 -0.6051
18262TIP3    H276278   4.243   0.203  12.575  0.2546 -0.2229 -0.5394
18263TIP3   OH276279   4.553   2.499   1.898  0.4545 -0.0006 -1.5436
18263TIP3    H176280   4.551   2.411   1.860  0.0325 -0.0934 -1.3212
18263TIP3    H276281   4.468   2.537   1.874 -0.2570 -0.4324  0.1386
18264TIP3   OH276282   4.412   5.964  11.201 -0.4172 -0.2563  0.2478
18264TIP3    H176283   4.345   6.021  11.161 -0.2444  1.1042  1.8003
18264TIP3    H276284   4.461   5.930  11.126 -0.7274  1.4046 -0.7663
18265TIP3   OH276285   0.107   0.989  10.818 -0.4467  0.1320  0.4467
18265TIP3    H176286   0.061   1.061  10.775  0.3957 -0.6993 -1.9674
18265TIP3    H276287   0.163   1.032  10.883 -0.8795  1.5349 -0.0783
18266TIP3   OH276288   4.781   2.656   3.797  0.2919  0.1869  0.6154
18266TIP3    H176289   4.783   2.577   3.851 -0.6993  0.7221  1.4749
18266TIP3    H276290   4.785   2.728   3.860 -0.7125  0.8270 -0.0223
18267TIP3   OH276291   1.902   4.091   2.091  0.1545 -0.1529  0.1127
18267TIP3    H176292   1.990   4.053   2.089  0.0198 -0.5453  0.9858
18267TIP3    H276293   1.917   4.186   2.088  0.6897 -0.1676  1.5046
18268TIP3   OH276294   0.072   0.084   2.957 -0.4445  0.2521 -0.9096
18268TIP3    H176295  -0.016   0.047   2.948 -0.8922  1.2542 -0.6726
18268TIP3    H276296   0.130   0.010   2.937 -1.2788 -1.0896  1.2797
18269TIP3   OH276297   5.932   6.363   0.214  0.2757 -0.3757 -0.1545
18269TIP3    H176298   6.022   6.339   0.189  0.3836  0.5647 -0.7079
18269TIP3    H276299   5.907   6.295   0.277  1.1822 -0.9537 -0.3793
18270TIP3   OH276300   1.448   3.585   2.472  0.6585 -0.1145 -0.1782
18270TIP3    H176301   1.415   3.674   2.463  2.7231  0.6654 -0.5199
18270TIP3    H276302   1.371   3.530   2.457 -0.1645  1.5325 -2.7368
18271TIP3   OH276303   3.167   4.128  12.537 -0.5120 -0.0689 -0.6421
18271TIP3    H176304   3.231   4.162  12.474  0.0552  1.2395  0.5930
18271TIP3    H276305   3.151   4.201  12.597 -1.0895 -1.2505  0.6965
18272TIP3   OH276306   0.124   3.022  15.025  0.1367 -0.1825  0.3020
18272TIP3    H176307   0.132   3.098  14.967 -0.8158 -1.3914 -1.5488
18272TIP3    H276308   0.209   2.979  15.021  0.1594 -0.1114 -0.0280
18273TIP3   OH276309   6.235   3.976   3.773 -0.0799 -0.9099 -0.5229
18273TIP3    H176310   6.178   4.039   3.731  0.1683 -0.9253 -0.8833
18273TIP3    H276311   6.303   3.956   3.708  0.0796 -1.2325 -0.2660
18274TIP3   OH276312   5.933   0.134  14.632  0.0686 -0.4940 -0.7351
18274TIP3    H176313   5.910   0.067  14.569 -1.5276  0.3528 -1.1212
18274TIP3    H276314   5.864   0.129  14.699  0.1522  0.4699 -0.5561
18275TIP3   OH276315   5.542   2.668  11.548  0.8839  0.3530  0.1602
18275TIP3    H176316   5.472   2.676  11.484  1.5645  1.8328 -0.4301
18275TIP3    H276317   5.526   2.583  11.591  0.2797 -0.5551 -1.7780
18276TIP3   OH276318   5.070   0.344   6.612  0.1649  0.9570 -0.5587
18276TIP3    H176319   5.141   0.356   6.675 -0.0660 -1.0200  0.1397
18276TIP3    H276320   4.993   0.328   6.666  0.1511 -1.7951 -1.2524
18277TIP3   OH276321   4.385   4.489   1.017 -0.7142  0.8916  0.3525
18277TIP3    H176322   4.295   4.473   1.048 -1.2179  0.8674 -1.0483
18277TIP3    H276323   4.376   4.500   0.922  0.8428  0.2995  0.1052
18278TIP3   OH276324   4.450   4.490  12.330  0.3989 -0.3539  0.2068
18278TIP3    H176325   4.410   4.416  12.374 -0.5989  0.1589  0.1883
18278TIP3    H276326   4.389   4.513  12.259  0.5246  0.6778  0.4083
18279TIP3   OH276327   6.156   3.585  12.513  0.3835 -0.4064  0.0339
18279TIP3    H176328   6.185   3.495  12.531  1.0662 -0.3551 -0.7470
18279TIP3    H276329   6.177   3.599  12.420 -1.2114  0.0055 -0.2954
18280TIP3   OH276330   3.358   3.927   4.581 -0.1149  0.8086  0.4823
18280TIP3    H176331   3.436   3.931   4.635  0.1609  0.1092  0.1485
18280TIP3    H276332   3.306   3.857   4.619 -1.9295  3.0365  2.4315
18281TIP3   OH276333   1.273   1.053   6.503  0.4849  0.1267  0.3790
18281TIP3    H176334   1.324   0.977   6.529  1.4717  0.2442 -1.1069
18281TIP3    H276335   1.184   1.032   6.530  0.7702 -1.4667  0.1902
18282TIP3   OH276336   5.303   4.240  17.105  0.3002 -0.1505  0.4053
18282TIP3    H176337   5.304   4.318  17.161  1.5284 -0.8047  1.3511
18282TIP3    H276338   5.221   4.196  17.125 -0.4938  0.9603 -0.2668
18283TIP3   OH276339   1.896   0.143   1.884 -0.0023 -0.0180 -0.1389
18283TIP3    H176340   1.876   0.236   1.881  2.3093  0.5391 -2.5541
18283TIP3    H276341   1.864   0.109   1.800 -1.6780 -1.6767  1.0951
18284TIP3   OH276342   4.257   2.307  12.370 -0.6266 -0.4181 -0.1284
18284TIP3    H176343   4.197   2.263  12.309  0.6667 -0.7752 -1.1954
18284TIP3    H276344   4.207   2.316  12.451 -2.4178  0.0669 -1.2279
18285TIP3   OH276345   5.426   3.955  16.795  0.0509  0.2567 -0.4069
18285TIP3    H176346   5.374   3.956  16.875  2.0991  1.5073  1.0444
18285TIP3    H276347   5.402   3.874  16.751 -1.0128 -0.5839  1.5814
18286TIP3   OH276348   4.895   1.730  10.474 -0.1365 -0.5837 -0.4926
18286TIP3    H176349   4.876   1.817  10.440 -0.5090  0.6197  2.5424
18286TIP3    H276350   4.815   1.702  10.518  0.8125 -1.2630  0.8881
18287TIP3   OH276351   6.230   3.673   4.307  0.2872 -0.2211 -0.1633
18287TIP3    H176352   6.287   3.597   4.308 -0.7591 -1.0234  0.3741
18287TIP3    H276353   6.156   3.646   4.252 -0.3433  0.2109  0.4620
18288TIP3   OH276354   4.075   1.293  11.749 -0.0742 -0.6653 -0.1640
18288TIP3    H176355   3.988   1.271  11.716 -0.4026 -0.2880  0.4239
18288TIP3    H276356   4.071   1.273  11.843  0.2404  0.0271  0.0035
18289TIP3   OH276357   2.352   3.279   3.622  0.1430 -0.8497  0.1559
18289TIP3    H176358   2.336   3.283   3.716  1.8633  0.8407  0.4350
18289TIP3    H276359   2.437   3.321   3.610 -0.5325  0.0259 -2.2645
18290TIP3   OH276360   4.093   1.325  13.044  0.0661  0.3471 -0.9045
18290TIP3    H176361   4.117   1.233  13.027 -0.8014  0.4332 -2.9494
18290TIP3    H276362   4.103   1.335  13.138  1.4933 -1.4710 -0.7812
18291TIP3   OH276363   2.124   4.314  13.365 -0.5461  0.5603  0.6072
18291TIP3    H176364   2.030   4.328  13.353 -0.6219  1.2155  1.8536
18291TIP3    H276365   2.153   4.389  13.416  1.0230  1.3296 -1.2867
18292TIP3   OH276366   1.392   4.427   4.280 -0.0846  0.2201 -0.5311
18292TIP3    H176367   1.453   4.468   4.342  0.1929  1.0426 -1.3253
18292TIP3    H276368   1.449   4.392   4.211 -0.4482  0.1266 -0.7837
18293TIP3   OH276369   2.732   3.662   5.274 -0.0714  0.2289  0.2037
18293TIP3    H176370   2.806   3.701   5.228 -1.4083  0.8520 -1.5670
18293TIP3    H276371   2.770   3.623   5.353  2.2367 -0.1266 -0.9842
18294TIP3   OH276372   2.143   0.581   3.802  0.5686  0.1642  0.2003
18294TIP3    H176373   2.186   0.513   3.751  1.0283 -1.0635  2.0888
18294TIP3    H276374   2.188   0.578   3.887 -0.6922  1.5323  0.9640
18295TIP3   OH276375   3.776   5.250  11.658 -0.1717  1.0251 -0.5100
18295TIP3    H176376   3.698   5.214  11.616  1.0888 -1.5350 -0.8619
18295TIP3    H276377   3.753   5.257  11.750 -0.2860 -1.4952 -0.2933
18296TIP3   OH276378   0.732   4.730  10.563  0.4824  0.5144  0.6333
18296TIP3    H176379   0.771   4.645  10.585  1.4588  0.5564 -0.8026
18296TIP3    H276380   0.717   4.772  10.648  0.0341 -1.0580  1.3674
18297TIP3   OH276381   3.302   6.186  11.478  0.2489  0.4012  0.8843
18297TIP3    H176382   3.232   6.207  11.416 -0.4215 -0.0326  1.4614
18297TIP3    H276383   3.383   6.195  11.428 -0.1143  2.2877  0.5615
18298TIP3   OH276384   0.359   1.968  11.842 -0.0360 -0.0611  0.1742
18298TIP3    H176385   0.329   2.048  11.800  0.1072 -0.3574 -0.5178
18298TIP3    H276386   0.279   1.917  11.855 -0.3680  0.8675  2.1701
18299TIP3   OH276387   5.471   4.831   6.274  0.2565 -0.0211  0.3453
18299TIP3    H176388   5.449   4.744   6.308 -0.5629  0.3399  0.7582
18299TIP3    H276389   5.535   4.866   6.336  0.0364 -0.0464  0.5909
18300TIP3   OH276390   5.671   3.911  11.946  0.3281 -0.6220  0.5227
18300TIP3    H176391   5.663   3.852  11.870 -0.1298 -2.0653  1.6409
18300TIP3    H276392   5.759   3.948  11.938 -0.1033  0.1110 -1.2864
18301TIP3   OH276393   2.796   0.066   6.276  0.0373 -0.6149  0.0065
18301TIP3    H176394   2.781   0.151   6.234  0.0442  0.3025  1.7715
18301TIP3    H276395   2.709   0.033   6.298  0.0921 -0.4506  0.4770
18302TIP3   OH276396   5.868   5.512   3.585 -0.1432 -0.4197 -0.1259
18302TIP3    H176397   5.891   5.526   3.677  0.2226 -2.1362  0.0853
18302TIP3    H276398   5.951   5.497   3.541 -0.4235 -1.1524 -0.4272
18303TIP3   OH276399   5.525   2.048   4.681 -0.0719 -0.1639  0.1586
18303TIP3    H176400   5.432   2.042   4.659 -0.4938 -0.3508  1.8809
18303TIP3    H276401   5.544   1.967   4.727  1.7105 -1.4564 -2.6190
18304TIP3   OH276402   6.607   1.713   4.515 -0.1695  0.3654  0.0000
18304TIP3    H176403   6.623   1.677   4.428 -0.0833 -0.3308  0.3001
18304TIP3    H276404   6.519   1.684   4.538 -0.6126  1.4368 -0.2833
18305TIP3   OH276405   5.146   0.491   5.118 -0.2336 -0.1847 -0.2568
18305TIP3    H176406   5.241   0.491   5.125 -0.3118  1.5561  3.4252
18305TIP3    H276407   5.117   0.428   5.184 -1.6645 -1.1997 -1.7875
18306TIP3   OH276408   4.120   2.046   2.686  0.2368 -1.1274  0.2123
18306TIP3    H176409   4.093   2.048   2.594  0.3929  0.6188  0.1796
18306TIP3    H276410   4.065   2.111   2.728  2.0917  0.1268  0.8036
18307TIP3   OH276411   5.766   6.455   2.151  0.7771  0.1812  0.5481
18307TIP3    H176412   5.675   6.424   2.156  0.3290  1.4598  0.8064
18307TIP3    H276413   5.781   6.472   2.058  0.0868  1.7492  0.6844
18308TIP3   OH276414   1.342   0.269  16.798  0.0037  0.3863 -0.0930
18308TIP3    H176415   1.428   0.233  16.819 -0.0399  0.3490  0.0185
18308TIP3    H276416   1.307   0.209  16.732  0.1822  0.5612 -0.3466
18309TIP3   OH276417   2.101   5.222  14.278  0.5586 -0.1022 -0.3045
18309TIP3    H176418   2.005   5.229  14.271  0.4635  0.0763  0.8727
18309TIP3    H276419   2.120   5.130  14.258  0.1916 -0.0473 -0.9423
18310TIP3   OH276420   6.008   2.069  16.752  0.7394  0.2651 -0.5559
18310TIP3    H176421   5.941   2.059  16.820  1.4772  2.3010  0.5738
18310TIP3    H276422   6.081   2.016  16.783  1.1991  1.4485  0.4949
18311TIP3   OH276423   5.713   0.661   5.031 -0.1695  0.4383 -0.1999
18311TIP3    H176424   5.714   0.641   4.937  0.4293 -1.1736  0.1074
18311TIP3    H276425   5.621   0.652   5.057 -0.0378 -1.4021 -0.2330
18312TIP3   OH276426   6.490   5.588   0.585 -0.5018 -0.0967  0.0959
18312TIP3    H176427   6.431   5.553   0.518  1.4831 -0.7328 -1.4262
18312TIP3    H276428   6.531   5.510   0.623 -0.3346  0.3511  0.8453
18313TIP3   OH276429   3.616   0.863   4.253 -0.0028  0.0366  0.5498
18313TIP3    H176430   3.543   0.830   4.305 -1.7114  1.5005 -0.8022
18313TIP3    H276431   3.629   0.797   4.185  0.1839 -0.3948  0.9996
18314TIP3   OH276432   6.127   2.239  15.773  0.2711 -0.0696  0.0853
18314TIP3    H176433   6.152   2.317  15.822 -0.2829  0.4043 -0.3623
18314TIP3    H276434   6.064   2.194  15.829 -2.2265  1.7048 -1.0758
18315TIP3   OH276435   0.655   1.586   1.025  0.1689  0.3160 -0.5125
18315TIP3    H176436   0.596   1.599   1.099 -0.6890  1.2600 -1.3180
18315TIP3    H276437   0.697   1.501   1.041 -3.7721 -2.0397 -1.4702
18316TIP3   OH276438   4.527   0.692   2.886 -0.0461 -0.2625 -0.5443
18316TIP3    H176439   4.525   0.783   2.916 -0.4414 -0.1791 -0.8084
18316TIP3    H276440   4.515   0.698   2.791 -0.0390 -0.5862 -0.5673
18317TIP3   OH276441   4.299   3.503   0.014  0.3545  0.3123 -0.4027
18317TIP3    H176442   4.267   3.413   0.010 -0.3090  0.4559  0.9844
18317TIP3    H276443   4.220   3.556   0.016  0.6709  0.7802  1.1977
18318TIP3   OH276444   2.921   5.399   4.638 -0.2237  0.2431 -0.1128
18318TIP3    H176445   2.913   5.489   4.670 -0.4597  0.1220  0.1710
18318TIP3    H276446   3.015   5.384   4.632 -0.1555  0.0111  1.2492
18319TIP3   OH276447   4.873   1.967  11.934 -0.2786 -0.0658 -0.2592
18319TIP3    H176448   4.886   2.029  12.005 -0.1691  0.6132 -0.8572
18319TIP3    H276449   4.779   1.971  11.915 -0.0080  1.3692 -1.5518
18320TIP3   OH276450   1.552   3.576   0.967  0.5293 -0.3518 -0.3934
18320TIP3    H176451   1.593   3.662   0.957  0.4644 -0.3388 -0.5669
18320TIP3    H276452   1.527   3.552   0.878  0.0281 -0.2902 -0.2722
18321TIP3   OH276453   3.599   6.375  13.252  0.4073  0.3016 -0.3319
18321TIP3    H176454   3.533   6.443  13.239 -1.1502 -0.8554  1.0826
18321TIP3    H276455   3.641   6.398  13.335  0.0134 -0.3255  0.0490
18322TIP3   OH276456   6.096   5.420   4.404 -0.2242  0.2252  0.1836
18322TIP3    H176457   6.128   5.505   4.372 -0.9923  0.4447 -0.0305
18322TIP3    H276458   6.170   5.383   4.451 -0.2198  1.5572  1.3215
18323TIP3   OH276459   6.217   0.800  14.797  0.1726  0.1836  0.1105
18323TIP3    H176460   6.257   0.742  14.862  0.5612  0.6469  0.2857
18323TIP3    H276461   6.182   0.740  14.731  0.8393 -0.2390  0.1297
18324TIP3   OH276462   6.255   0.945  12.387 -0.0169 -0.2065 -0.0542
18324TIP3    H176463   6.171   0.967  12.347 -0.1663 -0.0498  0.3406
18324TIP3    H276464   6.244   0.854  12.417 -0.0452 -0.1849 -0.0002
18325TIP3   OH276465   3.588   1.099   4.111 -0.3640  0.1537 -0.5761
18325TIP3    H176466   3.593   1.019   4.164 -0.2024  1.2170  1.0896
18325TIP3    H276467   3.505   1.139   4.136  0.3630  1.3797 -0.0370
18326TIP3   OH276468   4.594   6.625   2.259 -0.3028  0.0030 -0.2075
18326TIP3    H176469   4.506   6.612   2.295 -0.7099 -0.1395 -1.2139
18326TIP3    H276470   4.645   6.552   2.294 -0.2458  0.7671  1.3801
18327TIP3   OH276471   2.085   3.999  14.428 -0.1801 -0.2806  0.0757
18327TIP3    H176472   2.179   4.009  14.412 -0.0647  1.0450  1.3893
18327TIP3    H276473   2.061   3.921  14.377  1.7847 -1.1511  0.3618
18328TIP3   OH276474   4.839   5.845  13.187 -0.1210  0.5046  0.1647
18328TIP3    H176475   4.788   5.925  13.177 -1.2655 -0.2600 -0.4639
18328TIP3    H276476   4.841   5.829  13.282 -0.7135  0.7647  0.2239
18329TIP3   OH276477   5.569   6.231   4.741 -0.3078  0.1543 -0.0618
18329TIP3    H176478   5.663   6.235   4.723 -0.2728 -1.0979 -0.2103
18329TIP3    H276479   5.538   6.155   4.692 -0.8300 -1.3661  2.4609
18330TIP3   OH276480   0.190   6.763  15.102 -0.1143 -0.0760  0.3175
18330TIP3    H176481   0.246   6.825  15.149  1.3146 -1.2592  0.2560
18330TIP3    H276482   0.102   6.800  15.107  0.8417  2.5189 -0.6844
18331TIP3   OH276483   1.503   4.561   2.020  0.2428 -0.4413  0.2896
18331TIP3    H176484   1.544   4.487   2.064 -3.0601 -1.7473  1.5019
18331TIP3    H276485   1.496   4.629   2.088  0.3691 -0.2454  0.1077
18332TIP3   OH276486   0.904   3.566  11.282  0.5167 -0.0771  0.0624
18332TIP3    H176487   0.869   3.544  11.368  2.1555  2.1391  1.4229
18332TIP3    H276488   0.996   3.538  11.286  0.6337  0.1219 -0.9484
18333TIP3   OH276489   3.025   0.231   1.482 -0.7527  0.2246 -0.8654
18333TIP3    H176490   3.094   0.297   1.478 -0.2352 -0.1186  1.1310
18333TIP3    H276491   2.949   0.279   1.516 -0.5328 -0.0536  0.0568
18334TIP3   OH276492   5.839   2.550  13.619 -0.0433 -0.0599 -0.1209
18334TIP3    H176493   5.779   2.625  13.618 -1.4401 -1.1089 -2.9947
18334TIP3    H276494   5.782   2.474  13.632  0.9075 -0.9103 -0.8165
18335TIP3   OH276495   6.620   6.838   1.878 -0.2640  0.6002 -0.0695
18335TIP3    H176496   6.567   6.769   1.917  0.3515  0.7183  1.0117
18335TIP3    H276497   6.559   6.886   1.822 -1.2956  0.6900  1.0892
18336TIP3   OH276498   1.268   1.371   4.593 -0.1062 -0.0278 -0.4269
18336TIP3    H176499   1.352   1.385   4.636 -0.6199  1.8030  0.1157
18336TIP3    H276500   1.207   1.356   4.665 -0.1374 -2.2177 -0.8616
18337TIP3   OH276501   0.208   1.566  15.535 -0.7276  0.0471  0.1955
18337TIP3    H176502   0.261   1.578  15.614 -0.8323 -1.0649  0.4419
18337TIP3    H276503   0.185   1.473  15.534 -0.4460 -0.0348 -1.3346
18338TIP3   OH276504   1.556   3.792  11.025 -0.2562 -0.2563 -0.5410
18338TIP3    H176505   1.506   3.826  11.099 -0.5416  1.4875 -1.4852
18338TIP3    H276506   1.575   3.869  10.971  0.8063 -1.3304 -1.7785
18339TIP3   OH276507   0.009   2.758  12.770  0.1643 -0.1338 -0.1675
18339TIP3    H176508   0.023   2.826  12.705 -2.0085  0.0681 -0.5055
18339TIP3    H276509   0.008   2.804  12.854  0.3905  0.0026 -0.2421
18340TIP3   OH276510   1.121   1.250   4.409 -0.4366  0.1489  0.2014
18340TIP3    H176511   1.033   1.288   4.418 -1.0503 -1.1732  0.1422
18340TIP3    H276512   1.169   1.282   4.485 -0.6560  1.6609 -0.2653
18341TIP3   OH276513   3.514   1.159  16.055  0.5999 -0.0496  0.0003
18341TIP3    H176514   3.539   1.249  16.078  1.2198  0.1271 -1.2827
18341TIP3    H276515   3.559   1.104  16.120  0.2566  0.5491  0.7630
18342TIP3   OH276516   0.828   3.712  10.862  0.1360  0.6444  0.1619
18342TIP3    H176517   0.853   3.792  10.815  0.2653  1.7482  2.0077
18342TIP3    H276518   0.761   3.672  10.806 -1.1407  2.8964 -0.0785
18343TIP3   OH276519   1.373   2.800   3.573 -0.1323  0.8065  0.1183
18343TIP3    H176520   1.280   2.798   3.597 -0.0108  2.9300  0.9745
18343TIP3    H276521   1.419   2.783   3.655  0.2839 -2.1441 -0.6501
18344TIP3   OH276522   3.287   4.072   5.050 -0.0366 -0.3047  0.2304
18344TIP3    H176523   3.346   4.090   4.976  1.9094 -1.7340  1.3378
18344TIP3    H276524   3.265   3.980   5.041 -1.6227  0.0582  0.2207
18345TIP3   OH276525   3.719   6.280   1.150  0.3343  0.2865 -0.0373
18345TIP3    H176526   3.771   6.200   1.140  0.3178  0.1914  0.6071
18345TIP3    H276527   3.775   6.350   1.115  0.6536  0.0988  0.0948
18346TIP3   OH276528   3.963   5.497   4.151  0.1461  0.0790 -0.2469
18346TIP3    H176529   3.945   5.408   4.118  1.2639  0.5100 -2.1978
18346TIP3    H276530   3.877   5.532   4.174 -0.5467 -0.8386 -1.3177
18347TIP3   OH276531   6.100   6.050   5.673 -0.2343  0.5826 -0.0792
18347TIP3    H176532   6.123   6.117   5.608  2.2060  0.3998  0.5133
18347TIP3    H276533   6.041   6.095   5.733 -0.8053  1.3832 -1.1909
18348TIP3   OH276534   1.048   2.719   3.818  0.5429  0.1401 -0.2008
18348TIP3    H176535   1.063   2.672   3.736  3.2682 -0.5016  0.5338
18348TIP3    H276536   0.990   2.662   3.868 -1.0103  0.4578 -1.5570
18349TIP3   OH276537   0.667   4.998   3.376  0.2793  0.3449  0.0723
18349TIP3    H176538   0.641   5.086   3.402  0.9575  0.3757  0.6878
18349TIP3    H276539   0.763   5.000   3.378  0.3337 -0.0460 -1.1356
18350TIP3   OH276540   2.389   1.769  10.309 -0.2850 -0.6244 -0.1494
18350TIP3    H176541   2.357   1.759  10.399  0.4515 -1.0412  0.0787
18350TIP3    H276542   2.329   1.716  10.256 -1.4475  0.5873 -0.0785
18351TIP3   OH276543   2.201   0.729   0.729 -0.3886 -0.0011 -1.1185
18351TIP3    H176544   2.192   0.634   0.722  0.2014 -0.3350  1.5074
18351TIP3    H276545   2.289   0.741   0.766 -0.8853  1.4935 -0.3675
18352TIP3   OH276546   1.702   0.685  14.033  0.1080  0.1935 -0.1531
18352TIP3    H176547   1.672   0.641  13.953  0.1342  1.0688 -0.6513
18352TIP3    H276548   1.626   0.683  14.091 -1.6927  4.0151 -2.0591
18353TIP3   OH276549   5.832   5.812  16.897 -0.3296  0.2381 -0.2343
18353TIP3    H176550   5.778   5.862  16.958 -2.4021 -0.8613 -1.0812
18353TIP3    H276551   5.870   5.878  16.840 -2.7629  0.9568 -1.1457
18354TIP3   OH276552   3.045   6.647  13.754  0.2395  0.1067 -0.6279
18354TIP3    H176553   3.136   6.637  13.783  0.2313 -0.6603 -0.8216
18354TIP3    H276554   3.049   6.713  13.685  0.5341  0.6164 -0.1323
18355TIP3   OH276555   1.304   5.807  13.689  1.4417  0.4262 -0.0476
18355TIP3    H176556   1.325   5.754  13.766  2.6887  0.3779 -0.3930
18355TIP3    H276557   1.375   5.788  13.627  1.2644  1.5900 -0.6341
18356TIP3   OH276558   4.550   3.555  16.383  0.2736 -0.2414  0.5949
18356TIP3    H176559   4.560   3.478  16.327  0.3209  0.2665 -0.1048
18356TIP3    H276560   4.459   3.552  16.411  0.2064 -0.4118  0.3678
18357TIP3   OH276561   0.195   1.744  16.795  0.2192 -0.4389  0.3721
18357TIP3    H176562   0.121   1.799  16.770 -1.4692 -1.2882  3.1412
18357TIP3    H276563   0.220   1.700  16.713 -2.0600  0.1663 -0.7461
18358TIP3   OH276564   1.787   3.290   1.369 -0.0951  0.3574 -0.0710
18358TIP3    H176565   1.721   3.232   1.332  0.2631 -0.0317 -0.0999
18358TIP3    H276566   1.744   3.376   1.372 -0.7752  0.0062  0.3803
18359TIP3   OH276567   2.448   2.990  13.364  0.2223  0.5135 -0.3574
18359TIP3    H176568   2.357   3.018  13.365  0.2253  0.7442  2.3517
18359TIP3    H276569   2.477   3.002  13.455  2.3468 -1.5183 -0.6778
18360TIP3   OH276570   4.769   0.768   0.493 -0.1024 -0.1567 -0.1403
18360TIP3    H176571   4.708   0.772   0.419 -0.6428 -0.8394  0.2598
18360TIP3    H276572   4.723   0.717   0.560  0.9909 -0.8621  0.1016
18361TIP3   OH276573   2.419   2.842  11.507  0.2075 -0.3031 -0.0559
18361TIP3    H176574   2.426   2.772  11.442 -0.1170 -1.4254  1.0976
18361TIP3    H276575   2.491   2.827  11.567 -0.9036 -0.7324  1.2119
18362TIP3   OH276576   6.149   3.346   4.020  0.0825  0.8929 -0.1299
18362TIP3    H176577   6.223   3.407   4.016  0.3893  0.5214 -0.1967
18362TIP3    H276578   6.186   3.266   4.056 -0.0450  0.3588 -1.1586
18363TIP3   OH276579   1.480   5.493   0.967  0.1208  0.0936  0.2870
18363TIP3    H176580   1.573   5.477   0.987 -0.0441  1.4166  2.3368
18363TIP3    H276581   1.444   5.531   1.047 -2.5724 -1.6884  0.0423
18364TIP3   OH276582   2.127   3.351   1.354 -0.4242 -0.2698  0.6303
18364TIP3    H176583   2.137   3.430   1.301 -3.5054  1.5427  2.3929
18364TIP3    H276584   2.097   3.284   1.293 -0.0015  0.5962 -0.5545
18365TIP3   OH276585   1.702   0.497   3.322  0.1061  0.2529 -0.0168
18365TIP3    H176586   1.635   0.429   3.334  0.9267 -0.6662 -0.4614
18365TIP3    H276587   1.652   0.578   3.311 -1.0536 -0.6516 -2.1554
18366TIP3   OH276588   4.217   3.774  15.877 -0.1878 -0.5656  0.3316
18366TIP3    H176589   4.125   3.770  15.849  0.3729 -1.3197 -1.6302
18366TIP3    H276590   4.264   3.724  15.810  1.7717  0.5239  0.8136
18367TIP3   OH276591   3.003   5.083  16.511 -0.9185 -0.3070 -0.1767
18367TIP3    H176592   2.996   5.022  16.585 -0.7168 -0.0414  0.0587
18367TIP3    H276593   3.045   5.161  16.547  0.6171 -0.7549 -0.9189
18368TIP3   OH276594   5.276   2.522  14.388 -0.6170 -0.0419  0.4531
18368TIP3    H176595   5.188   2.559  14.400 -1.8284 -1.3114 -3.1338
18368TIP3    H276596   5.272   2.437  14.431 -1.9467 -0.9931 -1.4368
18369TIP3   OH276597   3.127   3.827  10.911  0.6467  0.0895 -0.0820
18369TIP3    H176598   3.139   3.907  10.964 -0.0521 -0.1200  0.4130
18369TIP3    H276599   3.076   3.769  10.968  0.9494 -0.6209 -0.5304
18370TIP3   OH276600   6.828   0.325   1.342  0.6626  0.1130 -0.4358
18370TIP3    H176601   6.897   0.388   1.361  0.3434  0.5710 -0.7522
18370TIP3    H276602   6.826   0.266   1.418 -0.3525  1.6741  0.8236
18371TIP3   OH276603   2.271   2.065   5.362  0.0020  0.3441 -0.4910
18371TIP3    H176604   2.231   1.994   5.311 -0.7635 -0.1855  0.8150
18371TIP3    H276605   2.226   2.144   5.331 -1.7750 -0.1765  0.5782
18372TIP3   OH276606   2.611   0.770  16.020  0.1687  0.7814  0.4070
18372TIP3    H176607   2.703   0.770  16.044  0.5512  0.0705 -0.9234
18372TIP3    H276608   2.580   0.682  16.042 -0.0697  0.8739  0.4428
18373TIP3   OH276609   6.093   2.488   1.363 -0.2012 -0.3474  0.0247
18373TIP3    H176610   6.147   2.460   1.436 -0.1645 -2.7868 -0.8324
18373TIP3    H276611   6.137   2.566   1.328  1.3384 -0.8048  0.8708
18374TIP3   OH276612   1.635   4.155   4.569 -0.0461 -0.5404 -0.1839
18374TIP3    H176613   1.615   4.107   4.489  2.2038 -0.2865 -0.9712
18374TIP3    H276614   1.585   4.236   4.562  0.8460 -0.0855 -1.8474
18375TIP3   OH276615   0.960   2.461   1.459 -0.7243  0.7794 -0.2546
18375TIP3    H176616   0.892   2.486   1.398 -0.4948 -0.9339 -1.2907
18375TIP3    H276617   1.021   2.535   1.461 -0.7609  0.8821 -2.0964
18376TIP3   OH276618   3.936   3.051   6.010 -0.1559  0.0008 -0.5252
18376TIP3    H176619   3.878   3.064   6.085  0.6367  0.7454 -0.0255
18376TIP3    H276620   3.978   2.966   6.026  1.6802  1.1194  1.0701
18377TIP3   OH276621   1.204   2.176   2.030 -0.7283 -0.1994  0.2523
18377TIP3    H176622   1.207   2.211   2.119  1.6730 -2.1195  1.0612
18377TIP3    H276623   1.236   2.247   1.975  1.9833 -0.2915  1.5555
18378TIP3   OH276624   1.383   0.001  16.073  0.7815 -0.8723  0.8038
18378TIP3    H176625   1.461  -0.033  16.030  0.6966 -0.4157  0.2755
18378TIP3    H276626   1.311  -0.025  16.015  0.8535  1.5612 -0.4903
18379TIP3   OH276627   4.848   4.324   2.798  0.1018  0.2646 -0.1235
18379TIP3    H176628   4.834   4.380   2.722  1.8628  1.0782  0.1070
18379TIP3    H276629   4.772   4.340   2.854 -1.1836 -0.2916 -1.6363
18380TIP3   OH276630   0.059   4.733  13.833 -0.4761  0.0079  0.8818
18380TIP3    H176631   0.112   4.806  13.866 -0.6086  2.1530 -3.0754
18380TIP3    H276632  -0.031   4.765  13.838 -0.5724 -0.0170 -0.5151
18381TIP3   OH276633   2.460   4.486   1.509  0.2130 -0.0974  0.0028
18381TIP3    H176634   2.523   4.472   1.579  2.0034  1.0639 -1.3025
18381TIP3    H276635   2.513   4.498   1.430 -1.6249  0.9376 -1.1510
18382TIP3   OH276636   4.074   2.328  14.427 -0.4660 -0.2777  0.1827
18382TIP3    H176637   4.059   2.407  14.374  1.8977  1.0560  1.3002
18382TIP3    H276638   4.157   2.293  14.395 -0.0545 -0.6525  1.5705
18383TIP3   OH276639   6.631   4.749  16.293 -0.1553 -0.3744  0.3479
18383TIP3    H176640   6.556   4.690  16.299 -0.0512 -0.3807  2.0946
18383TIP3    H276641   6.623   4.806  16.369  1.8267 -0.6491  0.8364
18384TIP3   OH276642   4.322   3.294  12.747 -0.3215 -0.5898  0.2928
18384TIP3    H176643   4.239   3.296  12.699 -0.0783 -0.3442 -0.1217
18384TIP3    H276644   4.328   3.382  12.786 -0.1310 -0.5203  0.1073
18385TIP3   OH276645   0.042   1.996   4.747  0.0046 -0.2881 -0.1104
18385TIP3    H176646  -0.033   1.983   4.690  0.7578 -0.9757 -0.9871
18385TIP3    H276647   0.050   1.915   4.797 -0.1852  0.0129  0.4208
18386TIP3   OH276648   4.821   4.518  14.688  0.4726 -0.0048  0.0372
18386TIP3    H176649   4.821   4.538  14.594 -0.2621  0.0633  0.0417
18386TIP3    H276650   4.789   4.599  14.729  2.7467  0.6925  0.5356
18387TIP3   OH276651   1.951   6.561  15.964 -0.2547 -0.0598 -0.3644
18387TIP3    H176652   1.920   6.567  16.055 -1.0509 -3.9111 -0.2192
18387TIP3    H276653   1.872   6.577  15.912 -0.6979 -1.6075 -0.2151
18388TIP3   OH276654   2.644   3.401  16.800 -0.0133  0.5824  0.0118
18388TIP3    H176655   2.579   3.338  16.832  0.3824  1.7497  3.5055
18388TIP3    H276656   2.594   3.482  16.786 -0.0819  0.2377 -2.1245
18389TIP3   OH276657   6.800   2.850   5.512 -0.0212 -0.3627  0.4944
18389TIP3    H176658   6.791   2.944   5.527  1.3188 -0.0357 -0.5081
18389TIP3    H276659   6.718   2.823   5.472  0.4878  0.9144 -1.5371
18390TIP3   OH276660   5.487   2.981  15.747 -0.0738 -0.0931 -0.9419
18390TIP3    H176661   5.430   2.910  15.717 -2.1910  0.6463  0.9794
18390TIP3    H276662   5.550   2.938  15.806 -2.0958 -0.3586  1.1868
18391TIP3   OH276663   0.175   2.374  10.436  0.1951  0.6291  0.6963
18391TIP3    H176664   0.096   2.425  10.420 -0.3395 -0.1062  0.9170
18391TIP3    H276665   0.198   2.336  10.351 -0.3425 -0.0574  0.8491
18392TIP3   OH276666   5.630   2.357   5.295  0.0084  0.4975  0.0321
18392TIP3    H176667   5.582   2.280   5.327  0.0002  0.6492  0.3967
18392TIP3    H276668   5.567   2.429   5.304  0.1138  0.5963 -0.0311
18393TIP3   OH276669   5.517   0.981   5.418  0.3945  0.0566  0.2559
18393TIP3    H176670   5.530   0.906   5.476  3.9392  1.1787  1.1720
18393TIP3    H276671   5.457   1.038   5.466 -0.6967 -1.2050  0.4688
18394TIP3   OH276672   4.256   3.357   5.074  0.8311 -0.2320  0.1960
18394TIP3    H176673   4.228   3.428   5.016 -0.1590 -0.4701  0.3637
18394TIP3    H276674   4.208   3.372   5.155  0.9811 -0.8167  0.3961
18395TIP3   OH276675   1.014   3.890  14.727  0.1101  0.5502 -0.1847
18395TIP3    H176676   1.073   3.823  14.762  0.0654  1.0446  0.8846
18395TIP3    H276677   0.933   3.881  14.778 -0.1133  1.0202 -0.4392
18396TIP3   OH276678   2.400   2.261   2.112 -1.2513  0.5109  0.3751
18396TIP3    H176679   2.452   2.253   2.192 -0.9784  1.8936  0.3598
18396TIP3    H276680   2.346   2.339   2.125 -1.0336  0.9055 -0.8708
18397TIP3   OH276681   3.526   0.586   1.440  0.1149 -0.0159  0.1366
18397TIP3    H176682   3.556   0.514   1.495  0.8665 -0.3648 -0.7150
18397TIP3    H276683   3.581   0.660   1.465 -0.4147  0.1778  0.7563
18398TIP3   OH276684   6.269   5.222   2.881  1.0175  0.8446  0.4807
18398TIP3    H176685   6.307   5.212   2.794 -1.3915 -0.4604 -0.5142
18398TIP3    H276686   6.313   5.155   2.934 -0.6438 -1.6237 -0.9978
18399TIP3   OH276687   3.886   2.274  11.178 -0.3519  0.0695  0.1114
18399TIP3    H176688   3.867   2.193  11.225  2.3467 -1.3514 -1.0430
18399TIP3    H276689   3.877   2.251  11.086 -2.7038  2.0404 -0.2607
18400TIP3   OH276690   2.051   5.762  16.938 -0.1136 -0.2448  0.7026
18400TIP3    H176691   1.975   5.782  16.883 -0.5584  0.7344  1.6390
18400TIP3    H276692   2.096   5.845  16.948  0.7378 -0.6951  0.6923
18401TIP3   OH276693   2.370   4.600  14.786  0.2582 -0.4550 -0.9666
18401TIP3    H176694   2.289   4.646  14.764  0.3116  1.1231  1.6874
18401TIP3    H276695   2.440   4.662  14.762  0.3106  1.4391  3.2667
18402TIP3   OH276696   0.051   6.752   1.136  0.3311 -0.1815  0.1645
18402TIP3    H176697   0.049   6.701   1.055  0.6879  0.1529 -0.0589
18402TIP3    H276698   0.010   6.695   1.201 -1.0344 -0.0010 -0.5066
18403TIP3   OH276699   6.498   0.373  11.169  0.1965 -0.0446 -0.1036
18403TIP3    H176700   6.551   0.294  11.168 -0.3224 -0.3997 -1.1588
18403TIP3    H276701   6.408   0.342  11.163 -0.0388  0.6025  0.0022
18404TIP3   OH276702   0.774   4.812   5.630  0.7270 -0.0717 -0.5131
18404TIP3    H176703   0.786   4.905   5.652  1.0333 -0.0577 -0.7358
18404TIP3    H276704   0.789   4.765   5.712  0.8013  0.0584 -0.4517
18405TIP3   OH276705   4.176   5.755  16.908 -0.0560 -1.0668  0.3019
18405TIP3    H176706   4.198   5.730  16.997  1.4010 -1.7116 -0.2186
18405TIP3    H276707   4.254   5.798  16.874 -0.5200 -0.9889 -0.7291
18406TIP3   OH276708   3.244   4.863   2.572 -0.4470  0.1243  0.0679
18406TIP3    H176709   3.293   4.788   2.606 -0.3841 -0.3687 -1.0490
18406TIP3    H276710   3.227   4.840   2.480  0.5416  1.9367 -0.6323
18407TIP3   OH276711   2.035   4.633   5.645 -0.3246 -0.0879  0.0495
18407TIP3    H176712   2.024   4.727   5.629 -0.2509 -0.1311 -0.2633
18407TIP3    H276713   2.062   4.627   5.737  2.2313  0.3997 -0.5977
18408TIP3   OH276714   5.737   0.311  12.683  0.1088 -0.0995 -0.2716
18408TIP3    H176715   5.693   0.228  12.666 -0.2429  0.3561 -1.7487
18408TIP3    H276716   5.751   0.349  12.596  3.2764 -0.1130  0.0926
18409TIP3   OH276717   5.941   0.853  16.293  0.1221  0.2584 -0.2180
18409TIP3    H176718   6.027   0.894  16.288  0.1206  0.3921  0.6110
18409TIP3    H276719   5.948   0.774  16.239  0.7793  0.2476 -0.1279
18410TIP3   OH276720   2.571   4.420   1.760  0.1619  0.0076  0.2616
18410TIP3    H176721   2.523   4.452   1.836 -0.7549  1.5727 -0.9195
18410TIP3    H276722   2.636   4.487   1.741 -0.4006  0.2363 -1.0109
18411TIP3   OH276723   0.707   6.723  12.949 -0.2497 -0.1023 -0.5584
18411TIP3    H176724   0.687   6.673  12.870 -0.5359  0.2148 -0.6867
18411TIP3    H276725   0.781   6.778  12.924 -1.9721  1.9553 -1.4488
18412TIP3   OH276726   4.458   4.841   1.690 -0.1421  0.2061 -0.5706
18412TIP3    H176727   4.464   4.748   1.669 -1.6104 -0.0527  0.0299
18412TIP3    H276728   4.505   4.885   1.619  2.2018 -1.0453  0.0795
18413TIP3   OH276729   6.602   6.509  16.685 -0.4951 -0.0827 -0.1597
18413TIP3    H176730   6.583   6.419  16.708  1.1222 -0.4028  0.0256
18413TIP3    H276731   6.516   6.549  16.671 -1.3748 -0.9061  2.4424
18414TIP3   OH276732   5.257   3.892   1.800  0.6267  0.2551  0.0777
18414TIP3    H176733   5.303   3.808   1.800  1.2911  0.6109 -0.1280
18414TIP3    H276734   5.326   3.957   1.785 -0.0069  0.7585 -0.7445
18415TIP3   OH276735   3.416   4.884   4.981 -0.2387  0.2266  0.7579
18415TIP3    H176736   3.355   4.852   5.047 -1.5205  0.5902 -0.2025
18415TIP3    H276737   3.416   4.816   4.913 -0.2214  0.6072  0.3709
18416TIP3   OH276738   3.267   3.023   2.133 -0.3730 -0.3505  0.2281
18416TIP3    H176739   3.173   3.005   2.136 -0.1536 -1.4391  1.8182
18416TIP3    H276740   3.275   3.098   2.075 -2.2350 -0.1616  0.1519
18417TIP3   OH276741   2.774   2.309  11.848 -0.2345 -0.4716 -0.1614
18417TIP3    H176742   2.744   2.400  11.851 -1.0397 -0.7456  1.4310
18417TIP3    H276743   2.835   2.302  11.922  2.7497 -0.3429 -2.4020
18418TIP3   OH276744   2.508   6.283   4.598 -0.0725  0.1418 -0.0098
18418TIP3    H176745   2.524   6.329   4.516  0.7480  2.5180  1.3988
18418TIP3    H276746   2.475   6.350   4.658 -0.9887 -1.5922  1.5208
18419TIP3   OH276747   0.872   6.639   0.377 -0.5811  0.4158 -0.3491
18419TIP3    H176748   0.887   6.647   0.283  0.3673  2.5684 -0.0870
18419TIP3    H276749   0.808   6.706   0.397 -1.5045 -0.6686  0.4270
18420TIP3   OH276750   6.838   2.659   5.701 -0.4242 -0.2144 -0.4150
18420TIP3    H176751   6.894   2.699   5.767 -0.4712 -0.8788  0.0293
18420TIP3    H276752   6.823   2.729   5.637 -0.3007  0.3978  0.2206
18421TIP3   OH276753   4.959   0.711   1.688  0.2836 -0.6845 -0.2611
18421TIP3    H176754   4.980   0.752   1.773 -0.6907 -0.9185  0.1029
18421TIP3    H276755   5.044   0.688   1.651  0.8790  1.6010 -0.4567
18422TIP3   OH276756   6.301   4.996   4.993 -0.0360 -0.8362 -0.1542
18422TIP3    H176757   6.283   4.993   5.087 -0.2964 -0.9133 -0.2067
18422TIP3    H276758   6.249   4.925   4.956  0.0575 -0.7987 -0.3596
18423TIP3   OH276759   3.208   5.839   4.623 -0.1913 -0.5835 -0.2193
18423TIP3    H176760   3.187   5.919   4.671 -0.8827 -0.8894  0.0097
18423TIP3    H276761   3.296   5.815   4.653 -0.1679 -0.1593  0.0558
18424TIP3   OH276762   6.372   0.131   5.110 -0.3830  0.0056  0.1061
18424TIP3    H176763   6.460   0.101   5.130  0.2505 -0.2557 -2.6906
18424TIP3    H276764   6.316   0.055   5.124  0.3168 -0.7374 -1.0293
18425TIP3   OH276765   4.462   5.196  12.700  0.0268 -0.3851  0.3823
18425TIP3    H176766   4.423   5.118  12.739  1.5309 -0.7490  1.2465
18425TIP3    H276767   4.550   5.169  12.675  0.6583  1.0779  0.9022
18426TIP3   OH276768   4.786   5.632   4.886 -0.0654  0.2318  0.0839
18426TIP3    H176769   4.780   5.600   4.796 -0.5811  1.5217 -0.3589
18426TIP3    H276770   4.874   5.607   4.914  0.2537  0.1773 -0.9242
18427TIP3   OH276771   4.839   4.874  13.058  0.4804  0.0720  0.0785
18427TIP3    H176772   4.756   4.922  13.063  1.0263  0.9122  1.6590
18427TIP3    H276773   4.835   4.829  12.973 -0.8478  1.4423 -0.6475
18428TIP3   OH276774   4.478   5.120   5.847  0.7174  0.0619  0.5594
18428TIP3    H176775   4.567   5.085   5.840  0.0060 -1.8385  0.6100
18428TIP3    H276776   4.462   5.162   5.762  1.8733  1.0183  0.7851
18429TIP3   OH276777   2.838   2.690  14.745 -0.8600  0.1575  0.4022
18429TIP3    H176778   2.819   2.625  14.677 -2.4951  0.7560  0.2638
18429TIP3    H276779   2.841   2.640  14.826  1.4352 -0.6228 -0.0710
18430TIP3   OH276780   2.324   3.470  11.245  0.0416  0.1084 -0.2676
18430TIP3    H176781   2.338   3.460  11.151 -1.6076  0.0499 -0.5394
18430TIP3    H276782   2.364   3.392  11.283 -2.5274 -1.8475 -1.3038
18431TIP3   OH276783   4.021   2.697   3.667 -0.3056 -0.9355  0.2409
18431TIP3    H176784   4.049   2.612   3.635  0.3931 -0.9978  1.0024
18431TIP3    H276785   4.043   2.697   3.760 -0.8776 -0.1632  0.3899
18432TIP3   OH276786   3.137   6.132   4.376 -0.1774 -0.4863 -0.3040
18432TIP3    H176787   3.075   6.169   4.438  1.3348  0.9078  0.4563
18432TIP3    H276788   3.082   6.092   4.308 -1.8749 -0.1638  0.8154
18433TIP3   OH276789   1.084   5.400   0.819 -0.0938 -0.8415  0.1324
18433TIP3    H176790   1.143   5.467   0.854  2.9013 -2.1068 -2.0799
18433TIP3    H276791   1.092   5.409   0.724 -0.9474 -3.2196 -0.2204
18434TIP3   OH276792   0.993   3.188   4.290  0.1355 -0.0936  0.5759
18434TIP3    H176793   1.083   3.197   4.259  0.0278  0.7433  0.4940
18434TIP3    H276794   0.945   3.154   4.214  0.2126  0.2988  0.3514
18435TIP3   OH276795   0.241   1.153   1.648 -0.5170 -0.3786  0.1351
18435TIP3    H176796   0.264   1.101   1.725 -0.4787 -3.1241 -1.5827
18435TIP3    H276797   0.154   1.187   1.668  0.2047  0.4696  2.0621
18436TIP3   OH276798   2.175   3.396   0.150  0.5185 -0.1612 -0.3902
18436TIP3    H176799   2.196   3.306   0.173 -2.7499 -1.1573 -0.7948
18436TIP3    H276800   2.168   3.396   0.055 -3.1246 -0.6066 -0.2924
18437TIP3   OH276801   5.300   6.246   5.798  0.0683  0.5938 -0.0874
18437TIP3    H176802   5.257   6.201   5.870  0.4452 -1.5307 -1.1175
18437TIP3    H276803   5.367   6.300   5.839 -0.1681 -0.0615  1.1916
18438TIP3   OH276804   0.637   3.493  16.107  0.3600 -0.0143  0.6070
18438TIP3    H176805   0.714   3.463  16.059  0.1074  0.1971  0.0579
18438TIP3    H276806   0.671   3.543  16.181  0.7585 -0.4685  0.7315
18439TIP3   OH276807   1.508   0.677  12.164  0.1931 -0.8628  0.7507
18439TIP3    H176808   1.560   0.732  12.105  1.1396 -2.0032  0.4905
18439TIP3    H276809   1.420   0.680  12.127  0.0041  1.1958  1.2672
18440TIP3   OH276810   5.626   6.747  11.283  0.4177 -0.1759  1.0399
18440TIP3    H176811   5.610   6.696  11.203  0.0550 -1.0638  1.6721
18440TIP3    H276812   5.720   6.735  11.301  0.3937 -0.3719  1.0274
18441TIP3   OH276813   5.160   1.375  13.523 -0.2033 -0.8092 -0.0982
18441TIP3    H176814   5.215   1.338  13.454  1.9383  0.9733  0.5445
18441TIP3    H276815   5.200   1.345  13.604 -0.1555  0.4953  0.3893
18442TIP3   OH276816   5.563   1.087   3.372 -0.0625 -0.0079 -0.0194
18442TIP3    H176817   5.607   1.130   3.299 -1.0711 -0.7556 -1.0981
18442TIP3    H276818   5.478   1.131   3.379  1.2525  2.4335  2.9888
18443TIP3   OH276819   2.777   4.674   0.299 -0.5961 -0.2093 -0.3155
18443TIP3    H176820   2.757   4.766   0.282 -0.9227 -0.4161 -1.0849
18443TIP3    H276821   2.740   4.657   0.386  1.7005  1.0540  1.0206
18444TIP3   OH276822   0.259   5.434  12.589 -0.4660 -0.2851  0.5847
18444TIP3    H176823   0.329   5.369  12.590  1.0334  1.1476 -1.7948
18444TIP3    H276824   0.179   5.382  12.600  0.7691 -2.3172  0.5037
18445TIP3   OH276825   0.084   4.480   4.568  0.1156  0.0552 -0.1133
18445TIP3    H176826   0.087   4.385   4.562 -0.3283 -0.1679  2.1458
18445TIP3    H276827   0.171   4.509   4.540  0.8749 -1.1781  0.8614
18446TIP3   OH276828   0.563   4.186  14.482  0.1605 -0.2209  0.7376
18446TIP3    H176829   0.471   4.180  14.509 -0.3786  1.0665 -0.6361
18446TIP3    H276830   0.590   4.095  14.468 -1.4183 -0.5654 -0.3785
18447TIP3   OH276831   6.724   1.408  13.827 -0.4978 -0.2246 -0.1536
18447TIP3    H176832   6.733   1.391  13.734 -1.2592  0.8196 -0.4460
18447TIP3    H276833   6.649   1.468  13.833 -1.0189 -0.9723  1.2020
18448TIP3   OH276834   0.356   2.750   5.737  0.4109 -0.4855  0.5129
18448TIP3    H176835   0.277   2.774   5.785  1.7059  2.8071  1.2687
18448TIP3    H276836   0.416   2.823   5.751  2.5604 -1.4737 -2.4248
18449TIP3   OH276837   3.099   3.659   2.257  0.5266  0.2383  0.0340
18449TIP3    H176838   3.125   3.572   2.228 -0.5189 -0.1534  0.1954
18449TIP3    H276839   3.081   3.707   2.176 -0.8971 -0.3707 -0.0589
18450TIP3   OH276840   1.722   4.152  10.187 -0.4640  0.4679 -0.2735
18450TIP3    H176841   1.751   4.066  10.158  0.3413  0.4827  0.4493
18450TIP3    H276842   1.765   4.213  10.126 -1.4007  0.3461 -1.0699
18451TIP3   OH276843   0.336   0.130  17.031 -0.0601 -0.1860 -0.9386
18451TIP3    H176844   0.260   0.116  16.974  0.0923  1.4449 -1.6023
18451TIP3    H276845   0.381   0.046  17.032 -2.0692 -1.3283 -0.1914
18452TIP3   OH276846   2.865   3.067  12.672  0.0881  0.6345 -0.3205
18452TIP3    H176847   2.848   3.094  12.763 -1.0527 -0.2336 -0.2487
18452TIP3    H276848   2.909   2.983  12.680  0.7648  0.9582 -0.5760
18453TIP3   OH276849   3.702   3.253   4.020 -0.5429 -0.7109  0.1455
18453TIP3    H176850   3.679   3.253   3.927  1.9530  1.4234 -0.5971
18453TIP3    H276851   3.631   3.302   4.062 -0.4899  0.4888 -1.0684
18454TIP3   OH276852   1.213   0.390   2.663  0.4499 -0.2223  0.0814
18454TIP3    H176853   1.212   0.294   2.669 -0.9390 -0.3715 -1.5887
18454TIP3    H276854   1.187   0.408   2.573 -2.4512  1.7667  1.1585
18455TIP3   OH276855   4.836   3.735   3.490  0.4170  0.6446 -0.1925
18455TIP3    H176856   4.777   3.676   3.537  0.7677  0.4329 -0.0182
18455TIP3    H276857   4.795   3.746   3.404 -1.8670  3.4482  1.0934
18456TIP3   OH276858   6.268   1.602  14.971  0.1355  0.2187  0.2311
18456TIP3    H176859   6.299   1.559  14.890 -0.3598 -0.3016  0.3097
18456TIP3    H276860   6.279   1.695  14.954 -1.8929  0.2618 -1.2850
18457TIP3   OH276861   6.645   4.775  12.658 -0.0478 -0.2125 -0.6672
18457TIP3    H176862   6.600   4.795  12.576  2.3964  0.9951 -1.8141
18457TIP3    H276863   6.737   4.766  12.634  0.6372 -0.7427  1.8284
18458TIP3   OH276864   0.933   0.428  12.631  0.0988  0.3085 -0.2704
18458TIP3    H176865   0.936   0.465  12.543 -1.9678 -0.1408 -0.5888
18458TIP3    H276866   0.917   0.503  12.688  1.3818  0.5919 -0.2644
18459TIP3   OH276867   2.826   3.884  11.082  0.4441 -0.0108 -0.2358
18459TIP3    H176868   2.736   3.882  11.117  0.8865  1.9354  1.2052
18459TIP3    H276869   2.833   3.970  11.041  1.6450 -0.1702 -0.3783
18460TIP3   OH276870   5.828   0.148  11.811 -0.1548 -0.6627 -0.7281
18460TIP3    H176871   5.774   0.227  11.814  0.9063  0.0935 -0.9572
18460TIP3    H276872   5.770   0.081  11.773 -0.9181  0.1299 -0.9985
18461TIP3   OH276873   2.327   6.784  12.879 -0.2188 -0.7163 -0.4115
18461TIP3    H176874   2.393   6.768  12.946 -0.0306  2.8475  0.4484
18461TIP3    H276875   2.358   6.862  12.833 -2.5218 -0.5258 -1.7852
18462TIP3   OH276876   3.963   5.691  14.420 -0.0638 -0.7082  0.1968
18462TIP3    H176877   3.932   5.778  14.446  0.6333 -0.3040 -0.2912
18462TIP3    H276878   3.983   5.700  14.327  3.2265 -0.3844  0.8041
18463TIP3   OH276879   3.612   2.626  11.029  0.2839  0.4568  0.3739
18463TIP3    H176880   3.675   2.585  11.088  1.1228  0.0627 -0.7717
18463TIP3    H276881   3.595   2.560  10.962  0.2612  1.3199 -0.4868
18464TIP3   OH276882   5.457   5.765  15.779  0.0061  0.0121  0.5250
18464TIP3    H176883   5.404   5.726  15.848  1.0614 -1.6593  0.4564
18464TIP3    H276884   5.396   5.782  15.707 -0.7803  0.1178  1.2053
18465TIP3   OH276885   0.005   6.645  16.214 -0.1338 -0.4562  0.8144
18465TIP3    H176886  -0.040   6.637  16.298 -0.2629 -0.9425  0.7007
18465TIP3    H276887  -0.065   6.645  16.149  0.0016 -0.7057  0.6675
18466TIP3   OH276888   4.177   3.452  12.388  0.0262  0.0650 -0.2099
18466TIP3    H176889   4.105   3.477  12.331  0.1441  0.1051 -0.3415
18466TIP3    H276890   4.237   3.526  12.385 -0.5390  0.5966  0.9207
18467TIP3   OH276891   6.813   3.676   0.671  0.0379 -0.2826 -0.1508
18467TIP3    H176892   6.734   3.726   0.648  0.7371  0.9071 -0.0762
18467TIP3    H276893   6.858   3.731   0.735  0.1557 -1.6742  1.0114
18468TIP3   OH276894   5.386   2.084  14.220 -0.0957  0.5635 -0.1103
18468TIP3    H176895   5.292   2.101  14.226 -0.3331 -0.7307  0.1024
18468TIP3    H276896   5.393   1.989  14.213  1.0936  0.7516 -2.4137
18469TIP3   OH276897   3.943   0.467  12.809 -0.1140  0.5340  0.3486
18469TIP3    H176898   3.885   0.540  12.828  0.0704  0.6497  0.4652
18469TIP3    H276899   3.997   0.498  12.736 -0.6122  0.2041 -0.1732
18470TIP3   OH276900   1.263   4.559   2.999  0.3366 -0.1868  0.3750
18470TIP3    H176901   1.340   4.570   2.945  0.7693  1.1731  1.2282
18470TIP3    H276902   1.200   4.623   2.966  0.3470  0.1620  1.0125
18471TIP3   OH276903   2.060   3.794   2.412 -0.2882 -0.5043 -0.4913
18471TIP3    H176904   2.136   3.851   2.407 -0.4315 -0.3929 -1.6687
18471TIP3    H276905   1.989   3.844   2.372 -0.6791 -1.0711 -0.5258
18472TIP3   OH276906   0.685   1.440   0.536  0.2900 -0.6672 -0.5477
18472TIP3    H176907   0.661   1.350   0.558 -0.6992 -0.8186 -2.0837
18472TIP3    H276908   0.635   1.494   0.597  0.4846 -1.1242  0.0336
18473TIP3   OH276909   5.465   1.718   1.977  0.7972  0.0569  0.0976
18473TIP3    H176910   5.522   1.642   1.963  0.7922  0.2575 -1.0492
18473TIP3    H276911   5.525   1.791   1.991  0.8646  0.3474 -1.5128
18474TIP3   OH276912   5.683   6.565   4.146  0.0286  0.2357  0.1153
18474TIP3    H176913   5.679   6.658   4.169  0.8666  0.0871  0.9350
18474TIP3    H276914   5.765   6.556   4.097 -0.0048 -0.0774  0.1125
18475TIP3   OH276915   2.247   0.857  11.620 -0.5350  0.2049 -0.7545
18475TIP3    H176916   2.199   0.801  11.559 -1.0836 -0.1098 -0.0521
18475TIP3    H276917   2.323   0.887  11.570 -0.3959 -0.9051 -1.2560
18476TIP3   OH276918   6.064   2.414  13.776  0.5483  0.2817 -0.1702
18476TIP3    H176919   5.979   2.420  13.732 -1.9044  1.2825  4.1657
18476TIP3    H276920   6.090   2.504  13.792 -0.0232  0.0421  2.5510
18477TIP3   OH276921   4.124   3.055  12.990 -0.3765 -0.0716  0.7184
18477TIP3    H176922   4.144   3.050  12.897  0.4445  2.2818  0.7105
18477TIP3    H276923   4.098   2.966  13.014 -0.2430 -0.8081 -1.6554
18478TIP3   OH276924   1.862   6.180  11.731  0.4777  0.4728  0.4660
18478TIP3    H176925   1.815   6.168  11.649 -1.0983  1.1683  1.2264
18478TIP3    H276926   1.916   6.101  11.739  1.4089  0.8110 -1.6615
18479TIP3   OH276927   1.909   1.685   0.477 -0.3490 -0.0950  0.2090
18479TIP3    H176928   1.953   1.683   0.562 -0.2376 -2.5268  0.1634
18479TIP3    H276929   1.829   1.634   0.491  0.5894 -2.1854 -1.5492
18480TIP3   OH276930   1.397   4.283  11.029  0.0408 -0.8613 -0.0360
18480TIP3    H176931   1.488   4.284  11.001  0.0455  1.4255 -0.1384
18480TIP3    H276932   1.347   4.299  10.948 -0.3571 -0.5263  0.2721
18481TIP3   OH276933   6.081   4.406   2.468  0.2710  0.1553 -0.2485
18481TIP3    H176934   5.989   4.421   2.491 -0.2682 -0.9286 -1.5355
18481TIP3    H276935   6.111   4.340   2.531 -0.4111 -0.8473 -0.9325
18482TIP3   OH276936   0.369   5.737  15.389 -0.3971  0.3069 -0.0990
18482TIP3    H176937   0.334   5.679  15.321 -2.6055  0.7485  0.5901
18482TIP3    H276938   0.453   5.697  15.413 -0.6180 -1.1118 -1.4850
18483TIP3   OH276939   1.476   6.851  14.164  1.0510 -0.6722 -0.2869
18483TIP3    H176940   1.384   6.834  14.143  0.2753  1.1213  1.3517
18483TIP3    H276941   1.516   6.874  14.080 -0.8762  1.9761 -0.6073
18484TIP3   OH276942   0.377   0.589  16.934 -0.3381 -0.2254  0.3794
18484TIP3    H176943   0.442   0.593  17.005  1.8733  0.8544 -1.5791
18484TIP3    H276944   0.372   0.497  16.912 -0.9877 -0.5730  1.8292
18485TIP3   OH276945   1.261   3.485   0.075  0.3162  0.6128  0.1016
18485TIP3    H176946   1.301   3.473  -0.012 -1.0572  0.0277 -0.4793
18485TIP3    H276947   1.300   3.566   0.108  1.5693  0.3501 -0.6449
18486TIP3   OH276948   3.331   2.689   1.406 -0.2800  0.4546  0.7446
18486TIP3    H176949   3.273   2.734   1.344 -0.2722 -0.5654 -0.0221
18486TIP3    H276950   3.400   2.652   1.352 -0.0219 -0.0770  1.4229
18487TIP3   OH276951   0.274   3.013   1.374 -0.5350  0.3001 -0.4029
18487TIP3    H176952   0.294   3.103   1.350 -1.7358 -0.0680 -3.0819
18487TIP3    H276953   0.356   2.965   1.357 -0.0846  0.7500  0.4361
18488TIP3   OH276954   0.736   4.382   5.599  0.3413  0.0657  0.3155
18488TIP3    H176955   0.666   4.401   5.536  1.9813  1.7906 -1.0716
18488TIP3    H276956   0.777   4.302   5.567  1.0473  0.8345 -0.7288
18489TIP3   OH276957   5.550   3.954   4.362  0.3448 -0.0573  0.7687
18489TIP3    H176958   5.467   3.944   4.410  0.0300 -0.7466  0.1060
18489TIP3    H276959   5.543   4.041   4.322  0.0380 -0.0209  0.8928
18490TIP3   OH276960   4.372   0.384  15.294 -0.2129 -0.0528 -0.0269
18490TIP3    H176961   4.337   0.459  15.247  1.8238  0.2061 -1.2620
18490TIP3    H276962   4.435   0.421  15.356  0.2866 -0.6825 -0.1478
18491TIP3   OH276963   3.641   6.190   4.547  0.2524 -0.3330  0.2759
18491TIP3    H176964   3.648   6.169   4.454  0.1363  3.0889 -0.6337
18491TIP3    H276965   3.731   6.185   4.580  0.5912  0.2706 -0.5199
18492TIP3   OH276966   1.283   3.301   1.984  0.6380 -1.0658 -0.3207
18492TIP3    H176967   1.261   3.375   2.041 -0.1370 -1.4996 -0.0446
18492TIP3    H276968   1.377   3.311   1.967  0.7174 -0.4964  0.3914
18493TIP3   OH276969   5.307   2.748   0.113  0.0383  0.2454  0.8734
18493TIP3    H176970   5.327   2.730   0.021 -0.6697  0.4799  0.6710
18493TIP3    H276971   5.380   2.803   0.143 -0.2177  0.9949  0.1757
18494TIP3   OH276972   6.034   5.504   1.965 -0.1174 -0.1903  0.3936
18494TIP3    H176973   5.956   5.555   1.942 -0.0597  0.3073  1.2763
18494TIP3    H276974   6.020   5.478   2.056  1.0614  0.4784  0.7778
18495TIP3   OH276975   3.071   6.023  12.497 -0.6423 -0.4034  0.1056
18495TIP3    H176976   2.995   6.034  12.439 -0.3921 -0.4151 -0.2249
18495TIP3    H276977   3.079   5.928  12.507 -0.7391 -0.3988  0.2325
18496TIP3   OH276978   0.703   5.439   3.833  0.1316  0.0915  0.3010
18496TIP3    H176979   0.649   5.390   3.771 -0.4761  0.5639  0.4488
18496TIP3    H276980   0.674   5.530   3.824  0.8074  0.3334  0.4839
18497TIP3   OH276981   3.725   5.829   6.324  0.4757 -0.1698  0.7646
18497TIP3    H176982   3.658   5.785   6.376 -0.3119  0.7602  0.5593
18497TIP3    H276983   3.682   5.845   6.239  0.2188  2.2290  1.2680
18498TIP3   OH276984   6.040   4.822  14.879 -0.3743 -0.2517  0.1665
18498TIP3    H176985   6.049   4.727  14.888 -1.6763 -0.3394  0.9042
18498TIP3    H276986   5.999   4.835  14.793  1.4447 -0.2088 -0.7346
18499TIP3   OH276987   5.146   0.713  15.944 -0.6803 -0.1952 -0.4201
18499TIP3    H176988   5.182   0.672  15.865 -3.3408  1.8153 -2.8856
18499TIP3    H276989   5.222   0.752  15.988  0.7635 -0.2066 -2.7423
18500TIP3   OH276990   5.075   1.307   0.874  0.0784 -0.1549  0.0200
18500TIP3    H176991   4.992   1.356   0.881  0.3080  0.4978 -1.4652
18500TIP3    H276992   5.142   1.375   0.878  0.6673 -0.7989  2.6703
18501TIP3   OH276993   0.872   1.216   1.966  0.1543 -0.2242 -0.0733
18501TIP3    H176994   0.864   1.298   2.015  0.4964 -0.0192 -0.3450
18501TIP3    H276995   0.962   1.187   1.982 -0.4142 -1.3404  1.2194
18502TIP3   OH276996   5.921   2.987   3.000  0.6196 -0.5251  0.0549
18502TIP3    H176997   5.927   2.905   3.049  0.1088  0.0647  1.1407
18502TIP3    H276998   5.914   2.960   2.909 -0.9803 -1.7667  0.4983
18503TIP3   OH276999   2.662   3.425  13.850  0.2276  0.0700 -0.1094
18503TIP3    H177000   2.734   3.469  13.803  0.0606  0.3172 -0.1395
18503TIP3    H277001   2.662   3.336  13.816  0.4012  0.1222 -0.2489
18504TIP3   OH277002   5.412   6.717  13.807 -0.6271  0.0653  0.1930
18504TIP3    H177003   5.498   6.748  13.779 -1.1303 -0.4304 -2.1309
18504TIP3    H277004   5.377   6.787  13.861  1.0673  0.4320  0.8718
18505TIP3   OH277005   6.578   2.843   6.525 -0.0372  0.8914 -0.5226
18505TIP3    H177006   6.488   2.856   6.555  0.3255 -1.6016  2.1311
18505TIP3    H277007   6.571   2.785   6.450 -0.6786 -0.5742  0.6097
18506TIP3   OH277008   0.788   2.153   1.483 -0.4338 -0.5806 -0.2710
18506TIP3    H177009   0.775   2.202   1.402  1.8376  0.0855 -0.3101
18506TIP3    H277010   0.820   2.067   1.455 -0.5339 -0.6766 -0.0947
18507TIP3   OH277011   3.762   4.234   4.277 -0.6190  0.3110  0.0619
18507TIP3    H177012   3.778   4.174   4.350  0.4455  0.8750  0.3049
18507TIP3    H277013   3.741   4.176   4.203 -0.2061 -0.3258  0.4385
18508TIP3   OH277014   6.813   4.554   1.380 -0.3728  0.7225 -0.0509
18508TIP3    H177015   6.767   4.635   1.401  1.5825  2.4076 -1.9367
18508TIP3    H277016   6.756   4.510   1.317  0.3196  2.6420 -2.1376
18509TIP3   OH277017   6.186   0.243  14.186  0.3024 -0.3653 -0.3793
18509TIP3    H177018   6.211   0.171  14.243  0.0294 -0.3033 -0.1810
18509TIP3    H277019   6.269   0.275  14.150  0.4261 -0.7374 -0.4221
18510TIP3   OH277020   6.428   6.018  10.586 -0.0235 -0.1928  0.0081
18510TIP3    H177021   6.431   6.106  10.549  0.7171 -0.7904 -1.4102
18510TIP3    H277022   6.386   5.965  10.519 -0.5776 -0.9222  0.8963
18511TIP3   OH277023   1.640   6.258  15.299  0.1548 -0.4148 -0.0976
18511TIP3    H177024   1.612   6.168  15.283 -0.9612 -0.5626  2.2673
18511TIP3    H277025   1.714   6.271  15.240  0.6459 -3.0268 -0.1731
18512TIP3   OH277026   4.536   0.561  14.482  0.1211 -0.6674 -0.7821
18512TIP3    H177027   4.605   0.546  14.548  1.1281  0.7398 -1.4568
18512TIP3    H277028   4.454   0.551  14.530  0.8321 -0.1968  0.5895
18513TIP3   OH277029   6.754   3.736   4.932  0.3144 -0.5423  0.4825
18513TIP3    H177030   6.719   3.654   4.898 -0.2060 -0.5327  0.9792
18513TIP3    H277031   6.683   3.799   4.923  0.3287 -0.4247  1.1374
18514TIP3   OH277032   1.922   6.711   3.078 -0.5147  0.1369 -0.3995
18514TIP3    H177033   1.934   6.781   3.143 -0.5169 -0.9043  0.7498
18514TIP3    H277034   2.000   6.656   3.087 -0.9208 -0.4944 -0.6655
18515TIP3   OH277035   1.449   0.259  14.796  0.0760 -0.0516 -0.1239
18515TIP3    H177036   1.508   0.187  14.816 -0.7787 -0.1598  2.3988
18515TIP3    H277037   1.376   0.218  14.750 -0.0843 -0.7073  0.6910
18516TIP3   OH277038   4.692   0.628  16.039 -0.2032  0.1172  0.3613
18516TIP3    H177039   4.739   0.711  16.040 -0.5769  0.3427 -0.3002
18516TIP3    H277040   4.692   0.599  16.130 -0.5911  1.1364  0.7009
18517TIP3   OH277041   2.840   1.087  14.102 -0.7783  0.1080  0.2366
18517TIP3    H177042   2.762   1.112  14.152 -0.7456  0.2951  0.1933
18517TIP3    H277043   2.838   0.991  14.103 -1.0195  0.1103  0.2192
18518TIP3   OH277044   4.246   6.820   2.585 -0.1312  0.0051 -0.1287
18518TIP3    H177045   4.168   6.773   2.613  0.0095  1.0324  2.2564
18518TIP3    H277046   4.216   6.910   2.572  0.7206  0.5890  1.5835
18519TIP3   OH277047   0.592   0.188   1.189 -0.0231 -0.5256 -0.4536
18519TIP3    H177048   0.573   0.116   1.248  1.6410 -1.3042 -0.8087
18519TIP3    H277049   0.509   0.207   1.146 -0.9394 -0.8590  1.1123
18520TIP3   OH277050   1.645   2.643  12.359  0.0693  0.4243  0.3717
18520TIP3    H177051   1.620   2.623  12.269  0.0928 -0.1032  0.4812
18520TIP3    H277052   1.655   2.558  12.402 -1.0797  0.6726  1.1905
18521TIP3   OH277053   5.581   4.777   4.691  0.4520  0.3241  0.0243
18521TIP3    H177054   5.641   4.716   4.648 -0.1095 -1.5516  1.7767
18521TIP3    H277055   5.517   4.798   4.623  0.2570 -1.6090 -0.4649
18522TIP3   OH277056   4.891   6.154   0.766  0.7180 -0.1970 -0.0212
18522TIP3    H177057   4.804   6.148   0.726  1.4156  0.4520 -1.7090
18522TIP3    H277058   4.902   6.070   0.810 -0.9033 -0.1456  0.5621
18523TIP3   OH277059   3.918   1.059   2.188 -0.2852  0.2724 -0.2398
18523TIP3    H177060   3.877   1.119   2.251 -0.4140 -0.5336  0.4621
18523TIP3    H277061   3.899   1.097   2.102 -1.6178  0.4616  0.1257
18524TIP3   OH277062   2.851   3.769  16.376  0.0254 -0.2551  0.0148
18524TIP3    H177063   2.840   3.707  16.448  0.7633 -1.3558 -0.7894
18524TIP3    H277064   2.797   3.733  16.305 -0.1901  0.4722 -0.1936
18525TIP3   OH277065   4.155   1.340   4.402 -0.3502  0.6647  0.0051
18525TIP3    H177066   4.060   1.332   4.394 -0.5784  2.6340  0.3685
18525TIP3    H277067   4.183   1.254   4.435 -1.5813 -1.0517 -3.0020
18526TIP3   OH277068   1.210   3.414   0.415  0.3600 -0.5696 -0.6154
18526TIP3    H177069   1.136   3.394   0.358  0.7072  0.4005 -1.4194
18526TIP3    H277070   1.206   3.508   0.429  2.3524 -0.1985 -2.0061
18527TIP3   OH277071   6.751   1.954   3.161  0.6486 -0.2638 -0.0985
18527TIP3    H177072   6.712   2.016   3.099  1.3895 -0.1664 -0.4766
18527TIP3    H277073   6.676   1.914   3.205  0.1073 -0.2530 -0.9793
18528TIP3   OH277074   0.156   5.575  15.555 -0.1079 -0.1439  0.2085
18528TIP3    H177075   0.088   5.604  15.495  0.7678  0.0107 -0.7381
18528TIP3    H277076   0.235   5.571  15.502  0.7433  0.2047  1.4010
18529TIP3   OH277077   2.275   0.778   5.867 -0.0150 -0.4529  0.1661
18529TIP3    H177078   2.302   0.826   5.945 -0.7377  1.1143 -0.5071
18529TIP3    H277079   2.250   0.846   5.804  0.3926 -1.6660 -1.3851
18530TIP3   OH277080   3.178   0.490  17.002  1.3463  0.4100 -0.3023
18530TIP3    H177081   3.157   0.495  17.095 -1.3600  1.4071 -0.8734
18530TIP3    H277082   3.118   0.552  16.960  1.7019 -0.8227 -2.8260
18531TIP3   OH277083   5.635   3.791   1.808  0.5954  0.8588  0.3388
18531TIP3    H177084   5.648   3.819   1.717  4.3354  0.4166  0.5860
18531TIP3    H277085   5.613   3.698   1.802 -0.2032  1.0681 -0.1110
18532TIP3   OH277086   2.372   3.740  14.254 -0.5345  0.1499  0.3067
18532TIP3    H177087   2.353   3.706  14.167 -2.4608  1.4772  0.1619
18532TIP3    H277088   2.307   3.698  14.311  0.3521 -0.2822  1.0338
18533TIP3   OH277089   0.704   1.522   6.048  0.0952  0.2292 -0.5323
18533TIP3    H177090   0.799   1.531   6.057  0.2236 -1.5583  0.2628
18533TIP3    H277091   0.684   1.436   6.085 -1.7041  0.0728 -1.7520
18534TIP3   OH277092   6.794   3.799  16.726 -1.0493 -0.2265 -0.3362
18534TIP3    H177093   6.876   3.845  16.707 -1.4743  0.4874 -0.4953
18534TIP3    H277094   6.809   3.709  16.696  0.0369 -0.3771  0.6069
18535TIP3   OH277095   4.816   5.793   1.744 -0.3218  0.4430 -0.5986
18535TIP3    H177096   4.862   5.715   1.776  0.3569  1.0107 -0.1623
18535TIP3    H277097   4.741   5.802   1.802 -0.6897 -0.1714 -0.9687
18536TIP3   OH277098   2.112   3.186  12.987  0.3202 -0.1311  0.2763
18536TIP3    H177099   2.110   3.282  12.984  0.5675 -0.0991  0.9116
18536TIP3    H277100   2.025   3.162  13.019  0.8183 -0.0303  1.7579
18537TIP3   OH277101   6.474   4.657   4.211  0.0099 -0.2808  0.9335
18537TIP3    H177102   6.497   4.564   4.221  0.1291 -0.2109  1.3385
18537TIP3    H277103   6.473   4.691   4.300 -1.7210 -0.2867  0.9393
18538TIP3   OH277104   0.489   3.292  17.008 -0.1899  0.2473 -0.2888
18538TIP3    H177105   0.395   3.271  17.013 -0.2082  0.2111 -0.7439
18538TIP3    H277106   0.492   3.374  16.959 -0.0865  1.0804  1.0511
18539TIP3   OH277107   3.907   3.774   4.773  0.1306  0.0289  0.3246
18539TIP3    H177108   3.990   3.775   4.724 -0.2763 -0.9144 -0.4111
18539TIP3    H277109   3.934   3.780   4.865  1.0291 -0.2949  0.0944
18540TIP3   OH277110   2.689   6.284  12.668  0.2691 -0.2019 -0.1025
18540TIP3    H177111   2.642   6.204  12.644  0.1353 -0.5696  1.3274
18540TIP3    H277112   2.719   6.320  12.584 -0.8910 -0.9810 -0.8872
18541TIP3   OH277113   4.900   4.540  11.990  0.1025 -0.2527 -0.3754
18541TIP3    H177114   4.995   4.539  11.979  0.0043 -1.1656 -1.3311
18541TIP3    H277115   4.876   4.449  12.005 -0.6011  0.0090  0.1518
18542TIP3   OH277116   1.964   6.278   4.528 -0.5626  0.1513 -0.4333
18542TIP3    H177117   1.877   6.317   4.520 -1.2308 -0.8873  1.2976
18542TIP3    H277118   1.988   6.253   4.439  0.3480  5.2045 -1.9402
18543TIP3   OH277119   2.452   0.746   0.400  0.0540 -0.2302  0.4146
18543TIP3    H177120   2.454   0.769   0.308 -1.2388  1.2140  0.7200
18543TIP3    H277121   2.509   0.669   0.406 -0.5027 -0.8929 -1.7150
18544TIP3   OH277122   5.782   3.141   0.124  0.0291 -0.1302  0.0270
18544TIP3    H177123   5.740   3.070   0.075  0.4727  0.8088 -1.7920
18544TIP3    H277124   5.832   3.189   0.059 -0.4380  2.0040  1.1460
18545TIP3   OH277125   2.748   1.599  15.210  0.0185 -0.0094  0.5241
18545TIP3    H177126   2.836   1.585  15.173  0.7162 -0.9790  2.4275
18545TIP3    H277127   2.705   1.514  15.202 -1.6452  0.9428 -2.3547
18546TIP3   OH277128   0.889   0.577   3.073 -0.3687  0.4391  0.0288
18546TIP3    H177129   0.960   0.590   3.009 -0.0697 -0.2689  0.2129
18546TIP3    H277130   0.934   0.566   3.156 -0.7377  0.8079  0.2803
18547TIP3   OH277131   6.661   6.131  13.781 -0.2904  0.6220 -0.0526
18547TIP3    H177132   6.711   6.212  13.789 -0.5748  0.7227  0.8328
18547TIP3    H277133   6.656   6.115  13.687  1.3012  0.6680 -0.1678
18548TIP3   OH277134   6.457   3.546  12.564 -0.3484 -0.0933 -0.1834
18548TIP3    H177135   6.423   3.630  12.532  0.6297 -0.0072 -1.0682
18548TIP3    H277136   6.430   3.542  12.655  0.4566  1.6735  0.1723
18549TIP3   OH277137   2.827   6.197  13.307  0.5052 -0.0714  0.1157
18549TIP3    H177138   2.769   6.122  13.296  1.8672 -1.3433  1.0541
18549TIP3    H277139   2.899   6.181  13.245  0.5358  0.7479 -0.0663
18550TIP3   OH277140   3.481   1.848  14.312  0.5698 -0.2963 -0.7144
18550TIP3    H177141   3.509   1.774  14.365  0.5163  0.2320  0.0671
18550TIP3    H277142   3.519   1.831  14.226  2.0208 -0.3706 -0.0923
18551TIP3   OH277143   1.438   1.745   4.529 -0.1190 -0.1980 -0.3217
18551TIP3    H177144   1.403   1.716   4.613 -2.3295  0.8048 -0.8562
18551TIP3    H277145   1.423   1.670   4.471 -2.7802  0.6769 -0.8822
18552TIP3   OH277146   0.697   1.981  15.181 -0.3398 -0.4793 -0.6875
18552TIP3    H177147   0.727   1.974  15.091  2.9681 -0.3602  0.2736
18552TIP3    H277148   0.711   1.894  15.218  0.0553 -0.0681  0.1577
18553TIP3   OH277149   0.178   5.320  16.304  0.2314  0.2870  0.2935
18553TIP3    H177150   0.247   5.351  16.362 -1.2741  0.9689  1.8157
18553TIP3    H277151   0.106   5.295  16.362 -1.2472  0.7142 -1.2375
18554TIP3   OH277152   2.098   2.994   5.591 -0.0179  0.0611  0.2202
18554TIP3    H177153   2.047   3.018   5.514  1.9014  0.4011 -1.0278
18554TIP3    H277154   2.169   3.059   5.594  1.8365 -1.8616  0.3182
18555TIP3   OH277155   3.549   1.168  16.943 -0.0291  0.1068 -0.1863
18555TIP3    H177156   3.571   1.124  17.025  0.8258 -0.7758 -0.8727
18555TIP3    H277157   3.613   1.239  16.937  0.6859 -0.5655 -0.6652
18556TIP3   OH277158   6.192   2.290   0.213 -0.4821  0.1717  0.0112
18556TIP3    H177159   6.210   2.202   0.246  0.1657  0.3306  0.1092
18556TIP3    H277160   6.145   2.277   0.131 -0.2209 -0.2710 -0.0715
18557TIP3   OH277161   1.294   0.814  15.891  0.4599 -0.0002 -0.2288
18557TIP3    H177162   1.382   0.839  15.918  0.3081 -0.0345  0.3071
18557TIP3    H277163   1.301   0.799  15.797  1.1710 -0.6363 -0.0860
18558TIP3   OH277164   3.684   1.592  12.211  0.3172  0.2352 -0.5219
18558TIP3    H177165   3.704   1.511  12.165 -0.9298 -1.5194  1.8438
18558TIP3    H277166   3.751   1.598  12.279 -0.3616  0.5116  0.1265
18559TIP3   OH277167   1.311   1.427  13.663  0.9387 -0.1951 -0.1626
18559TIP3    H177168   1.367   1.406  13.588  1.3748  1.5273 -0.3648
18559TIP3    H277169   1.249   1.491  13.630 -0.3922 -1.1682  0.3855
18560TIP3   OH277170   4.853   6.615   2.579  0.9904  0.2432 -0.0273
18560TIP3    H177171   4.862   6.700   2.537  1.0346  0.3519  0.1993
18560TIP3    H277172   4.889   6.553   2.516 -1.4534  0.0575 -1.3712
18561TIP3   OH277173   2.775   0.359   1.562 -0.1019 -0.0959 -0.0440
18561TIP3    H177174   2.732   0.330   1.482 -2.2667 -1.1422  1.3785
18561TIP3    H277175   2.705   0.400   1.614  1.3506  1.0874  1.0728
18562TIP3   OH277176   0.905   0.495   3.958  0.3363 -0.6854 -0.8093
18562TIP3    H177177   0.979   0.504   4.018 -0.3763 -0.6209  0.0805
18562TIP3    H277178   0.925   0.416   3.908 -0.2765 -2.2908  1.3165
18563TIP3   OH277179   3.566   1.040   4.803 -0.5199  0.0851  0.1920
18563TIP3    H177180   3.489   1.082   4.842  0.4600  1.3613  0.8146
18563TIP3    H277181   3.596   0.978   4.869 -1.6491 -1.2727 -0.5122
18564TIP3   OH277182   0.285   0.161   1.444  0.5354  0.1058  0.0460
18564TIP3    H177183   0.308   0.254   1.448  2.5666 -0.3781  0.7599
18564TIP3    H277184   0.357   0.120   1.396 -1.2980 -0.8628 -2.0445
18565TIP3   OH277185   2.180   0.571   0.414  0.3349 -0.0396 -0.0833
18565TIP3    H177186   2.224   0.656   0.426  0.3122 -0.0854  0.3097
18565TIP3    H277187   2.111   0.589   0.351  1.0813 -0.0194 -0.9250
18566TIP3   OH277188   0.573   5.517  12.219 -0.2806  0.0667 -0.0507
18566TIP3    H177189   0.485   5.518  12.257 -0.3799  0.9602 -0.2874
18566TIP3    H277190   0.594   5.609  12.204  1.6555  0.0610  2.1645
18567TIP3   OH277191   3.901   5.826   3.946 -0.0480 -0.3696  0.3578
18567TIP3    H177192   3.939   5.914   3.945 -2.3190  0.6615  0.2947
18567TIP3    H277193   3.968   5.771   3.905  0.3544  1.8144 -2.1777
18568TIP3   OH277194   6.160   2.616   5.769  0.1577 -0.2383  0.1852
18568TIP3    H177195   6.164   2.663   5.853 -2.4036  1.2631 -0.4001
18568TIP3    H277196   6.129   2.529   5.792 -0.0794  0.0186  0.8714
18569TIP3   OH277197   0.727   0.621  16.864 -0.5377 -0.3282 -0.1413
18569TIP3    H177198   0.812   0.632  16.907 -0.8176  0.4760  0.2133
18569TIP3    H277199   0.669   0.591  16.933 -0.7690  0.0555 -0.1695
18570TIP3   OH277200   4.146   5.417  15.096  0.0152 -0.2748 -0.3164
18570TIP3    H177201   4.201   5.369  15.035 -2.0736 -2.6889 -0.4780
18570TIP3    H277202   4.199   5.426  15.175  1.8920  0.8108 -1.6129
18571TIP3   OH277203   5.585   2.012  13.859 -0.3305 -0.2880 -0.2963
18571TIP3    H177204   5.575   1.964  13.941  0.1386  2.1025  1.2463
18571TIP3    H277205   5.677   2.002  13.837 -0.0754  0.4384  0.4002
18572TIP3   OH277206   2.749   5.525  16.575  0.4919 -0.0808 -0.6336
18572TIP3    H177207   2.728   5.477  16.656 -0.1772  0.4533 -0.4738
18572TIP3    H277208   2.710   5.473  16.505  0.0913  0.0330 -0.4982
18573TIP3   OH277209   4.173   6.812  17.117  0.1978 -0.0301 -0.0741
18573TIP3    H177210   4.158   6.742  17.181  2.0224 -2.5808 -2.2283
18573TIP3    H277211   4.114   6.791  17.044  0.0059  1.3305 -0.3377
18574TIP3   OH277212   3.271   3.855  14.649  0.0556 -0.1010 -0.3823
18574TIP3    H177213   3.341   3.916  14.671 -0.1794 -0.0424  0.2460
18574TIP3    H277214   3.290   3.777  14.701 -0.6513  0.1304  0.2543
18575TIP3   OH277215   3.761   1.015  10.986  0.3523 -0.6690  0.0532
18575TIP3    H177216   3.719   1.066  10.916 -0.0187  0.7254  1.2447
18575TIP3    H277217   3.805   1.080  11.040 -0.3365 -1.5723  1.7826
18576TIP3   OH277218   0.264   1.005   2.461  0.6922 -0.1293  0.2706
18576TIP3    H177219   0.330   1.027   2.396 -0.0784 -1.1443 -0.9120
18576TIP3    H277220   0.312   0.957   2.529  1.4483  0.6456  0.2997
18577TIP3   OH277221   1.741   3.354  14.175 -0.2358 -0.3613  0.6099
18577TIP3    H177222   1.775   3.346  14.265  0.2214  0.5262  0.5334
18577TIP3    H277223   1.807   3.408  14.131 -2.2786  2.4578  0.7541
18578TIP3   OH277224   6.090   1.285   3.522 -0.1900 -0.5083  0.2174
18578TIP3    H177225   6.062   1.315   3.435  0.3165  0.6955  0.4518
18578TIP3    H277226   6.175   1.325   3.535 -0.1570 -0.8691  1.1873
18579TIP3   OH277227   5.849   5.350   5.070 -0.2682  0.2326 -0.0990
18579TIP3    H177228   5.860   5.299   5.150  1.2419 -0.2909 -0.5968
18579TIP3    H277229   5.759   5.331   5.042 -0.5137 -0.2849  0.9887
18580TIP3   OH277230   4.142   1.707  11.957 -0.1916 -0.3782  0.2957
18580TIP3    H177231   4.073   1.641  11.961  0.1942 -0.7347  1.4142
18580TIP3    H277232   4.169   1.708  11.866 -2.3019  0.4509 -0.3961
18581TIP3   OH277233   2.808   2.105  16.001  0.3156  0.6219 -0.5800
18581TIP3    H177234   2.722   2.114  16.041  0.1172 -0.9702 -0.5600
18581TIP3    H277235   2.814   2.012  15.979  1.6295  0.8967 -1.5001
18582TIP3   OH277236   1.051   1.600  14.657  0.5670  0.3897 -0.3347
18582TIP3    H177237   1.022   1.576  14.745  0.0417 -5.4766 -1.6414
18582TIP3    H277238   1.146   1.603  14.663  0.5384 -0.0526  0.4590
18583TIP3   OH277239   5.453   5.098  16.393 -0.1086 -0.0401  0.5944
18583TIP3    H177240   5.396   5.021  16.399  1.2902 -1.0176  3.0006
18583TIP3    H277241   5.524   5.071  16.334  0.0061 -0.3509  0.8706
18584TIP3   OH277242   0.486   2.355  16.455  0.4530  0.3018 -0.0469
18584TIP3    H177243   0.570   2.352  16.411  0.8137  1.2292  0.5366
18584TIP3    H277244   0.477   2.447  16.483 -1.8192  0.8289 -2.1554
18585TIP3   OH277245   4.900   1.051   2.096 -0.0748 -0.0224 -0.1651
18585TIP3    H177246   4.857   1.100   2.166  3.1245 -2.1158  3.6397
18585TIP3    H277247   4.993   1.050   2.120  0.7649 -3.6083 -2.6827
18586TIP3   OH277248   2.529   5.193  11.311 -0.3944 -0.0816 -0.5465
18586TIP3    H177249   2.568   5.117  11.267 -0.5368 -1.7147  1.9614
18586TIP3    H277250   2.459   5.157  11.365 -1.4609  2.0558 -0.4000
18587TIP3   OH277251   0.264   6.115   0.650 -0.1519 -0.0528  0.3163
18587TIP3    H177252   0.346   6.165   0.646  0.1893 -0.5318  1.1335
18587TIP3    H277253   0.283   6.043   0.710 -1.0596 -0.3898  0.2081
18588TIP3   OH277254   4.479   4.182   4.908  0.2352  0.6383  0.2689
18588TIP3    H177255   4.404   4.135   4.872  1.1118 -0.7921  0.2204
18588TIP3    H277256   4.442   4.239   4.975 -0.6337 -2.3670  2.5422
18589TIP3   OH277257   0.328   4.147   2.506  0.1670  0.5327  0.4148
18589TIP3    H177258   0.235   4.131   2.521 -0.0407  0.3120 -0.9662
18589TIP3    H277259   0.368   4.060   2.506 -0.1167  0.3367 -1.8146
18590TIP3   OH277260   5.544   5.048  10.643  0.0171 -0.5562 -0.5879
18590TIP3    H177261   5.612   5.108  10.613  2.3172 -1.8608  1.6385
18590TIP3    H277262   5.528   4.990  10.568  0.4491  0.5199 -1.5302
18591TIP3   OH277263   2.178   2.378   0.168 -0.4584  0.1668  0.0467
18591TIP3    H177264   2.226   2.428   0.234  0.2005  0.8161 -0.8903
18591TIP3    H277265   2.158   2.295   0.211 -0.2392  0.6520  1.1266
18592TIP3   OH277266   0.978   0.107   1.332 -0.3995 -0.3957  0.1919
18592TIP3    H177267   0.937   0.020   1.335 -2.1009  0.2987 -1.1411
18592TIP3    H277268   1.031   0.106   1.252  0.6492 -0.6091  0.8641
18593TIP3   OH277269   6.031   1.534  13.640 -0.0684 -0.1179  0.2358
18593TIP3    H177270   6.037   1.536  13.735  2.6434  1.0897  0.1455
18593TIP3    H277271   6.106   1.479  13.613 -0.1566  0.4340 -1.2134
18594TIP3   OH277272   2.395   0.706  12.219  0.6737 -0.2891  0.0215
18594TIP3    H177273   2.331   0.764  12.261  1.0581 -0.6563  1.1681
18594TIP3    H277274   2.401   0.631  12.279  1.3322 -0.7887 -0.6524
18595TIP3   OH277275   1.045   5.409  14.977 -0.7535  0.0674  0.2615
18595TIP3    H177276   1.089   5.432  14.895 -1.4526  1.5958  0.2721
18595TIP3    H277277   1.053   5.314  14.983  2.5368  0.2165  0.2818
18596TIP3   OH277278   4.427   2.527  11.556 -0.0099  0.1860 -0.3313
18596TIP3    H177279   4.514   2.519  11.518  0.2357 -0.2858  0.3122
18596TIP3    H277280   4.442   2.541  11.649 -0.6167 -0.4902 -0.1179
18597TIP3   OH277281   2.086   1.079  12.608 -0.4978  0.1160 -0.7818
18597TIP3    H177282   2.109   0.988  12.626 -1.8839 -0.1472 -0.2246
18597TIP3    H277283   2.169   1.126  12.614 -0.0024 -0.8576  0.6258
18598TIP3   OH277284   5.877   1.494  14.243 -0.2333 -0.4593 -1.0500
18598TIP3    H177285   5.830   1.419  14.282  0.8854 -1.1429 -0.9789
18598TIP3    H277286   5.839   1.502  14.155 -1.5417 -0.0182 -0.4779
18599TIP3   OH277287   5.363   4.997  11.320 -0.1293  0.3177 -0.3940
18599TIP3    H177288   5.326   4.919  11.362  1.8765 -1.1534 -1.1746
18599TIP3    H277289   5.288   5.055  11.307 -1.8737 -1.8250 -0.5533
18600TIP3   OH277290   6.070   3.306   3.479  0.3294  0.0300  0.0074
18600TIP3    H177291   6.155   3.309   3.522 -0.2096 -0.0257  1.1039
18600TIP3    H277292   6.030   3.225   3.510  0.6984 -1.0659 -2.1534
18601TIP3   OH277293   3.780   6.207  13.106 -0.1305  0.5591 -0.7543
18601TIP3    H177294   3.742   6.284  13.147  0.9815  0.3319  0.7790
18601TIP3    H277295   3.854   6.183  13.162 -0.7775 -1.9649 -0.8295
18602TIP3   OH277296   0.812   1.268   2.715  0.5418 -0.1440  0.1232
18602TIP3    H177297   0.905   1.250   2.703  0.3901 -0.3802 -0.7637
18602TIP3    H277298   0.806   1.304   2.803  1.1835 -2.1120  1.0108
18603TIP3   OH277299   4.587   5.298  14.379  0.6426 -0.4565  0.2648
18603TIP3    H177300   4.553   5.234  14.317  1.0970 -0.1807 -0.2831
18603TIP3    H277301   4.673   5.265  14.404  0.8336 -0.1226  0.0628
18604TIP3   OH277302   6.027   6.448  13.089 -0.3921 -0.8796  0.3747
18604TIP3    H177303   6.002   6.391  13.016 -1.8914 -0.2783  0.3654
18604TIP3    H277304   5.962   6.519  13.086  0.3909 -0.0922  1.4253
18605TIP3   OH277305   5.173   6.251  10.581 -0.3456  0.4944 -0.3869
18605TIP3    H177306   5.137   6.260  10.669  0.0278  2.1181 -0.3822
18605TIP3    H277307   5.097   6.245  10.524 -0.6746  2.7140 -0.2588
18606TIP3   OH277308   3.976   1.752  16.445  0.2064  0.4021  0.1480
18606TIP3    H177309   3.892   1.724  16.482  0.6232 -0.1983  0.6806
18606TIP3    H277310   4.022   1.792  16.519  0.5297  0.4059 -0.0527
18607TIP3   OH277311   2.930   1.267   4.765 -0.0117 -0.0627  0.1143
18607TIP3    H177312   3.023   1.267   4.787 -0.5967 -1.2669  3.0436
18607TIP3    H277313   2.927   1.236   4.675  2.3902 -0.5433  0.1326
18608TIP3   OH277314   4.667   4.004   4.083  0.4284  0.3303 -0.4243
18608TIP3    H177315   4.675   4.005   3.988 -1.7958  0.4436 -0.6586
18608TIP3    H277316   4.667   3.911   4.106  0.7002  0.2968 -0.5512
18609TIP3   OH277317   3.425   5.083   3.613 -0.2181  0.1823 -0.4321
18609TIP3    H177318   3.432   5.083   3.708 -0.1435 -0.1534 -0.4370
18609TIP3    H277319   3.495   5.141   3.584 -1.4952  1.9315 -0.2003
18610TIP3   OH277320   3.615   4.954  12.468 -0.1096  0.3778  0.8483
18610TIP3    H177321   3.613   4.874  12.520  1.3047  0.9213  1.8286
18610TIP3    H277322   3.639   5.022  12.531  0.7020  1.2309 -0.3386
18611TIP3   OH277323   1.740   6.529   1.655  0.4632  0.1853  0.9294
18611TIP3    H177324   1.803   6.575   1.599 -3.4770  0.8833 -3.5830
18611TIP3    H277325   1.695   6.599   1.703  0.7334  0.0148  1.4458
18612TIP3   OH277326   6.022   2.304  10.681  0.2665  0.6238 -0.6223
18612TIP3    H177327   6.006   2.210  10.676 -0.9815  0.8295 -0.9724
18612TIP3    H277328   6.090   2.321  10.615  2.4684 -0.3854  1.2693
18613TIP3   OH277329   0.637   5.747   3.057  0.7733  0.0165  0.2786
18613TIP3    H177330   0.711   5.694   3.026 -0.1962  0.0641 -2.4523
18613TIP3    H277331   0.560   5.694   3.034 -0.0944  0.7160  1.4945
18614TIP3   OH277332   4.872   0.452   4.240 -0.0584 -0.0707 -0.2583
18614TIP3    H177333   4.794   0.495   4.204  0.6312  0.8923 -0.6177
18614TIP3    H277334   4.896   0.506   4.315  1.1640  0.5282 -1.0636
18615TIP3   OH277335   0.642   2.621   5.207  0.3580  0.1873  0.4292
18615TIP3    H177336   0.639   2.710   5.172  0.2033  0.3080  0.7480
18615TIP3    H277337   0.582   2.571   5.150  1.8483 -0.1462 -0.9312
18616TIP3   OH277338   4.566   2.453   6.029  0.2756 -0.3403 -0.0936
18616TIP3    H177339   4.479   2.434   5.995  0.6800  1.4831 -2.3807
18616TIP3    H277340   4.552   2.513   6.102 -0.4371 -1.8029  1.0300
18617TIP3   OH277341   0.906   1.748   3.858 -0.3000  0.0568 -0.0460
18617TIP3    H177342   0.853   1.755   3.938 -0.8307  0.3062 -0.4165
18617TIP3    H277343   0.995   1.766   3.887 -0.7319  2.0885  0.1595
18618TIP3   OH277344   2.451   4.086  15.436 -0.4658 -0.3037  0.3337
18618TIP3    H177345   2.418   4.173  15.414  0.3464 -0.1275 -0.2503
18618TIP3    H277346   2.383   4.026  15.405 -1.1422  0.1273  0.9656
18619TIP3   OH277347   4.666   6.305   2.628  0.0561  0.2609  0.1874
18619TIP3    H177348   4.642   6.394   2.602  0.1939  0.5623  1.0641
18619TIP3    H277349   4.656   6.304   2.723  0.9394 -0.3950  0.2838
18620TIP3   OH277350   3.118   1.981  12.339  0.3082  0.1891 -0.0169
18620TIP3    H177351   3.144   1.893  12.311  0.0243  0.1399 -0.1212
18620TIP3    H277352   3.115   1.976  12.435 -0.8715 -0.2363 -0.0733
18621TIP3   OH277353   6.555   5.252   0.382  0.4558  0.1710  0.0447
18621TIP3    H177354   6.640   5.220   0.351  0.6757 -0.3016  1.0908
18621TIP3    H277355   6.552   5.227   0.474 -0.8727  0.0748 -0.0019
18622TIP3   OH277356   2.831   2.538  16.053  0.3817  0.1516 -0.2628
18622TIP3    H177357   2.924   2.556  16.042  0.1520  1.4733 -0.1553
18622TIP3    H277358   2.788   2.622  16.040 -0.6117  0.0766  2.1262
18623TIP3   OH277359   0.229   3.714   3.640 -0.4672 -0.0246  0.6013
18623TIP3    H177360   0.266   3.654   3.575 -0.5116 -0.1891  0.7272
18623TIP3    H277361   0.140   3.731   3.608  0.4756  2.3355 -1.0655
18624TIP3   OH277362   2.857   2.681  11.703 -0.1804  0.0778 -0.5889
18624TIP3    H177363   2.806   2.600  11.701  1.7001 -1.1583 -1.8206
18624TIP3    H277364   2.919   2.669  11.774 -0.1441  0.6273 -0.5197
18625TIP3   OH277365   4.122   0.842   1.484  0.1424  0.3252  0.0905
18625TIP3    H177366   4.170   0.841   1.402  0.4514 -0.5134  0.2671
18625TIP3    H277367   4.041   0.795   1.465 -0.1552  0.8418  0.0593
18626TIP3   OH277368   0.949   2.525   1.890 -0.1317  0.0387  0.1010
18626TIP3    H177369   0.936   2.454   1.827 -0.6293  0.0729  0.1611
18626TIP3    H277370   1.037   2.557   1.872  0.2484 -0.8452  0.3322
18627TIP3   OH277371   1.514   1.164   3.768 -0.1506  0.3040  0.2269
18627TIP3    H177372   1.448   1.095   3.766  1.1724 -1.0427  1.2122
18627TIP3    H277373   1.575   1.141   3.698  0.3947  0.3771  0.6741
18628TIP3   OH277374   2.409   1.462  13.115  0.0577 -0.8600 -0.3148
18628TIP3    H177375   2.422   1.556  13.127  0.4011 -0.6002 -2.3422
18628TIP3    H277376   2.353   1.455  13.038  1.1651 -2.3359 -1.0384
18629TIP3   OH277377   6.060   1.298  11.807 -0.1382  0.0456 -0.2000
18629TIP3    H177378   6.001   1.234  11.848 -2.5350 -0.0717 -3.4534
18629TIP3    H277379   6.111   1.246  11.745  2.5917  0.3997  1.5777
18630TIP3   OH277380   5.759   4.547  16.212  0.1448  0.1665  0.4498
18630TIP3    H177381   5.774   4.613  16.280  0.8208 -1.3288  1.8115
18630TIP3    H277382   5.733   4.598  16.135 -0.9517  1.8928  1.8877
18631TIP3   OH277383   3.092   4.683   0.440  0.2221 -0.0339 -0.2276
18631TIP3    H177384   3.059   4.616   0.380  0.5634 -0.9157  0.5531
18631TIP3    H277385   3.168   4.643   0.481  0.5068  0.8894  0.1585
18632TIP3   OH277386   2.293   4.982  14.389  0.0068  0.5212  0.1025
18632TIP3    H177387   2.314   4.960  14.299 -1.4460  2.0959 -0.6686
18632TIP3    H277388   2.198   4.974  14.396  0.2109 -1.1445  1.9823
18633TIP3   OH277389   2.094   2.397  14.464  0.6855  0.1672 -0.1403
18633TIP3    H177390   2.129   2.482  14.439 -0.9110  1.0269  0.4590
18633TIP3    H277391   2.157   2.334  14.428  2.2140  1.5911 -0.0798
18634TIP3   OH277392   4.406   4.793   6.897 -0.2608 -0.0719 -0.1185
18634TIP3    H177393   4.406   4.855   6.970  0.8026  1.5065 -1.3911
18634TIP3    H277394   4.493   4.802   6.858  0.6310 -3.7559  0.7125
18635TIP3   OH277395   6.722   5.037  15.648 -0.0721  0.3049 -0.3329
18635TIP3    H177396   6.663   5.019  15.574 -0.0260  0.0086 -0.2975
18635TIP3    H277397   6.784   4.964  15.647  0.0435  0.4019 -0.1172
18636TIP3   OH277398   0.810   6.324   5.545  0.0694  0.6588  0.3516
18636TIP3    H177399   0.804   6.229   5.534  0.9233  0.7183 -0.8089
18636TIP3    H277400   0.728   6.358   5.508 -0.1034  0.4074  0.4986
18637TIP3   OH277401   5.387   5.326   3.048 -0.6737  0.3750 -0.6511
18637TIP3    H177402   5.428   5.407   3.079 -2.0452  1.1573 -0.8447
18637TIP3    H277403   5.363   5.280   3.129  2.5244 -1.2203 -0.4168
18638TIP3   OH277404   1.741   0.533   3.667  0.3547 -0.4790 -0.0648
18638TIP3    H177405   1.670   0.526   3.730  1.4086 -0.0143  1.2205
18638TIP3    H277406   1.748   0.445   3.629  0.9025 -1.3181  1.8424
18639TIP3   OH277407   2.602   1.157  11.473  0.3284  0.9179  0.2219
18639TIP3    H177408   2.613   1.242  11.430 -0.4823  0.5447 -0.7794
18639TIP3    H277409   2.639   1.169  11.560 -0.0719  2.4006  0.2200
18640TIP3   OH277410   3.416   4.172  14.385 -0.1799 -0.6951  0.3189
18640TIP3    H177411   3.456   4.203  14.466  0.5088  0.9570 -0.6101
18640TIP3    H277412   3.468   4.095  14.360  0.0910 -0.7441  1.0309
18641TIP3   OH277413   5.332   1.845   1.289  0.1728  0.6080  0.4408
18641TIP3    H177414   5.250   1.866   1.245 -1.3885 -2.1402  1.7465
18641TIP3    H277415   5.331   1.749   1.297  3.1721  0.5441  1.1681
18642TIP3   OH277416   2.311   2.685  10.852  0.3315  0.4755 -0.3035
18642TIP3    H177417   2.345   2.720  10.934 -0.5337  0.4412  0.0715
18642TIP3    H277418   2.309   2.760  10.793 -1.1845  1.0040  0.3896
18643TIP3   OH277419   6.839   6.491   0.450 -0.2611 -0.1289  0.2528
18643TIP3    H177420   6.861   6.531   0.366  1.6662 -0.7125  0.4220
18643TIP3    H277421   6.748   6.464   0.440 -0.1527  0.0049 -1.5722
18644TIP3   OH277422   6.684   1.715  15.493  0.0312 -0.0633  0.1206
18644TIP3    H177423   6.774   1.739  15.514 -0.1654 -1.3323  2.9614
18644TIP3    H277424   6.686   1.620  15.485 -0.8927 -0.0203 -0.8132
18645TIP3   OH277425   4.891   2.480   2.929 -0.1754  0.2391  0.1353
18645TIP3    H177426   4.970   2.512   2.885 -0.2903  1.6778  0.9251
18645TIP3    H277427   4.887   2.387   2.906  0.4357  0.6674 -1.8545
18646TIP3   OH277428   3.368   2.064   2.594  0.4293 -0.7704 -0.0021
18646TIP3    H177429   3.297   2.059   2.530  1.4474  0.2288 -1.2738
18646TIP3    H277430   3.328   2.101   2.672 -0.8400 -1.9883 -0.0391
18647TIP3   OH277431   4.081   0.287   4.323 -0.8356 -0.0712 -0.4942
18647TIP3    H177432   4.140   0.313   4.252 -0.3067  0.4294  0.1111
18647TIP3    H277433   4.056   0.369   4.366 -0.2769 -0.4242  0.5617
18648TIP3   OH277434   0.799   6.096   0.260 -0.5863 -0.0262 -0.2214
18648TIP3    H177435   0.704   6.086   0.261 -0.7000  0.4515 -2.1348
18648TIP3    H277436   0.832   6.022   0.311 -1.9900  0.0364  0.8113
18649TIP3   OH277437   1.697   4.643   2.295 -1.0265 -0.2117  0.1464
18649TIP3    H177438   1.770   4.585   2.316 -1.9353 -1.0781  1.0330
18649TIP3    H277439   1.738   4.721   2.258  0.2891 -0.9922 -0.1043
18650TIP3   OH277440   4.524   0.345  11.595 -0.2346  0.1952 -0.1648
18650TIP3    H177441   4.591   0.358  11.663  2.4038  0.6115 -2.6461
18650TIP3    H277442   4.506   0.251  11.597  1.1654 -0.0905 -0.0179
18651TIP3   OH277443   3.373   3.662  12.999  0.0537  0.5350 -0.1473
18651TIP3    H177444   3.459   3.622  12.990 -0.1242  0.5082 -2.0406
18651TIP3    H277445   3.376   3.707  13.084  2.3898  1.6710 -0.7679
18652TIP3   OH277446   0.595   6.360  13.623 -0.5450 -0.6384  0.5027
18652TIP3    H177447   0.514   6.310  13.616  0.1579 -1.7129 -0.1501
18652TIP3    H277448   0.643   6.340  13.543 -0.9693  2.4395 -0.6481
18653TIP3   OH277449   3.731   0.025  16.629  0.4388 -0.3007 -0.2377
18653TIP3    H177450   3.682   0.063  16.702 -1.9222 -3.0710 -0.1755
18653TIP3    H277451   3.794  -0.034  16.671 -0.6777 -1.6264 -0.3620
18654TIP3   OH277452   5.296   5.977  10.545  0.3882 -0.2876  0.1213
18654TIP3    H177453   5.234   6.048  10.532 -0.6092 -0.9910  0.8323
18654TIP3    H277454   5.353   6.006  10.616  0.3499  0.0266  0.0231
18655TIP3   OH277455   4.829   2.482  11.802  0.1854  0.1760  0.0625
18655TIP3    H177456   4.862   2.491  11.713  0.0655 -1.6248 -0.2000
18655TIP3    H277457   4.908   2.467  11.855  0.4840  3.1292  0.6345
18656TIP3   OH277458   5.312   4.017  15.658  0.2157  0.3035 -0.3876
18656TIP3    H177459   5.358   4.000  15.575 -1.6812 -3.0691 -0.9110
18656TIP3    H277460   5.238   4.072  15.633  0.0650 -0.0875 -0.8363
18657TIP3   OH277461   3.311   3.207  13.563  0.1519  0.1747 -0.1331
18657TIP3    H177462   3.338   3.164  13.482  0.6932  0.2097  0.0213
18657TIP3    H277463   3.224   3.173  13.581 -0.3940  0.9344 -1.2647
18658TIP3   OH277464   5.998   4.987   4.933 -0.1620  0.1818  0.0541
18658TIP3    H177465   6.044   4.911   4.967 -2.0830 -0.7449  0.7480
18658TIP3    H277466   5.905   4.968   4.948 -0.8914  1.4056 -2.3477
18659TIP3   OH277467   1.212   4.676   4.652 -0.2608  0.7558 -0.2073
18659TIP3    H177468   1.210   4.582   4.671 -1.1665  0.9603  0.8546
18659TIP3    H277469   1.303   4.702   4.666 -0.6866  0.7784  3.6539
18660TIP3   OH277470   4.952   1.293  14.750  0.1736 -0.7349  0.3906
18660TIP3    H177471   4.868   1.255  14.777 -1.8135  2.3976 -0.8348
18660TIP3    H277472   4.942   1.387  14.763  3.2370 -0.1458 -0.6022
18661TIP3   OH277473   2.096   2.780  11.482  0.2039  0.1929 -0.1389
18661TIP3    H177474   2.039   2.848  11.449 -0.1567 -0.1415 -0.2135
18661TIP3    H277475   2.179   2.824  11.500 -0.8598  1.2873  2.6145
18662TIP3   OH277476   2.070   0.932  13.399  0.2819  0.0187 -0.4150
18662TIP3    H177477   2.078   0.982  13.481 -0.7742  1.4569 -1.1466
18662TIP3    H277478   2.013   0.858  13.423  1.9271 -0.9704  0.6965
18663TIP3   OH277479   3.004   3.865   2.042 -0.3260 -0.0248  0.0928
18663TIP3    H177480   2.996   3.794   1.979  1.4953  1.0914 -1.4919
18663TIP3    H277481   3.033   3.940   1.990  3.2692  0.4684  2.4752
18664TIP3   OH277482   4.690   6.546  12.774 -0.0426 -0.1651 -0.2338
18664TIP3    H177483   4.625   6.591  12.719  1.5259  1.8563 -0.5376
18664TIP3    H277484   4.767   6.602  12.770  1.6681 -2.3750  0.3203
18665TIP3   OH277485   1.661   4.567   4.706 -0.3814 -0.3189  0.2443
18665TIP3    H177486   1.745   4.532   4.678 -0.8365 -1.0414 -0.2488
18665TIP3    H277487   1.674   4.591   4.798  0.8396  1.1205 -0.2661
18666TIP3   OH277488   2.768   4.456  11.580 -0.5775 -0.3204  0.3518
18666TIP3    H177489   2.748   4.364  11.597 -1.7168  0.3182  2.8106
18666TIP3    H277490   2.693   4.488  11.530 -0.2699 -0.6451 -0.3365
18667TIP3   OH277491   3.854   1.501  11.132 -0.3043 -0.4126 -0.3698
18667TIP3    H177492   3.787   1.569  11.131  1.8139  1.8472  0.1162
18667TIP3    H277493   3.907   1.520  11.210  1.6946 -1.2275 -1.4458
18668TIP3   OH277494   0.085   5.302   4.847  0.2714 -0.3609  0.7530
18668TIP3    H177495   0.180   5.311   4.831  0.0828 -0.4403 -0.5686
18668TIP3    H277496   0.045   5.358   4.780 -0.6206  0.1695  1.7076
18669TIP3   OH277497   4.308   4.033   5.272 -0.3983 -0.4418  0.4434
18669TIP3    H177498   4.234   4.009   5.328 -2.0255  1.5092 -0.7535
18669TIP3    H277499   4.329   4.123   5.298  0.5642 -0.4407 -0.2925
18670TIP3   OH277500   3.550   4.684  16.165  0.4748 -0.6090 -0.1657
18670TIP3    H177501   3.574   4.775  16.182 -0.7742 -0.2005 -0.4259
18670TIP3    H277502   3.471   4.690  16.110 -0.2222 -1.8256  0.6423
18671TIP3   OH277503   4.772   1.906  14.794 -0.3849  0.6178  0.8343
18671TIP3    H177504   4.785   1.816  14.822  0.0598 -0.0977 -1.4220
18671TIP3    H277505   4.837   1.956  14.842  0.1260 -0.4433  1.2868
18672TIP3   OH277506   2.866   3.329  13.424 -0.3665 -0.2861  0.2364
18672TIP3    H177507   2.937   3.315  13.487 -0.9140 -0.5479  0.8106
18672TIP3    H277508   2.841   3.241  13.397  1.4810 -0.1290 -2.2254
18673TIP3   OH277509   5.937   4.395   4.240 -0.1110 -0.6004 -0.0006
18673TIP3    H177510   5.967   4.486   4.231 -2.1718  0.0206 -1.4879
18673TIP3    H277511   5.963   4.353   4.159  1.2952 -1.5315  0.9000
18674TIP3   OH277512   1.073   1.870  12.471 -0.0388 -0.6377 -0.4958
18674TIP3    H177513   1.050   1.963  12.471 -0.6426 -0.7603 -1.8705
18674TIP3    H277514   1.145   1.864  12.408  0.0961 -1.0980 -0.3018
18675TIP3   OH277515   0.425   3.042  13.245 -0.0940  0.1248  0.6541
18675TIP3    H177516   0.435   2.975  13.313  2.3165 -0.0786  0.2005
18675TIP3    H277517   0.514   3.075  13.230 -0.2612 -0.6255 -3.1437
18676TIP3   OH277518   0.553   3.616   2.498 -0.1536 -0.5135  0.2495
18676TIP3    H177519   0.620   3.612   2.430 -0.2916 -1.1915  0.1506
18676TIP3    H277520   0.601   3.607   2.580 -0.1191 -0.9485  0.1812
18677TIP3   OH277521   3.932   2.938  16.327  0.2768 -0.0711 -0.4652
18677TIP3    H177522   3.917   3.025  16.292 -0.2351  0.8606  1.8929
18677TIP3    H277523   3.855   2.887  16.302 -0.0963  0.5702 -0.6176
18678TIP3   OH277524   3.943   4.298   6.378  0.1020 -0.1193  0.3298
18678TIP3    H177525   3.955   4.224   6.438  0.4827  0.6492  1.2282
18678TIP3    H277526   3.850   4.321   6.388  0.5867  1.2658  2.1860
18679TIP3   OH277527   3.314   0.348   5.439 -0.3548 -0.6124  0.3273
18679TIP3    H177528   3.306   0.301   5.356 -1.1827  0.8346 -0.4673
18679TIP3    H277529   3.360   0.429   5.415  0.7929 -0.8491  1.5938
18680TIP3   OH277530   4.742   6.680   1.235  0.1392 -0.4977 -0.4116
18680TIP3    H177531   4.787   6.606   1.276  0.6101 -1.4966 -2.5606
18680TIP3    H277532   4.756   6.667   1.141 -0.5203  1.8662 -0.9055
18681TIP3   OH277533   4.262   3.713  13.250  0.2085 -0.0334 -0.3404
18681TIP3    H177534   4.270   3.666  13.166 -0.5442  0.6687 -0.8191
18681TIP3    H277535   4.173   3.695  13.279  0.9508 -1.6181  1.1674
18682TIP3   OH277536   2.327   3.930  12.119 -0.0916  0.3092 -0.6118
18682TIP3    H177537   2.317   3.839  12.148 -0.6002  0.3502 -0.6342
18682TIP3    H277538   2.395   3.967  12.175  0.8159 -0.3531 -1.2448
18683TIP3   OH277539   2.740   3.460  15.679  0.5072  0.2194  0.1110
18683TIP3    H177540   2.756   3.376  15.723 -1.1883 -1.3173 -1.9996
18683TIP3    H277541   2.795   3.458  15.601  1.6355  1.8239  0.8148
18684TIP3   OH277542   0.220   3.417   4.244  0.0886 -0.1539 -0.5863
18684TIP3    H177543   0.222   3.497   4.192 -1.1484  0.4379  0.2283
18684TIP3    H277544   0.297   3.423   4.300 -1.1369  1.5844  1.0168
18685TIP3   OH277545   2.940   5.045   1.644 -0.3516  0.3786 -0.1344
18685TIP3    H177546   2.951   5.012   1.555  1.1196  0.6184 -0.0650
18685TIP3    H277547   3.002   5.118   1.651  0.1748 -0.1715  1.3383
18686TIP3   OH277548   6.771   0.334  12.258  0.3458  0.0764 -0.1171
18686TIP3    H177549   6.825   0.399  12.302 -0.1447 -0.0823  0.7508
18686TIP3    H277550   6.694   0.383  12.228  0.1385 -0.0313  0.2320
18687TIP3   OH277551   4.483   3.305  13.558  0.1053  0.4497  0.2873
18687TIP3    H177552   4.456   3.251  13.484 -2.3765  1.0068  0.6773
18687TIP3    H277553   4.452   3.258  13.635  2.8178 -0.2140  1.0752
18688TIP3   OH277554   4.111   3.663   5.320  0.3173  0.1796  0.3579
18688TIP3    H177555   4.163   3.585   5.338 -0.8167 -0.5413  0.6078
18688TIP3    H277556   4.037   3.657   5.380 -0.7402  0.5051 -0.8636
18689TIP3   OH277557   5.864   4.646  11.985  0.3407  0.3133 -0.2360
18689TIP3    H177558   5.789   4.678  12.035  1.5388  0.5259  1.5508
18689TIP3    H277559   5.901   4.724  11.943 -0.0820  0.3091 -0.6151
18690TIP3   OH277560   0.161   0.967  16.781  0.1202 -0.1102  0.1612
18690TIP3    H177561   0.075   0.925  16.771  0.7028 -1.0926 -0.9006
18690TIP3    H277562   0.223   0.903  16.748  1.2695  0.6573  0.7695
18691TIP3   OH277563   6.250   2.714   0.612  1.2418  0.2462 -0.0186
18691TIP3    H177564   6.250   2.803   0.649 -0.7462  1.1291 -1.8756
18691TIP3    H277565   6.234   2.728   0.518 -0.8614 -2.1318 -0.1002
18692TIP3   OH277566   3.270   1.600  12.661  0.5803  0.4083  0.6165
18692TIP3    H177567   3.293   1.612  12.753 -0.3939  0.1501  0.9099
18692TIP3    H277568   3.290   1.508  12.643 -1.6650 -0.3014  1.3515
18693TIP3   OH277569   0.424   3.063   3.701  0.1247  0.4736 -0.0431
18693TIP3    H177570   0.444   3.146   3.743  2.3438  0.4961 -1.0183
18693TIP3    H277571   0.437   3.079   3.608 -1.8963 -0.3360 -0.5152
18694TIP3   OH277572   0.987   3.880  11.490  0.0670 -0.2615 -0.0665
18694TIP3    H177573   0.909   3.910  11.444 -1.3971  1.2254  3.0654
18694TIP3    H277574   0.965   3.792  11.520  0.0444 -0.2859 -0.1547
18695TIP3   OH277575   5.481   1.109  13.742  0.0325 -0.4895  0.3134
18695TIP3    H177576   5.531   1.039  13.784  1.3429 -0.2994 -0.8279
18695TIP3    H277577   5.527   1.125  13.659 -0.2767  1.6411  0.4735
18696TIP3   OH277578   2.578   5.366   5.915 -0.0391 -0.5953 -0.0824
18696TIP3    H177579   2.554   5.455   5.890 -1.6009 -1.2714 -1.1783
18696TIP3    H277580   2.651   5.344   5.856  1.5571  0.5118  1.3812
18697TIP3   OH277581   0.095   2.196  15.125 -0.0957  0.0967  0.4167
18697TIP3    H177582   0.191   2.197  15.120  0.0526 -1.5521  1.8214
18697TIP3    H277583   0.070   2.288  15.117  1.3476  0.3460 -2.9494
18698TIP3   OH277584   2.027   3.054  16.360 -0.0885  0.6152  0.2219
18698TIP3    H177585   1.950   3.007  16.329  0.1588  0.0495  0.4426
18698TIP3    H277586   2.092   2.985  16.376 -0.3882  0.7886  2.5609
18699TIP3   OH277587   0.362   0.767  14.410  0.1465  0.3826 -0.1867
18699TIP3    H177588   0.281   0.762  14.459 -0.0962  0.2640 -0.5946
18699TIP3    H277589   0.362   0.856  14.374 -0.7975 -0.2443 -1.8546
18700TIP3   OH277590   1.809   1.352  13.027  0.4585  0.3001  0.5371
18700TIP3    H177591   1.740   1.391  12.974  0.1737 -1.1695 -0.2210
18700TIP3    H277592   1.889   1.396  12.997 -0.0751  1.7924  1.2070
18701TIP3   OH277593   5.218   6.512   5.384  0.4275 -0.2683 -0.2142
18701TIP3    H177594   5.184   6.452   5.317  0.1513  1.8689 -2.1272
18701TIP3    H277595   5.310   6.487   5.394  0.4608 -0.6771 -1.3620
18702TIP3   OH277596   0.019   5.801  11.265 -0.2603  0.4648 -0.0465
18702TIP3    H177597   0.062   5.793  11.350 -0.4465  3.0386  0.3480
18702TIP3    H277598   0.077   5.856  11.213  0.1210 -1.5152 -1.8437
18703TIP3   OH277599   1.587   4.117  15.109  0.0852  0.2387 -0.0425
18703TIP3    H177600   1.508   4.155  15.148  0.2514  0.9300 -0.3662
18703TIP3    H277601   1.629   4.190  15.064 -1.2641 -0.8944 -3.4853
18704TIP3   OH277602   3.865   4.459  12.258 -0.1549 -0.2306  0.2187
18704TIP3    H177603   3.817   4.379  12.235  0.9808 -0.7479 -0.4720
18704TIP3    H277604   3.812   4.530  12.223  0.5470 -0.8979 -2.4215
18705TIP3   OH277605   6.831   6.552  16.831 -0.3791  0.0959 -0.3921
18705TIP3    H177606   6.749   6.510  16.804 -0.5007  1.4293 -2.3986
18705TIP3    H277607   6.873   6.576  16.748  0.9135  1.5141  0.6233
18706TIP3   OH277608   3.921   0.821   5.933 -0.0768  0.6433 -0.4450
18706TIP3    H177609   3.929   0.864   6.019 -1.3274 -2.5522  1.4520
18706TIP3    H277610   4.000   0.767   5.927 -1.0036 -0.7528 -0.2893
18707TIP3   OH277611   2.040   5.190   4.127  0.2384 -0.0781  0.0695
18707TIP3    H177612   2.107   5.212   4.192 -0.2752 -0.3799  0.7120
18707TIP3    H277613   1.989   5.270   4.117  0.7587  0.1840 -0.4986
18708TIP3   OH277614   1.506   4.289   4.043 -1.1386 -0.2240 -0.3530
18708TIP3    H177615   1.455   4.324   3.970 -0.4448  0.3158 -0.5953
18708TIP3    H277616   1.581   4.349   4.051  0.4803 -2.0012 -1.2262
18709TIP3   OH277617   1.110   2.104  11.620  0.0598  0.0059 -0.0230
18709TIP3    H177618   1.087   2.078  11.531 -1.2755 -0.1758  0.3547
18709TIP3    H277619   1.036   2.157  11.650 -0.0029 -0.8020  1.3409
18710TIP3   OH277620   6.111   4.253  14.244 -0.1814 -0.3101 -0.3410
18710TIP3    H177621   6.063   4.258  14.162 -1.4319  0.0572  0.3968
18710TIP3    H277622   6.078   4.175  14.287 -1.1318  0.6636  0.7680
18711TIP3   OH277623   6.387   2.924  13.826  0.4455 -0.0480  0.0322
18711TIP3    H177624   6.427   3.011  13.832  1.9387 -0.7351  0.7894
18711TIP3    H277625   6.456   2.869  13.790 -0.4943 -0.9188 -0.4764
18712TIP3   OH277626   3.291   3.487  15.774 -0.0894 -0.8345  0.0567
18712TIP3    H177627   3.242   3.416  15.734  1.7738 -1.6668 -0.8550
18712TIP3    H277628   3.277   3.476  15.868 -0.7520 -1.7043 -0.1413
18713TIP3   OH277629   4.665   3.271  13.251 -0.3486 -0.4058  0.4582
18713TIP3    H177630   4.597   3.255  13.186 -0.9729  0.0077  0.9977
18713TIP3    H277631   4.666   3.192  13.305 -1.1818  0.0345  1.1327
18714TIP3   OH277632   4.167   4.051  13.166  0.2891  0.0811  0.5915
18714TIP3    H177633   4.212   3.967  13.174  1.3218  0.7585  3.1443
18714TIP3    H277634   4.238   4.115  13.155 -0.4236  0.6982 -0.5667
18715TIP3   OH277635   0.489   2.211  12.906 -0.4538  1.1430  0.6548
18715TIP3    H177636   0.552   2.145  12.938 -0.8612  1.7079  2.7896
18715TIP3    H277637   0.530   2.295  12.928  0.0277  1.6775 -1.9816
18716TIP3   OH277638   1.776   2.512  15.718  0.6796  0.2599  0.2032
18716TIP3    H177639   1.725   2.556  15.650 -0.2772 -1.6074 -0.3430
18716TIP3    H277640   1.866   2.517  15.687  0.4030  0.5362 -0.5729
18717TIP3   OH277641   3.177   0.321   4.076 -0.0789  0.3655 -0.2198
18717TIP3    H177642   3.133   0.314   3.991 -0.1132 -0.8997 -0.1116
18717TIP3    H277643   3.105   0.323   4.140 -0.0201 -1.1219 -0.0803
18718TIP3   OH277644   4.779   2.618  15.331  0.0696  0.6256 -0.2719
18718TIP3    H177645   4.700   2.563  15.332  1.2876 -1.2167 -0.4317
18718TIP3    H277646   4.749   2.703  15.363 -2.1660  0.2657 -1.2164
18719TIP3   OH277647   3.756   6.455   4.480  0.2265 -0.2595  0.0249
18719TIP3    H177648   3.691   6.385   4.493 -1.9132  1.7929  1.2200
18719TIP3    H277649   3.828   6.432   4.539 -0.5811 -1.3001  0.6499
18720TIP3   OH277650   4.803   6.048  14.294  0.2774  0.0768  0.2008
18720TIP3    H177651   4.858   5.984  14.249  0.5058  1.4854 -1.6372
18720TIP3    H277652   4.815   6.129  14.245 -3.2012  0.5564 -0.1371
18721TIP3   OH277653   2.418   5.145   1.470 -0.5334  0.2419  0.2729
18721TIP3    H177654   2.402   5.136   1.376 -0.6067  0.5673  0.2532
18721TIP3    H277655   2.356   5.085   1.510 -2.0242  1.6467  0.2080
18722TIP3   OH277656   5.087   0.102   4.041 -0.4174  0.2371 -0.1996
18722TIP3    H177657   5.006   0.136   4.002 -0.3151 -0.7902 -1.3908
18722TIP3    H277658   5.100   0.154   4.120 -0.5433  2.5807 -1.6204
18723TIP3   OH277659   2.566   2.954  11.301 -0.5270 -0.2232 -0.4354
18723TIP3    H177660   2.542   2.936  11.392 -0.9510  0.2838 -0.4365
18723TIP3    H277661   2.636   3.019  11.307 -0.9827  0.2844 -0.4709
18724TIP3   OH277662   3.178   1.860   0.117 -0.4920 -0.1365 -0.4264
18724TIP3    H177663   3.237   1.918   0.069  0.2146 -0.2652  0.2744
18724TIP3    H277664   3.234   1.813   0.178 -1.5530  1.1940  1.6905
18725TIP3   OH277665   6.825   1.142  14.582 -0.0557 -0.1980 -0.3134
18725TIP3    H177666   6.862   1.161  14.668  0.5558  0.7920 -0.7844
18725TIP3    H277667   6.899   1.149  14.522 -0.7899  0.7845 -1.1348
18726TIP3   OH277668   5.337   3.429   5.467 -0.2844 -0.0487 -0.4281
18726TIP3    H177669   5.251   3.389   5.452 -0.8665  0.9993  0.0191
18726TIP3    H277670   5.319   3.505   5.522  0.9050  0.3184 -0.5182
18727TIP3   OH277671   4.033   3.214   4.944 -0.1185  0.0213  0.3026
18727TIP3    H177672   4.085   3.269   5.001  0.6103 -0.1156 -0.2111
18727TIP3    H277673   4.076   3.129   4.947 -0.8577 -0.3532  0.5886
18728TIP3   OH277674   0.934   6.371  11.150  0.3749  0.5175 -0.3731
18728TIP3    H177675   0.858   6.374  11.092 -0.1826  0.8999  0.3508
18728TIP3    H277676   1.001   6.424  11.106  0.0344  0.6241 -0.7644
18729TIP3   OH277677   3.497   2.720   2.257 -0.1195  0.0373 -0.0760
18729TIP3    H177678   3.425   2.739   2.316 -0.1152 -2.5121  0.8893
18729TIP3    H277679   3.559   2.670   2.310 -0.7438 -3.5999 -2.4358
18730TIP3   OH277680   2.240   5.365   2.346 -0.3848  0.0796  0.0699
18730TIP3    H177681   2.243   5.270   2.336 -0.3148  0.1112 -0.2317
18730TIP3    H277682   2.300   5.383   2.418 -0.1649 -0.0795 -0.0699
18731TIP3   OH277683   5.800   0.672  12.920  0.1589 -0.2325  0.6673
18731TIP3    H177684   5.888   0.696  12.891 -0.3451 -0.2896 -0.9547
18731TIP3    H277685   5.794   0.708  13.009  1.6593  0.1356  0.6496
18732TIP3   OH277686   5.070   0.209  11.216  0.2687  0.0056 -0.1172
18732TIP3    H177687   5.075   0.176  11.306  0.6735  0.1005 -0.1027
18732TIP3    H277688   5.007   0.151  11.173  0.5528 -0.4478  0.0601
18733TIP3   OH277689   1.201   2.313  15.936 -0.6462  0.3171  0.0775
18733TIP3    H177690   1.213   2.334  16.028 -0.6677  1.1480 -0.0974
18733TIP3    H277691   1.201   2.398  15.892  1.2921 -0.1462 -0.9261
18734TIP3   OH277692   0.017   4.183  11.992  0.0608  0.4752  0.1149
18734TIP3    H177693   0.058   4.099  11.968  0.6543  0.6990  0.3211
18734TIP3    H277694   0.087   4.247  11.980 -1.0223  1.2909 -2.2618
18735TIP3   OH277695   3.187   6.197  14.291 -0.0234 -0.1025  0.1379
18735TIP3    H177696   3.210   6.229  14.203  0.1307  0.1578  0.2713
18735TIP3    H277697   3.240   6.118  14.302 -0.2511 -0.2897 -0.1133
18736TIP3   OH277698   3.985   2.912   4.885  0.1767 -0.3030 -0.5995
18736TIP3    H177699   4.075   2.887   4.908 -0.2279 -1.3669 -0.1093
18736TIP3    H277700   3.936   2.830   4.888 -1.2119  0.5425  1.0118
18737TIP3   OH277701   0.086   0.276   1.078 -0.7113 -0.0010 -0.3059
18737TIP3    H177702   0.029   0.262   1.154 -0.2766  0.7507  0.1669
18737TIP3    H277703   0.059   0.362   1.044 -1.2331 -0.5376 -1.3058
18738TIP3   OH277704   3.206   2.896   0.213  0.2083  0.0539  0.1878
18738TIP3    H177705   3.243   2.978   0.181 -0.5963 -0.2030 -1.5277
18738TIP3    H277706   3.176   2.916   0.302  0.2219  1.5481 -0.1157
18739TIP3   OH277707   0.298   6.557   0.094 -0.1394  0.0497  0.2152
18739TIP3    H177708   0.281   6.533   0.002  1.1616  1.4240 -0.4198
18739TIP3    H277709   0.357   6.489   0.125 -3.2047 -2.4294  1.1970
18740TIP3   OH277710   1.971   1.127  14.957 -0.0634  0.6445 -0.2448
18740TIP3    H177711   2.048   1.135  14.900  1.6744 -1.2003  1.7096
18740TIP3    H277712   1.996   1.171  15.038  0.3693 -2.7335  1.6556
18741TIP3   OH277713   3.220   1.743  12.197 -0.2391 -0.1046  0.8076
18741TIP3    H177714   3.310   1.776  12.197 -0.4385  0.5043 -0.0461
18741TIP3    H277715   3.214   1.686  12.273  0.5393  0.7572  1.5307
18742TIP3   OH277716   4.845   0.528  12.784  0.6140  0.0585 -0.5210
18742TIP3    H177717   4.941   0.527  12.786  0.6113 -0.0971  1.8846
18742TIP3    H277718   4.820   0.453  12.838 -0.8531  1.0881  0.2740
18743TIP3   OH277719   4.110   0.731   2.856 -0.2603  0.2216  0.0546
18743TIP3    H177720   4.041   0.684   2.903 -0.0087 -0.9307 -0.6935
18743TIP3    H277721   4.064   0.781   2.789 -0.4995  0.7324  0.5986
18744TIP3   OH277722   4.425   4.129  16.954 -0.5621  0.3798 -0.6693
18744TIP3    H177723   4.508   4.125  17.001 -1.4552  2.0560  1.1696
18744TIP3    H277724   4.382   4.209  16.985 -2.6589 -0.1454 -1.9419
18745TIP3   OH277725   4.754   4.913   2.805 -0.2691 -0.0661 -0.4772
18745TIP3    H177726   4.660   4.908   2.787  0.1825 -2.1193 -2.7405
18745TIP3    H277727   4.762   4.886   2.897 -1.8993  0.3441 -0.1856
18746TIP3   OH277728   0.075   1.984   5.119 -0.1412  0.6319  0.6299
18746TIP3    H177729   0.021   2.044   5.068  0.2535  0.8285  0.4438
18746TIP3    H277730   0.158   2.030   5.131  0.3510 -0.0850  0.0377
18747TIP3   OH277731   0.561   5.648   1.035  0.3729  0.2897  0.0515
18747TIP3    H177732   0.495   5.582   1.016  0.2501  0.3186  0.3605
18747TIP3    H277733   0.563   5.651   1.131  1.3289 -0.2259  0.0575
18748TIP3   OH277734   2.765   3.372  15.326  0.1127  1.4390  0.1210
18748TIP3    H177735   2.691   3.318  15.353  0.5506  0.0577 -1.3158
18748TIP3    H277736   2.725   3.449  15.285 -0.5337  0.9874 -0.1047
18749TIP3   OH277737   1.381   3.730   0.100 -0.5744  0.0551  0.7827
18749TIP3    H177738   1.321   3.797   0.132 -1.0952 -0.7625  1.5885
18749TIP3    H277739   1.383   3.741   0.005 -1.2534  0.7028  0.8440
18750TIP3   OH277740   3.955   2.136   3.630  0.1704 -0.1921  0.2036
18750TIP3    H177741   4.002   2.100   3.705  0.2924 -0.1344  0.1541
18750TIP3    H277742   3.865   2.104   3.641 -0.1509  0.9395  1.1293
18751TIP3   OH277743   3.699   1.014  14.600  0.0610 -0.3876  0.1628
18751TIP3    H177744   3.714   1.073  14.526 -0.1106  0.7841  1.0341
18751TIP3    H277745   3.607   0.987  14.590 -0.9897  2.2704  1.6115
18752TIP3   OH277746   1.872   1.294   5.897 -0.4390  0.1401 -0.0353
18752TIP3    H177747   1.833   1.364   5.950 -0.0264  0.3865 -0.0516
18752TIP3    H277748   1.948   1.265   5.947 -0.6958 -0.4094  0.0458
18753TIP3   OH277749   2.154   4.309   4.076 -0.3320  0.0132 -0.0545
18753TIP3    H177750   2.246   4.321   4.100 -0.4870  1.9149 -0.3263
18753TIP3    H277751   2.158   4.264   3.991  0.4278  1.9601 -1.1033
18754TIP3   OH277752   3.984   4.658   3.600 -0.3186  0.2972 -0.6487
18754TIP3    H177753   4.072   4.619   3.603 -1.6394 -3.0737 -1.0723
18754TIP3    H277754   3.951   4.650   3.689 -1.1186 -0.9695 -1.0354
18755TIP3   OH277755   1.591   2.842   4.311 -0.6523  0.5115  0.0691
18755TIP3    H177756   1.524   2.819   4.246  1.7077 -0.8208 -2.0584
18755TIP3    H277757   1.594   2.938   4.308 -0.3816  0.5016 -2.1503
18756TIP3   OH277758   0.432   1.980   4.226  0.2479  0.4986  0.3673
18756TIP3    H177759   0.516   1.964   4.269  0.7665 -1.7091 -1.2619
18756TIP3    H277760   0.383   1.899   4.240 -1.5096  1.6154  0.9655
18757TIP3   OH277761   1.091   6.732   3.660 -0.0767  0.5652  0.0991
18757TIP3    H177762   1.020   6.776   3.615  0.5291  0.7326 -0.7032
18757TIP3    H277763   1.123   6.797   3.723 -0.8625  0.3605  0.7334
18758TIP3   OH277764   3.122   0.153   1.214  0.2995  0.6669 -0.3235
18758TIP3    H177765   3.068   0.078   1.188  1.3146 -0.3378  0.3624
18758TIP3    H277766   3.082   0.184   1.295 -0.0023  0.7411 -0.4996
18759TIP3   OH277767   2.667   3.894   4.565  0.0614  0.3559  0.2279
18759TIP3    H177768   2.587   3.850   4.590  0.0011  0.4829  0.2595
18759TIP3    H277769   2.642   3.950   4.491  0.4686 -0.8565 -0.8753
18760TIP3   OH277770   6.566   5.004   6.090  0.0863 -0.3644  0.2113
18760TIP3    H177771   6.583   4.931   6.149 -2.0670 -0.6653  0.5246
18760TIP3    H277772   6.471   5.015   6.090  0.2909  2.2291 -0.0926
18761TIP3   OH277773   1.117   5.516   2.450 -0.0511 -0.2051 -0.7648
18761TIP3    H177774   1.088   5.434   2.489  1.9685 -1.1070 -1.0148
18761TIP3    H277775   1.078   5.517   2.363 -0.4091 -0.6912 -0.6126
18762TIP3   OH277776   0.421   5.815  16.309 -0.4165 -0.1484  0.4930
18762TIP3    H177777   0.485   5.884  16.290 -0.8589 -0.4163 -2.4855
18762TIP3    H277778   0.459   5.767  16.383  1.0448  1.8327  1.1073
18763TIP3   OH277779   3.326   4.985   1.141  0.4441  0.1161  0.0808
18763TIP3    H177780   3.259   5.018   1.082  0.6132  0.2532 -0.0349
18763TIP3    H277781   3.357   4.904   1.099  0.1951 -0.0678  0.2467
18764TIP3   OH277782   5.197   2.294  14.566  0.9581 -0.5985 -0.3342
18764TIP3    H177783   5.230   2.238  14.497  0.2397  0.4859 -1.6147
18764TIP3    H277784   5.103   2.304  14.547  1.1234  1.3213 -0.4177
18765TIP3   OH277785   1.886   3.072   1.763 -0.3746 -0.3986  0.1516
18765TIP3    H177786   1.795   3.084   1.736  0.1067 -0.3683 -1.5860
18765TIP3    H277787   1.935   3.140   1.717  0.5377 -0.3520  1.1259
18766TIP3   OH277788   6.006   5.657   2.223 -0.5187 -0.1876 -0.3739
18766TIP3    H177789   6.051   5.637   2.306 -0.2500 -0.6303 -0.6202
18766TIP3    H277790   6.016   5.751   2.213  0.0598 -0.2324 -0.2515
18767TIP3   OH277791   5.041   0.515   2.622 -0.3470 -0.2800 -0.4335
18767TIP3    H177792   4.953   0.480   2.638  0.0096 -1.4328 -0.8504
18767TIP3    H277793   5.089   0.441   2.584  1.0492  0.0623  0.5705
18768TIP3   OH277794   0.861   6.329   6.513 -0.3242  0.0683 -0.1693
18768TIP3    H177795   0.866   6.292   6.425 -1.5526  0.6569 -0.5148
18768TIP3    H277796   0.771   6.311   6.542  0.5803 -1.7749  1.7594
18769TIP3   OH277797   2.025   3.384   4.119  1.0399  0.7604  0.3099
18769TIP3    H177798   2.063   3.464   4.156 -0.6787  1.5540  0.4549
18769TIP3    H277799   2.045   3.390   4.025  1.4848  1.0326  0.4195
18770TIP3   OH277800   2.335   1.500  16.690 -0.8081 -0.4883  0.3851
18770TIP3    H177801   2.344   1.592  16.714 -0.5976 -0.4657  0.2250
18770TIP3    H277802   2.415   1.459  16.724 -0.8948 -0.6111  0.4429
18771TIP3   OH277803   5.707   3.798   5.007 -0.1205 -0.3644  0.2830
18771TIP3    H177804   5.679   3.736   4.939 -0.5057  0.2924 -0.1640
18771TIP3    H277805   5.673   3.882   4.978  0.4998  0.0815  0.8344
18772TIP3   OH277806   5.996   6.384  12.395 -0.2916 -0.6217 -0.0974
18772TIP3    H177807   6.043   6.323  12.338 -1.0156 -1.4413  0.1709
18772TIP3    H277808   6.065   6.431  12.442  0.2938 -0.4794 -1.0821
18773TIP3   OH277809   3.867   2.315   1.731 -0.6573 -0.6297 -0.2053
18773TIP3    H177810   3.921   2.237   1.722 -0.7153 -0.8994  1.4981
18773TIP3    H277811   3.779   2.282   1.747 -0.5612 -0.2431  1.2254
18774TIP3   OH277812   1.608   5.283   4.620 -0.5244 -0.0630 -0.2900
18774TIP3    H177813   1.577   5.369   4.649 -0.2460 -0.5829  1.6559
18774TIP3    H277814   1.562   5.268   4.537 -0.8092  1.8126 -0.5251
18775TIP3   OH277815   3.070   1.622   3.966 -0.2386 -0.1742 -0.2963
18775TIP3    H177816   3.117   1.539   3.956  0.9092  0.5095 -0.6769
18775TIP3    H277817   3.028   1.636   3.881 -0.4732 -0.3693 -0.2172
18776TIP3   OH277818   0.292   0.649   2.767  0.0780  0.0973  0.1126
18776TIP3    H177819   0.328   0.563   2.741 -2.3138 -0.6073 -1.1870
18776TIP3    H277820   0.263   0.636   2.857  1.5881  0.2325  0.6578
18777TIP3   OH277821   1.874   6.317   0.757  0.0495  0.0090  0.4036
18777TIP3    H177822   1.961   6.293   0.726  0.8498  1.9217  1.0260
18777TIP3    H277823   1.889   6.349   0.846 -1.5139 -1.0017  1.0645
18778TIP3   OH277824   6.273   3.786  13.855  0.0573  0.1713  0.1814
18778TIP3    H177825   6.363   3.781  13.887 -0.7541  0.2673  2.7432
18778TIP3    H277826   6.244   3.694  13.851  0.6337  0.0366 -1.9786
18779TIP3   OH277827   5.562   1.847  17.026  0.2529  0.7462  0.1104
18779TIP3    H177828   5.532   1.826  17.114 -0.0830 -0.2731 -0.2377
18779TIP3    H277829   5.654   1.821  17.024 -0.5216 -2.3955 -0.7876
18780TIP3   OH277830   1.442   1.961  11.326  0.2550  0.3609  0.5434
18780TIP3    H177831   1.421   1.988  11.237  1.7096 -0.4447 -0.0853
18780TIP3    H277832   1.360   1.929  11.362 -0.4978  1.3135 -0.2644
18781TIP3   OH277833   3.315   5.169  16.965  0.7884  0.1964 -0.4953
18781TIP3    H177834   3.335   5.155  17.057 -0.6006  0.2328 -0.1752
18781TIP3    H277835   3.241   5.112  16.947 -0.3288  1.7571 -1.0319
18782TIP3   OH277836   1.272   5.625   0.522 -0.2861 -0.4136 -0.1498
18782TIP3    H177837   1.257   5.610   0.616 -1.4323 -1.2496 -0.4453
18782TIP3    H277838   1.305   5.715   0.517 -2.6612  0.5895  0.8468
18783TIP3   OH277839   1.595   0.659  14.507 -0.2537  0.2165  0.7727
18783TIP3    H177840   1.626   0.739  14.549  0.2053 -0.2461  1.3422
18783TIP3    H277841   1.596   0.594  14.577  0.1964 -0.4905  0.1269
18784TIP3   OH277842   2.962   6.089   0.046 -1.1445 -0.4496  0.8490
18784TIP3    H177843   2.996   6.171   0.083  1.2958 -1.1844  0.4255
18784TIP3    H277844   3.011   6.077  -0.035 -1.1439 -2.5033  1.0856
18785TIP3   OH277845   4.208   2.651   5.466 -0.2633  0.0695  0.2044
18785TIP3    H177846   4.125   2.604   5.477  1.1725 -2.5784  0.8100
18785TIP3    H277847   4.183   2.740   5.443 -3.2496 -0.7465 -0.1411
18786TIP3   OH277848   3.540   2.284   4.108  0.0675  0.0563 -0.1092
18786TIP3    H177849   3.600   2.252   4.175  0.8066 -1.5552 -1.4685
18786TIP3    H277850   3.530   2.211   4.047 -1.7314  0.9646 -0.9879
18787TIP3   OH277851   2.714   6.349   4.338  0.1267 -0.5862 -0.0945
18787TIP3    H177852   2.768   6.399   4.398  0.8239  0.2211 -1.3398
18787TIP3    H277853   2.771   6.333   4.262 -1.2711  0.0568 -1.3398
18788TIP3   OH277854   2.922   2.817  16.349  0.4886  0.2238  0.1186
18788TIP3    H177855   2.870   2.770  16.414 -2.8407  1.9319 -1.0962
18788TIP3    H277856   2.877   2.801  16.266  0.4479  3.6420 -0.6637
18789TIP3   OH277857   6.028   2.764  13.011  0.4097  0.0828  0.6400
18789TIP3    H177858   6.112   2.719  12.999  0.7126  0.9233 -0.6106
18789TIP3    H277859   6.052   2.853  13.036 -0.0467  0.6247 -0.7350
18790TIP3   OH277860   1.251   1.164  13.287  0.3918  0.8432  0.0926
18790TIP3    H177861   1.251   1.183  13.193 -0.7938 -0.1068 -0.1170
18790TIP3    H277862   1.324   1.103  13.299  0.1550  0.4818 -0.3105
18791TIP3   OH277863   3.180   4.669  16.442  0.7232  0.3514  1.0018
18791TIP3    H177864   3.155   4.633  16.527  2.9326 -0.4830  1.3570
18791TIP3    H277865   3.115   4.738  16.425 -1.3445 -1.2172  2.0889
18792TIP3   OH277866   3.320   1.791  16.383  0.4024 -0.5115  0.2521
18792TIP3    H177867   3.288   1.710  16.343  2.2930 -0.9572 -0.4692
18792TIP3    H277868   3.303   1.779  16.477  1.7468 -2.3180  0.3221
18793TIP3   OH277869   0.820   4.470  10.630  0.4899 -0.2252  0.5398
18793TIP3    H177870   0.810   4.445  10.538 -1.2443  1.4474  0.2102
18793TIP3    H277871   0.798   4.391  10.679  3.1344 -1.6806 -0.4158
18794TIP3   OH277872   2.130   1.905  13.234 -0.2815 -0.2526  0.2820
18794TIP3    H177873   2.078   1.920  13.313 -0.4737 -0.4886  0.2021
18794TIP3    H277874   2.110   1.815  13.209  0.4313 -0.4583  0.4406
18795TIP3   OH277875   3.116   0.579   5.254 -0.7384 -0.1933  0.2367
18795TIP3    H177876   3.122   0.491   5.291 -0.0854 -0.1783  0.1716
18795TIP3    H277877   3.112   0.637   5.331  0.8510 -0.1455  0.3041
18796TIP3   OH277878   2.394   1.584  12.470 -0.3778 -0.1703  0.0653
18796TIP3    H177879   2.415   1.585  12.564  0.2224 -1.7283 -0.0261
18796TIP3    H277880   2.395   1.492  12.446  0.4448  0.2537 -1.6936
18797TIP3   OH277881   6.134   4.293  16.681  0.4359  0.0322  0.2459
18797TIP3    H177882   6.101   4.227  16.619 -0.1193  0.0475  0.5142
18797TIP3    H277883   6.188   4.243  16.742  1.1957  0.0552 -0.3894
18798TIP3   OH277884   5.391   6.417  15.683 -0.5989 -0.3660  0.1486
18798TIP3    H177885   5.309   6.429  15.731 -1.0070 -2.4493  0.0706
18798TIP3    H277886   5.448   6.371  15.745  0.3534  0.6051  0.0244
18799TIP3   OH277887   1.335   1.091  16.564  0.3596  0.1257  0.7891
18799TIP3    H177888   1.395   1.018  16.548 -0.5410 -0.8027  1.5212
18799TIP3    H277889   1.369   1.133  16.643 -0.6091 -1.1541  1.9325
18800TIP3   OH277890   6.019   4.960   5.548  0.0963 -0.0666 -0.2513
18800TIP3    H177891   6.065   4.889   5.593 -1.4302 -1.3710 -0.6363
18800TIP3    H277892   6.003   5.025   5.616  3.0734  0.7876 -0.2531
18801TIP3   OH277893   1.508   5.285   2.916  0.6353 -0.8642 -0.0099
18801TIP3    H177894   1.448   5.356   2.941  3.4955  1.0596  2.1245
18801TIP3    H277895   1.522   5.298   2.822 -1.0939 -0.4778 -0.2528
18802TIP3   OH277896   1.716   3.426   0.184  0.0295  0.4710 -0.3055
18802TIP3    H177897   1.691   3.474   0.106  1.2429  1.5403 -0.0838
18802TIP3    H277898   1.647   3.443   0.247  0.4745  2.0357 -0.2112
18803TIP3   OH277899   4.652   0.196  15.522 -0.7899 -0.1249  0.2235
18803TIP3    H177900   4.735   0.227  15.557 -0.6456  0.9387 -0.9903
18803TIP3    H277901   4.601   0.276  15.508 -1.6185 -0.6853 -0.0263
18804TIP3   OH277902   0.164   4.931  12.448 -0.3791 -0.0268  0.7636
18804TIP3    H177903   0.153   4.994  12.519  0.0961  0.7793  0.1283
18804TIP3    H277904   0.258   4.929  12.432 -0.6090  0.9688 -0.8815
18805TIP3   OH277905   2.366   5.009  15.576 -0.1054  0.5693 -0.2976
18805TIP3    H177906   2.415   5.092  15.578 -0.7266  0.9499  2.0550
18805TIP3    H277907   2.318   5.012  15.493  0.7337  2.0267 -0.7793
18806TIP3   OH277908   3.077   2.504  12.731 -0.5179  0.1211  0.0267
18806TIP3    H177909   3.066   2.468  12.818  0.6091  0.5035  0.3357
18806TIP3    H277910   3.155   2.462  12.696  0.8378  2.1988  0.4014
18807TIP3   OH277911   1.914   4.912   4.358 -0.1450 -0.0162  0.2827
18807TIP3    H177912   1.918   5.008   4.361  0.5299 -0.0252 -0.1146
18807TIP3    H277913   1.904   4.891   4.266 -0.7475 -0.3206  0.4129
18808TIP3   OH277914   1.483   5.999   0.090 -0.0582  0.2108 -0.3385
18808TIP3    H177915   1.389   6.013   0.080 -0.3507 -0.1853  1.3912
18808TIP3    H277916   1.495   5.904   0.079  0.1823  0.2891 -0.7834
18809TIP3   OH277917   0.643   4.298  16.437 -0.0731  0.8253  0.1887
18809TIP3    H177918   0.681   4.236  16.374 -1.4576 -0.6012  0.6870
18809TIP3    H277919   0.705   4.371  16.439  1.3814 -0.3200 -0.7853
18810TIP3   OH277920   6.556   4.394  16.617  0.4458  0.5023 -0.0861
18810TIP3    H177921   6.546   4.469  16.675  0.0526  0.0792  0.4099
18810TIP3    H277922   6.580   4.321  16.675  1.7528  0.4375 -0.6769
18811TIP3   OH277923   0.483   2.673  13.729  0.1763  0.6445  0.0488
18811TIP3    H177924   0.542   2.604  13.760 -0.0571  0.1620 -0.5822
18811TIP3    H277925   0.451   2.642  13.645 -0.6095  1.1278  0.1624
18812TIP3   OH277926   0.663   4.563   5.879  0.1852 -0.6613 -0.3137
18812TIP3    H177927   0.600   4.590   5.946 -1.4586 -0.9140 -1.6654
18812TIP3    H277928   0.726   4.634   5.875 -0.5320  0.0514  0.4681
18813TIP3   OH277929   4.154   0.444   0.917 -0.0804 -0.1771 -0.2108
18813TIP3    H177930   4.240   0.432   0.877 -0.0089 -3.4202  0.6169
18813TIP3    H277931   4.172   0.489   1.000  0.5164  0.9817 -0.9452
18814TIP3   OH277932   6.066   2.343   3.850 -0.0177 -0.0987  0.4187
18814TIP3    H177933   5.997   2.363   3.786  0.2285 -0.1492  0.1370
18814TIP3    H277934   6.140   2.314   3.798 -0.0970 -0.9760  0.7787
18815TIP3   OH277935   0.038   1.848  16.508 -0.0218 -0.3512  0.1921
18815TIP3    H177936  -0.018   1.772  16.493  2.0427 -1.7044 -1.0321
18815TIP3    H277937   0.004   1.887  16.589 -0.9044 -2.7834  1.0633
18816TIP3   OH277938   2.604   6.353   1.147 -0.1652  0.0340 -0.0710
18816TIP3    H177939   2.529   6.297   1.130  0.1236 -0.0144 -1.2939
18816TIP3    H277940   2.649   6.359   1.063  0.2720  1.4118  0.2283
18817TIP3   OH277941   0.182   2.858   2.394 -0.5154 -0.4197 -0.2810
18817TIP3    H177942   0.198   2.853   2.299  0.6870  1.3332 -0.2151
18817TIP3    H277943   0.101   2.908   2.402  0.5545  1.3924 -0.3722
18818TIP3   OH277944   0.086   4.606  17.070  0.2800 -0.3035  0.1290
18818TIP3    H177945   0.105   4.646  17.155  0.5343 -1.5651  0.6742
18818TIP3    H277946   0.077   4.513  17.088  2.0902 -0.8480 -1.4894
18819TIP3   OH277947   3.823   0.868  15.006  0.3276 -0.0343  0.2528
18819TIP3    H177948   3.845   0.899  14.918 -2.8850 -1.4693 -1.1893
18819TIP3    H277949   3.831   0.947  15.061  1.4962  1.1128 -1.4424
18820TIP3   OH277950   1.349   6.298   4.882  0.0082  0.2148  0.0459
18820TIP3    H177951   1.383   6.387   4.873 -1.9582  0.8265 -1.9865
18820TIP3    H277952   1.335   6.288   4.976 -0.1458  2.2094  0.2806
18821TIP3   OH277953   3.646   2.030   0.122  0.0243  0.1922  0.1959
18821TIP3    H177954   3.702   2.010   0.197  0.4294  1.1620  0.1653
18821TIP3    H277955   3.677   2.115   0.091  0.1668 -0.3900 -1.3485
18822TIP3   OH277956   6.823   1.009  11.422  0.1759 -0.7480 -0.0208
18822TIP3    H177957   6.795   1.072  11.488 -0.5410 -1.0220 -0.0582
18822TIP3    H277958   6.834   1.062  11.342 -1.4979 -0.8274 -0.3322
18823TIP3   OH277959   0.544   4.012  12.035 -0.3456 -0.3099  0.4333
18823TIP3    H177960   0.539   3.999  11.940  0.0623 -0.9515  0.4909
18823TIP3    H277961   0.460   3.977  12.068 -1.4068  1.8060  0.1433
18824TIP3   OH277962   1.310   3.556   2.060 -0.6125  0.1273 -0.0953
18824TIP3    H177963   1.346   3.634   2.019  0.4418 -1.3471 -2.1883
18824TIP3    H277964   1.216   3.571   2.062 -0.3406  1.9866  0.8552
18825TIP3   OH277965   0.906   4.669  15.261  0.2051  0.3297  0.2893
18825TIP3    H177966   0.986   4.650  15.212  0.5549  1.8208  0.2363
18825TIP3    H277967   0.909   4.764  15.276 -0.3430  0.0555  2.4232
18826TIP3   OH277968   2.461   4.175   1.671  0.2949 -0.0728 -0.1093
18826TIP3    H177969   2.523   4.106   1.645  1.9571  0.6289  1.7285
18826TIP3    H277970   2.516   4.252   1.684 -1.4928  1.6137 -1.8815
18827TIP3   OH277971   1.196   5.754  11.229 -0.1066 -0.4319  0.2729
18827TIP3    H177972   1.167   5.666  11.208  0.5427 -0.3193 -1.1897
18827TIP3    H277973   1.120   5.796  11.269 -0.5101 -1.5510  0.6911
18828TIP3   OH277974   6.425   3.593   5.762 -0.0488  0.4477 -0.1585
18828TIP3    H177975   6.474   3.634   5.834 -0.1960 -0.6036  0.5543
18828TIP3    H277976   6.476   3.615   5.683  1.2916 -0.1836  0.5074
18829TIP3   OH277977   2.932   2.101  13.764 -0.1131 -0.7136  0.2864
18829TIP3    H177978   3.000   2.130  13.703 -0.5633 -0.3213 -0.0362
18829TIP3    H277979   2.963   2.016  13.796  0.7136 -0.3665  0.4387
18830TIP3   OH277980   4.992   2.221   0.263 -0.5136  0.7079 -0.3460
18830TIP3    H177981   4.899   2.242   0.269 -0.2035  1.8154  1.0856
18830TIP3    H277982   5.004   2.145   0.320 -0.3944  1.1035  0.1586
18831TIP3   OH277983   4.653   6.608  11.159  0.7182  0.3002  0.6104
18831TIP3    H177984   4.577   6.644  11.205  0.3672  0.6151 -0.2038
18831TIP3    H277985   4.678   6.532  11.211 -1.4883 -1.1136 -0.2669
18832TIP3   OH277986   6.187   0.878   4.823  0.0734 -0.0559 -0.5200
18832TIP3    H177987   6.202   0.808   4.759  0.7345  0.2703 -0.7319
18832TIP3    H277988   6.250   0.946   4.800  0.8312 -0.2272  0.9344
18833TIP3   OH277989   2.818   0.336   0.443  0.1327  0.3736 -0.3686
18833TIP3    H177990   2.798   0.315   0.535 -2.6723 -0.6824 -1.1231
18833TIP3    H277991   2.883   0.271   0.417  0.4185  0.2341  0.6439
18834TIP3   OH277992   3.627   1.302  15.247  0.0371 -0.3311 -0.4079
18834TIP3    H177993   3.543   1.345  15.268  0.2929  0.0586 -0.1705
18834TIP3    H277994   3.681   1.372  15.210  0.3371 -0.5275 -0.3405
18835TIP3   OH277995   4.574   4.385  10.936  0.7278  0.5316  0.2138
18835TIP3    H177996   4.526   4.304  10.952  2.3562 -0.8592 -1.3476
18835TIP3    H277997   4.507   4.451  10.918 -0.6617 -1.2696 -1.7307
18836TIP3   OH277998   6.407   1.188  16.819  0.4787 -0.3632  0.3604
18836TIP3    H177999   6.327   1.189  16.872  0.6741 -1.2811  0.6925
18836TIP3    H278000   6.379   1.150  16.735  0.6055 -0.8817  0.5500
18837TIP3   OH278001   0.855   2.020  12.145 -0.3130  0.3044  0.0424
18837TIP3    H178002   0.923   2.051  12.205 -0.1307 -0.0614  0.0259
18837TIP3    H278003   0.887   2.044  12.058  0.0319 -0.3135 -0.0013
18838TIP3   OH278004   5.412   3.926  14.018  0.4067 -0.2797  0.1034
18838TIP3    H178005   5.420   3.848  14.074  2.4498  0.6804  1.2343
18838TIP3    H278006   5.392   3.997  14.079  0.7218  0.4536 -0.6406
18839TIP3   OH278007   1.223   0.183  14.669  0.4169 -0.3790 -0.0859
18839TIP3    H178008   1.210   0.129  14.591 -0.5247  1.0678 -0.9770
18839TIP3    H278009   1.141   0.177  14.717 -0.5502  1.8900 -1.2987
18840TIP3   OH278010   6.459   3.084   2.694 -0.3271 -0.1425  0.7332
18840TIP3    H178011   6.476   3.111   2.604  0.0946 -3.4239 -0.3075
18840TIP3    H278012   6.523   3.132   2.747  0.3505  0.7834 -0.8729
18841TIP3   OH278013   2.394   6.465   5.644 -0.0653  0.1703  0.2116
18841TIP3    H178014   2.348   6.397   5.595  2.5570 -1.1125 -0.6711
18841TIP3    H278015   2.396   6.433   5.734  0.6760 -0.6922 -0.0978
18842TIP3   OH278016   5.848   2.987  14.087 -0.8364 -0.6447 -0.2829
18842TIP3    H178017   5.822   3.046  14.158 -2.4953 -0.1458 -1.2377
18842TIP3    H278018   5.833   2.899  14.123  1.0941 -0.5249  0.9460
18843TIP3   OH278019   5.141   4.831   2.836 -0.0189 -0.3673 -0.2668
18843TIP3    H178020   5.169   4.898   2.774  0.9196  0.1561  0.6862
18843TIP3    H278021   5.108   4.880   2.911 -0.4761 -0.9834 -0.0602
18844TIP3   OH278022   1.561   5.604   5.470 -0.7590  0.0959  0.3265
18844TIP3    H178023   1.550   5.543   5.397  1.7348  1.1050 -1.0251
18844TIP3    H278024   1.489   5.666   5.462 -0.0367  0.7165 -1.9137
18845TIP3   OH278025   1.658   3.653   2.623 -0.1290  0.3341  0.0690
18845TIP3    H178026   1.585   3.641   2.562 -0.2507 -0.4236  0.3572
18845TIP3    H278027   1.653   3.578   2.682  1.0706  0.0979 -0.0935
18846TIP3   OH278028   0.068   0.124   3.471  0.3704  0.1717 -0.4661
18846TIP3    H178029   0.062   0.212   3.436  0.9998  0.6925  0.6837
18846TIP3    H278030  -0.017   0.108   3.512  0.1371  0.1016 -0.9674
18847TIP3   OH278031   6.349   3.249  15.181  0.1718 -0.1151  0.1605
18847TIP3    H178032   6.397   3.320  15.139  0.6415  0.0576  0.9629
18847TIP3    H278033   6.304   3.291  15.255 -1.2435 -0.2699 -0.5726
18848TIP3   OH278034   1.935   1.175   1.745  0.1219 -0.2277 -0.3155
18848TIP3    H178035   1.930   1.251   1.688  2.1391 -0.7026 -1.2279
18848TIP3    H278036   2.019   1.134   1.723  0.4268 -1.1115  2.1678
18849TIP3   OH278037   1.834   5.840  16.779  0.3888  0.3533  0.0082
18849TIP3    H178038   1.802   5.799  16.699 -2.0372 -0.5601  1.3232
18849TIP3    H278039   1.801   5.930  16.776 -1.8915 -0.3704  1.0058
18850TIP3   OH278040   3.928   4.172   0.443 -0.0699 -0.4799  0.3224
18850TIP3    H178041   3.893   4.242   0.388  0.9189  1.6205  2.1853
18850TIP3    H278042   3.856   4.149   0.502  0.3136  0.7830  1.3264
18851TIP3   OH278043   0.612   5.631  11.929  0.1387  0.7897  0.0433
18851TIP3    H178044   0.703   5.602  11.922 -0.6000 -1.9379  0.8097
18851TIP3    H278045   0.604   5.667  12.017  0.1404 -0.3472  0.5188
18852TIP3   OH278046   0.387   4.688  16.750  0.1998  0.4656 -0.5017
18852TIP3    H178047   0.330   4.640  16.690  1.3011 -1.2676 -0.2080
18852TIP3    H278048   0.474   4.681  16.713  0.5655  1.2266  0.1777
18853TIP3   OH278049   6.842   4.917  13.372 -0.5889  0.4312  0.3070
18853TIP3    H178050   6.834   5.006  13.408  0.0564  0.5610  0.1397
18853TIP3    H278051   6.766   4.909  13.314  0.2273  1.5058 -0.9750
18854TIP3   OH278052   4.383   0.173   5.427  0.2149 -0.3641  0.1175
18854TIP3    H178053   4.391   0.168   5.332 -0.9576  0.8734 -0.0730
18854TIP3    H278054   4.344   0.259   5.444  0.9057 -0.3287  1.7598
18855TIP3   OH278055   3.765   5.996   1.274 -0.2553 -0.4031 -0.7225
18855TIP3    H178056   3.697   6.051   1.313 -1.1901 -2.1230  0.1719
18855TIP3    H278057   3.734   5.980   1.185 -0.5731 -0.4585 -0.6043
18856TIP3   OH278058   6.489   1.690   2.283  0.4383 -0.3511 -0.1112
18856TIP3    H178059   6.507   1.755   2.215  0.0857 -0.8175 -0.6584
18856TIP3    H278060   6.402   1.713   2.316  1.4518  1.1893  1.7183
18857TIP3   OH278061   5.055   0.430  13.655  0.3877  0.2292 -0.5616
18857TIP3    H178062   4.996   0.489  13.702  1.3108  1.3289 -0.7123
18857TIP3    H278063   5.014   0.418  13.570  0.1640  0.6456 -0.5180
18858TIP3   OH278064   5.618   5.230  15.073 -0.3252  0.4004  0.1723
18858TIP3    H178065   5.644   5.300  15.133 -0.3872 -2.0061  3.2733
18858TIP3    H278066   5.675   5.241  14.997  0.8471  2.7472  1.2824
18859TIP3   OH278067   1.604   0.369  16.260  0.0575  0.1169  0.5412
18859TIP3    H178068   1.674   0.311  16.292 -1.7543 -2.8595 -0.4341
18859TIP3    H278069   1.631   0.392  16.171  0.0761 -0.5659  0.3623
18860TIP3   OH278070   3.332   1.485  11.993 -0.6524  0.0498  0.2596
18860TIP3    H178071   3.357   1.419  11.929 -0.5848  0.0133  0.3236
18860TIP3    H278072   3.236   1.483  11.993 -0.6464 -0.1876  0.4062
18861TIP3   OH278073   5.185   4.658  15.653 -0.1876  0.3770  0.0637
18861TIP3    H178074   5.182   4.750  15.627  2.1132  0.7514  0.9157
18861TIP3    H278075   5.264   4.623  15.611 -0.1132 -0.7652  1.0765
18862TIP3   OH278076   6.579   2.654   6.343 -0.3599  0.5612 -0.2590
18862TIP3    H178077   6.672   2.662   6.323  0.0307  1.4298  1.7188
18862TIP3    H278078   6.566   2.561   6.359  0.6845  0.6909  1.6000
18863TIP3   OH278079   1.246   4.751  12.353 -0.0101  0.1788 -0.1530
18863TIP3    H178080   1.203   4.702  12.423 -1.7864 -0.2014 -1.4373
18863TIP3    H278081   1.241   4.693  12.277 -0.7137  1.6899 -1.3069
18864TIP3   OH278082   4.627   2.879   3.601  0.1696  0.4240 -0.2273
18864TIP3    H178083   4.605   2.811   3.665 -0.2478  0.8446  0.0828
18864TIP3    H278084   4.671   2.832   3.531  2.3354  0.1871  1.1914
18865TIP3   OH278085   4.392   0.713  13.631 -0.2470 -0.2723  0.3094
18865TIP3    H178086   4.314   0.757  13.595 -1.7195 -1.8443  1.4091
18865TIP3    H278087   4.368   0.690  13.720  1.5390 -0.7562  0.7077
18866TIP3   OH278088   3.448   4.918  15.390 -0.4827 -0.1043 -0.7228
18866TIP3    H178089   3.499   4.861  15.448  1.0380  2.4489  0.5909
18866TIP3    H278090   3.357   4.899  15.411  0.0203  0.2380  2.0355
18867TIP3   OH278091   3.139   2.139   3.805 -0.1939 -0.5148  0.0997
18867TIP3    H178092   3.160   2.151   3.898 -2.7056 -0.0524  0.6847
18867TIP3    H278093   3.162   2.222   3.764 -0.3593 -0.2238  0.5891
18868TIP3   OH278094   1.429   5.791  13.236 -0.1872 -0.4834  0.1962
18868TIP3    H178095   1.427   5.808  13.330 -2.4090  0.6986  0.0198
18868TIP3    H278096   1.403   5.699  13.228 -0.5422 -0.4327  0.7281
18869TIP3   OH278097   4.167   4.919  12.372 -0.0469 -0.5739  0.3898
18869TIP3    H178098   4.125   4.833  12.375 -0.6742 -0.2504  1.5533
18869TIP3    H278099   4.246   4.906  12.319 -2.2758 -0.8885 -3.2580
18870TIP3   OH278100   6.440   6.574  11.889 -0.0862  0.0753  1.2556
18870TIP3    H178101   6.532   6.551  11.873 -0.8541 -1.8038 -0.8610
18870TIP3    H278102   6.431   6.662  11.852  0.3891 -0.6260 -0.6801
18871TIP3   OH278103   2.967   2.090  17.104  0.1379 -0.5702  0.3288
18871TIP3    H178104   3.027   2.078  17.179 -1.5932 -0.2986  1.8217
18871TIP3    H278105   2.882   2.104  17.144 -0.4435  2.2686 -1.6379
18872TIP3   OH278106   5.038   1.065  12.344  0.1459  0.7980  0.0118
18872TIP3    H178107   5.059   1.157  12.329 -0.1396  0.8514 -0.0703
18872TIP3    H278108   4.959   1.068  12.399  0.0496  0.6010 -0.1182
18873TIP3   OH278109   2.908   4.574   6.477  0.0971  0.1938  0.0292
18873TIP3    H178110   3.003   4.569   6.492 -0.2084 -0.1211  2.1915
18873TIP3    H278111   2.874   4.495   6.519 -1.1899  0.5209 -0.3640
18874TIP3   OH278112   1.678   4.957   8.840 -0.8266 -0.8717 -0.0583
18874TIP3    H178113   1.745   4.951   8.772 -0.1072  1.2321  0.4053
18874TIP3    H278114   1.711   5.024   8.900 -3.0931 -0.1875  0.5008
18875TIP3   OH278115   6.804   5.194   0.279 -0.3708  0.3200 -0.3846
18875TIP3    H178116   6.878   5.251   0.299  0.6116 -0.6065 -1.2397
18875TIP3    H278117   6.843   5.119   0.233 -1.6039 -1.0914  0.7531
18876TIP3   OH278118   0.285   2.571  13.947  0.3497  0.1618 -0.0402
18876TIP3    H178119   0.216   2.618  13.994  1.4395  0.2626  1.5489
18876TIP3    H278120   0.366   2.605  13.984  1.2691  0.0691 -1.8843
18877TIP3   OH278121   1.238   5.245  12.543 -0.4524  0.3000  0.0318
18877TIP3    H178122   1.277   5.163  12.515  3.9586  0.8985  3.2121
18877TIP3    H278123   1.227   5.295  12.462  1.1829 -1.7658 -1.6048
18878TIP3   OH278124   1.200   2.862   4.033 -0.0973 -0.5715  0.1067
18878TIP3    H178125   1.293   2.850   4.052 -0.0845 -0.2022  0.3001
18878TIP3    H278126   1.177   2.790   3.975  0.0156 -1.3633  1.0322
18879TIP3   OH278127   0.388   1.593  13.360  0.3052  0.1870 -0.2977
18879TIP3    H178128   0.356   1.683  13.367 -1.0583 -0.3797  2.1550
18879TIP3    H278129   0.428   1.575  13.445 -1.3540 -2.1372  0.0834
18880TIP3   OH278130   5.177   1.579   4.359 -0.0252 -0.1154 -0.0601
18880TIP3    H178131   5.268   1.552   4.362  0.1546  0.4786  0.0078
18880TIP3    H278132   5.136   1.537   4.435  0.7098  1.4276  1.2450
18881TIP3   OH278133   4.158   4.529   0.784 -0.3020  0.5405  0.4335
18881TIP3    H178134   4.100   4.460   0.818 -0.4420  1.2402  1.6889
18881TIP3    H278135   4.234   4.482   0.752 -1.8992 -0.4920 -2.1198
18882TIP3   OH278136   4.675   3.245   5.965 -0.6452 -1.0367  0.3467
18882TIP3    H178137   4.643   3.180   6.028  0.1815 -1.1386  0.6659
18882TIP3    H278138   4.617   3.320   5.977 -0.7089 -1.1804  0.9928
18883TIP3   OH278139   4.793   4.721   4.846  0.2275  0.0917 -0.4657
18883TIP3    H178140   4.804   4.816   4.848  2.5198 -0.1253  0.8215
18883TIP3    H278141   4.732   4.702   4.917 -1.6484  0.6720 -1.8389
18884TIP3   OH278142   4.979   2.711  13.415  0.2100 -0.6831 -0.1777
18884TIP3    H178143   4.887   2.717  13.437 -0.4076 -1.5160 -2.2627
18884TIP3    H278144   5.016   2.795  13.442 -2.0670  1.4487 -3.0560
18885TIP3   OH278145   6.597   2.579  16.314  0.1231 -0.2723 -0.6100
18885TIP3    H178146   6.540   2.508  16.284 -0.7872  0.6082 -0.9879
18885TIP3    H278147   6.675   2.571  16.259  0.1583 -1.1343 -0.4619
18886TIP3   OH278148   5.131   4.711   2.331 -0.2936  0.5284 -0.0943
18886TIP3    H178149   5.211   4.719   2.280  0.8709 -0.4825  1.5070
18886TIP3    H278150   5.105   4.620   2.320 -1.4055  0.9027 -0.7955
18887TIP3   OH278151   4.539   4.249   0.430  0.1163  0.4720  0.2911
18887TIP3    H178152   4.581   4.331   0.406  0.5460 -0.1581 -1.2345
18887TIP3    H278153   4.550   4.193   0.353 -0.2419 -0.9846  1.2575
18888TIP3   OH278154   1.450   3.764   4.644 -0.3547 -0.0767  0.4129
18888TIP3    H178155   1.489   3.843   4.681  1.3579 -0.3787 -0.5982
18888TIP3    H278156   1.525   3.705   4.629 -1.2916 -1.0050 -0.9386
18889TIP3   OH278157   1.001   3.019   0.214 -0.1707  0.2938  0.0958
18889TIP3    H178158   1.093   3.032   0.237 -0.5801  1.5047  1.1392
18889TIP3    H278159   0.995   3.052   0.124  0.6007 -0.7008 -0.3423
18890TIP3   OH278160   3.184   6.262   6.043  0.2580  0.2535 -0.3294
18890TIP3    H178161   3.140   6.230   6.122 -0.6221 -1.5866 -1.4825
18890TIP3    H278162   3.188   6.357   6.054 -1.8006  0.2528  0.9513
18891TIP3   OH278163   4.042   1.744   0.958 -0.1894  0.3453 -0.0802
18891TIP3    H178164   4.100   1.757   1.033  0.2778  2.2383 -0.7105
18891TIP3    H278165   4.061   1.818   0.900 -2.6504  0.5811 -0.6985
18892TIP3   OH278166   0.293   2.770  12.545  0.7413 -0.1347 -0.3552
18892TIP3    H178167   0.345   2.694  12.516 -0.0810  0.0159 -2.3957
18892TIP3    H278168   0.323   2.787  12.634  0.9772 -2.8335  0.1618
18893TIP3   OH278169   0.357   5.665  13.270 -0.3998 -0.1460  0.3792
18893TIP3    H178170   0.321   5.604  13.335 -1.5806 -0.5306 -0.5893
18893TIP3    H278171   0.311   5.747  13.288 -2.1532 -0.7213 -1.0690
18894TIP3   OH278172   1.693   1.212   1.558  0.5242  0.1289 -0.1690
18894TIP3    H178173   1.770   1.266   1.539  0.2310  0.7615  0.3881
18894TIP3    H278174   1.678   1.225   1.652 -1.4639  1.6471 -0.6269
18895TIP3   OH278175   3.378   6.275  16.609  0.2745  0.1033  0.0715
18895TIP3    H178176   3.343   6.348  16.661 -0.5306  0.4901 -0.9631
18895TIP3    H278177   3.362   6.301  16.518  1.8529 -0.4545 -0.3916
18896TIP3   OH278178   2.380   4.687   0.514 -0.0112 -0.2521 -0.2025
18896TIP3    H178179   2.335   4.751   0.459  0.0047 -1.6791 -1.9640
18896TIP3    H278180   2.311   4.654   0.572 -0.3760  0.2185 -0.3532
18897TIP3   OH278181   0.392   6.297   6.239  0.1368 -0.2068  0.0629
18897TIP3    H178182   0.440   6.375   6.266  0.1520 -0.3425  0.4311
18897TIP3    H278183   0.452   6.224   6.256 -0.4915 -0.4616  1.3025
18898TIP3   OH278184   5.151   0.154  14.940 -0.2298  0.0782  0.4540
18898TIP3    H178185   5.210   0.107  14.881 -0.7250 -0.3416  0.2924
18898TIP3    H278186   5.064   0.138  14.905 -0.5679 -0.5014  1.5178
18899TIP3   OH278187   0.648   3.923   3.446 -0.1401 -0.0299 -0.1051
18899TIP3    H178188   0.627   3.858   3.379  0.8729 -0.7825  0.2714
18899TIP3    H278189   0.563   3.955   3.476 -0.6161 -0.1041 -1.3391
18900TIP3   OH278190   3.410   0.297  16.634  0.1354  0.1142  0.2212
18900TIP3    H178191   3.419   0.231  16.702 -0.6005 -0.7623 -0.4993
18900TIP3    H278192   3.315   0.313  16.628  0.3625  2.0979  1.1638
18901TIP3   OH278193   4.191   5.293  14.528 -0.0041  0.0184 -0.2156
18901TIP3    H178194   4.129   5.338  14.585  0.4101  1.8567 -1.1263
18901TIP3    H278195   4.277   5.321  14.560  0.2363  0.8417 -1.5101
18902TIP3   OH278196   3.481   6.469   0.375 -0.0626  0.1838 -0.0945
18902TIP3    H178197   3.549   6.405   0.396 -0.5166 -0.4804 -0.5795
18902TIP3    H278198   3.514   6.552   0.410  0.6727 -0.2572  0.2889
18903TIP3   OH278199   2.032   0.852   1.328  0.0651  0.0784 -0.3514
18903TIP3    H178200   1.954   0.804   1.354  0.5465 -1.3125 -1.3293
18903TIP3    H278201   2.048   0.824   1.238  1.0356  1.2313 -0.5671
18904TIP3   OH278202   1.646   2.918  14.592 -0.0771 -0.0222  0.2124
18904TIP3    H178203   1.644   2.934  14.686  1.1267 -1.0232  0.4370
18904TIP3    H278204   1.607   2.996  14.554 -2.8507 -0.5951  1.6170
18905TIP3   OH278205   6.250   2.105   5.135  0.1838  0.1433 -0.2472
18905TIP3    H178206   6.186   2.057   5.187  0.0149  1.0733  0.4074
18905TIP3    H278207   6.326   2.114   5.192  0.9101 -0.9013 -0.9965
18906TIP3   OH278208   4.909   5.994   4.139 -0.0026 -0.2324 -0.1288
18906TIP3    H178209   5.002   5.996   4.118 -0.1776  1.0955 -0.8960
18906TIP3    H278210   4.866   5.974   4.056 -0.6092  3.4092 -0.8688
18907TIP3   OH278211   6.479   1.103  15.753  0.1435  0.7533  0.4598
18907TIP3    H178212   6.447   1.157  15.680 -0.3840 -0.9389 -0.6222
18907TIP3    H278213   6.405   1.097  15.813 -0.3754 -0.1316 -0.2473
18908TIP3   OH278214   3.904   6.652  15.225  0.5926  0.2331 -0.5573
18908TIP3    H178215   3.993   6.619  15.237 -0.0141 -1.9427 -1.4739
18908TIP3    H278216   3.871   6.603  15.150 -1.6038  0.4749  0.1805
18909TIP3   OH278217   4.704   5.338   4.139 -0.2891  0.4223 -0.2885
18909TIP3    H178218   4.651   5.290   4.075 -0.8271 -0.1110  0.5440
18909TIP3    H278219   4.642   5.362   4.208 -0.0289  2.2666 -0.6296
18910TIP3   OH278220   6.527   0.698  14.568 -0.2327 -0.1080 -0.9326
18910TIP3    H178221   6.485   0.684  14.483  0.1429  1.6920 -1.4631
18910TIP3    H278222   6.574   0.781  14.557  0.2007 -0.0870  0.9006
18911TIP3   OH278223   3.009   1.670   0.488  0.3832  0.0209  0.3659
18911TIP3    H178224   2.952   1.727   0.437 -0.2304 -0.3939  0.5813
18911TIP3    H278225   2.950   1.604   0.526  0.8668  0.1560  1.3786
18912TIP3   OH278226   3.146   6.856  12.337 -0.0571 -0.1241  0.0509
18912TIP3    H178227   3.145   6.949  12.312 -0.9347 -0.0348  0.4075
18912TIP3    H278228   3.101   6.811  12.266 -2.7397  0.1546  1.4714
18913TIP3   OH278229   5.981   0.293  16.607  0.0517  0.1134 -0.4311
18913TIP3    H178230   5.992   0.388  16.610  0.4051  0.1162 -1.5597
18913TIP3    H278231   6.069   0.258  16.596 -0.1433 -0.3168 -0.6607
18914TIP3   OH278232   3.530   5.421   1.335  0.3917  0.1582 -0.3713
18914TIP3    H178233   3.581   5.366   1.274  1.0702  2.4399 -1.9817
18914TIP3    H278234   3.441   5.386   1.328  1.1054 -1.8971  0.0958
18915TIP3   OH278235   3.898   3.343   1.624 -0.5755 -0.0049  1.4679
18915TIP3    H178236   3.940   3.365   1.541 -1.1634  0.0035  1.1682
18915TIP3    H278237   3.970   3.338   1.687  0.1751 -2.1937  0.5312
18916TIP3   OH278238   6.145   6.200   1.019 -0.9952  0.3520 -0.1428
18916TIP3    H178239   6.125   6.115   1.059 -0.7040 -0.3384 -1.3992
18916TIP3    H278240   6.196   6.247   1.084 -1.9322 -0.0724  0.9303
18917TIP3   OH278241   3.831   5.589   1.582 -0.8298 -0.1609  0.2495
18917TIP3    H178242   3.878   5.509   1.561  0.0856  0.8928 -2.1959
18917TIP3    H278243   3.899   5.654   1.598 -1.4975  0.6254  0.0058
18918TIP3   OH278244   4.175   0.757  12.327 -0.5302  0.1690  0.2311
18918TIP3    H178245   4.212   0.680  12.284  0.0310 -0.4725  1.7972
18918TIP3    H278246   4.093   0.773  12.281 -0.0477 -0.5958 -0.9394
18919TIP3   OH278247   2.962   6.742  14.279  0.4440 -0.1975 -0.8128
18919TIP3    H178248   2.984   6.814  14.338 -1.5132  0.6414 -1.0397
18919TIP3    H278249   3.007   6.666  14.315 -1.0640  0.1614  2.0857
18920TIP3   OH278250   4.817   6.844  15.732 -0.3854 -0.5278 -0.2569
18920TIP3    H178251   4.835   6.930  15.694  1.1044 -0.3131  0.8507
18920TIP3    H278252   4.746   6.860  15.795 -0.2484 -0.1475 -0.1960
18921TIP3   OH278253   6.364   1.579   4.514  0.5386 -0.2762  0.1043
18921TIP3    H178254   6.294   1.624   4.562  0.3718  0.9556 -1.2447
18921TIP3    H278255   6.388   1.506   4.571  0.0560  0.8684  1.8540
18922TIP3   OH278256   1.040   6.104   4.492  0.2378 -0.0134  0.3724
18922TIP3    H178257   1.105   6.119   4.561 -0.0962  0.4265  0.6002
18922TIP3    H278258   0.966   6.065   4.537  0.9032 -1.9550 -0.1392
18923TIP3   OH278259   4.032   2.208  14.685  0.8305  0.5847  0.3760
18923TIP3    H178260   4.122   2.224  14.714  0.7244  2.4603 -0.2236
18923TIP3    H278261   4.021   2.264  14.608 -0.8109  0.2660  0.3467
18924TIP3   OH278262   2.371   6.559   1.049 -0.5458 -0.8514 -0.0923
18924TIP3    H178263   2.413   6.637   1.085 -0.1554 -0.6159 -1.0379
18924TIP3    H278264   2.305   6.594   0.989 -0.9930 -1.2459  0.1606
18925TIP3   OH278265   2.568   4.835  14.296  0.6438 -0.5154 -0.3288
18925TIP3    H178266   2.658   4.807  14.312  0.6001 -0.6598 -0.3335
18925TIP3    H278267   2.567   4.863  14.205  0.7978 -0.0675 -0.1916
18926TIP3   OH278268   1.269   4.283  16.547 -0.6398  0.5561 -0.3533
18926TIP3    H178269   1.242   4.347  16.480 -0.5131  0.7920 -0.1764
18926TIP3    H278270   1.308   4.211  16.496  0.6914  1.3255 -0.4581
18927TIP3   OH278271   6.569   1.286  14.589  0.0960  0.1454 -0.5846
18927TIP3    H178272   6.652   1.252  14.556 -0.1305  1.0564 -2.1452
18927TIP3    H278273   6.519   1.208  14.612  1.1080 -0.4310 -0.2649
18928TIP3   OH278274   5.207   1.790  14.082  0.4991 -0.5580 -0.0815
18928TIP3    H178275   5.258   1.756  14.009  2.6751  1.0905  0.5630
18928TIP3    H278276   5.136   1.728  14.093  1.6726 -2.3129 -1.8430
18929TIP3   OH278277   3.289   4.441   3.130 -0.4511 -0.1992  0.0481
18929TIP3    H178278   3.368   4.390   3.109  2.0222  3.2228  0.2267
18929TIP3    H278279   3.286   4.442   3.226 -0.5198 -0.0769  0.0449
18930TIP3   OH278280   4.980   4.960  15.258 -0.0706  0.1214 -0.6019
18930TIP3    H178281   5.002   4.992  15.171  1.2271 -0.5199 -0.5396
18930TIP3    H278282   4.929   5.030  15.298 -0.2246  0.6361 -1.6879
18931TIP3   OH278283   3.334   4.667  12.720 -0.6664  0.5781  0.4023
18931TIP3    H178284   3.376   4.646  12.804 -0.1776 -0.6355 -0.1299
18931TIP3    H278285   3.322   4.582  12.677  0.0708  1.2718 -1.2272
18932TIP3   OH278286   5.609   0.954   6.136 -0.5995  0.4062 -0.3391
18932TIP3    H178287   5.623   0.909   6.219 -1.3201  0.0191 -0.4221
18932TIP3    H278288   5.521   0.991   6.142 -0.5088  0.7061 -0.7738
18933TIP3   OH278289   5.193   5.932  13.304 -0.6835  0.1105  0.2611
18933TIP3    H178290   5.234   5.853  13.340  2.3563  0.6664 -1.6538
18933TIP3    H278291   5.101   5.909  13.296 -0.0252 -3.0399  0.3449
18934TIP3   OH278292   4.958   4.055  15.063 -0.0496  0.1820  0.3423
18934TIP3    H178293   4.903   4.133  15.060 -3.0202 -1.6980  1.3126
18934TIP3    H278294   4.949   4.023  15.152  3.1686  0.0033  0.7173
18935TIP3   OH278295   4.271   2.021  12.008  0.6461  0.2839  0.0682
18935TIP3    H178296   4.344   2.059  12.057  0.9338  1.8013 -1.4620
18935TIP3    H278297   4.309   1.997  11.924 -0.3575 -0.0850 -0.2981
18936TIP3   OH278298   2.751   5.360   6.369 -0.8119 -0.4861 -0.5162
18936TIP3    H178299   2.812   5.420   6.412 -1.1968  0.8848 -1.7785
18936TIP3    H278300   2.686   5.338   6.435 -1.3601  1.5039 -0.3462
18937TIP3   OH278301   5.482   0.982   1.631  0.0349 -0.2720  0.2531
18937TIP3    H178302   5.507   0.991   1.539 -1.1774 -0.4957 -0.1111
18937TIP3    H278303   5.562   0.955   1.675  0.5088 -0.6572 -0.8210
18938TIP3   OH278304   0.863   3.916  15.166 -0.0916  0.1424  0.3514
18938TIP3    H178305   0.771   3.921  15.142  0.4084  0.6586 -1.6667
18938TIP3    H278306   0.864   3.874  15.252 -2.2011  0.3250  0.5050
18939TIP3   OH278307   4.419   0.078   3.949  0.3770 -0.2762 -0.7928
18939TIP3    H178308   4.439   0.038   3.865  0.5183  1.4127 -1.6201
18939TIP3    H278309   4.325   0.099   3.943  0.3674 -0.2339 -0.4941
18940TIP3   OH278310   5.516   1.733  11.807  0.0679 -0.0510 -0.7363
18940TIP3    H178311   5.449   1.690  11.860 -1.0078  1.7488 -0.5502
18940TIP3    H278312   5.587   1.669  11.802 -0.9544 -1.3597  0.5000
18941TIP3   OH278313   5.035   2.656  10.428 -0.4106  0.6354 -0.2243
18941TIP3    H178314   5.101   2.721  10.452  0.7702 -0.1544 -1.1934
18941TIP3    H278315   5.052   2.639  10.335 -2.5999  1.0853 -0.7595
18942TIP3   OH278316   5.559   0.056  12.582  0.4213 -0.0608 -0.1026
18942TIP3    H178317   5.577   0.042  12.675 -0.0485  1.1296  0.1886
18942TIP3    H278318   5.489  -0.006  12.561  0.6915 -0.4961  0.2699
18943TIP3   OH278319   6.685   5.290  12.653 -0.2071 -0.0056  0.0872
18943TIP3    H178320   6.672   5.369  12.706  1.0732  1.1459 -1.2272
18943TIP3    H278321   6.607   5.237  12.669 -1.3175  1.7316  0.6760
18944TIP3   OH278322   1.219   0.183   5.363  0.2089  0.0236 -0.1816
18944TIP3    H178323   1.313   0.196   5.376  0.5627 -0.7409 -1.6931
18944TIP3    H278324   1.190   0.136   5.441  1.0454  0.4039  0.3769
18945TIP3   OH278325   4.293   6.173   2.888  0.6204 -0.1416  0.7230
18945TIP3    H178326   4.319   6.132   2.971  0.5098 -0.8437  0.4188
18945TIP3    H278327   4.348   6.130   2.822  2.5461  2.1812  0.6871
18946TIP3   OH278328   5.449   5.373   1.496  0.3778 -0.4683 -0.4749
18946TIP3    H178329   5.389   5.386   1.569 -0.9410 -1.1672 -1.3944
18946TIP3    H278330   5.449   5.458   1.450 -2.3838 -1.2474 -2.2046
18947TIP3   OH278331   5.950   4.810   1.383  0.2048  0.2406  0.1567
18947TIP3    H178332   6.004   4.791   1.461  1.7221  1.4014 -0.5517
18947TIP3    H278333   5.872   4.852   1.418 -0.8555 -2.4394  1.3158
18948TIP3   OH278334   2.496   3.576  10.736 -0.5821  0.7512  0.1812
18948TIP3    H178335   2.558   3.503  10.746 -0.7314  0.8768  2.5390
18948TIP3    H278336   2.551   3.652  10.720 -0.1642  0.6925  1.2597
18949TIP3   OH278337   3.424   1.327   2.323 -0.0277 -0.5712 -0.2168
18949TIP3    H178338   3.484   1.400   2.340  0.3861 -0.8540 -0.4657
18949TIP3    H278339   3.343   1.369   2.294  0.3277 -0.2200 -0.7181
18950TIP3   OH278340   0.290   1.186   2.791  0.2367  0.4329 -0.1195
18950TIP3    H178341   0.371   1.159   2.748  0.1456 -1.6489  0.8612
18950TIP3    H278342   0.317   1.213   2.879 -0.1813 -1.5859  0.7016
18951TIP3   OH278343   6.074   6.672   4.103  0.0727 -0.0136 -0.3472
18951TIP3    H178344   6.119   6.622   4.172  1.0854  0.0665 -0.9366
18951TIP3    H278345   6.029   6.605   4.051 -1.9481  0.0146  1.2034
18952TIP3   OH278346   4.838   0.404   0.382  0.3759 -0.4276 -0.1370
18952TIP3    H178347   4.827   0.311   0.399 -2.4207 -0.4206 -1.2546
18952TIP3    H278348   4.857   0.409   0.288 -0.3340  0.1310 -0.2616
18953TIP3   OH278349   2.917   4.885   3.309  0.2967 -0.1010 -0.0085
18953TIP3    H178350   2.920   4.974   3.272 -2.5679  0.7479  1.4287
18953TIP3    H278351   2.874   4.833   3.241 -0.2385  0.2264  0.0683
18954TIP3   OH278352   0.053   1.390  12.660  0.3286 -0.1967  0.1085
18954TIP3    H178353   0.098   1.461  12.707  2.3047 -1.0918 -0.3056
18954TIP3    H278354  -0.014   1.434  12.609 -0.2793  1.0597  1.8926
18955TIP3   OH278355   3.543   4.571  11.486 -0.3359 -0.2261 -0.4933
18955TIP3    H178356   3.628   4.564  11.443  0.0309 -0.2248  0.2228
18955TIP3    H278357   3.564   4.586  11.578 -1.1108  0.3197 -0.3954
18956TIP3   OH278358   1.936   3.691  16.029  0.2212 -0.2062  0.6904
18956TIP3    H178359   2.003   3.737  15.978 -0.9032  1.1533  0.3776
18956TIP3    H278360   1.859   3.747  16.023 -0.8017 -1.4750  1.4766
18957TIP3   OH278361   3.096   5.269  12.061 -0.3091  1.0516 -0.3753
18957TIP3    H178362   3.161   5.215  12.105 -0.8423  0.4733 -0.2881
18957TIP3    H278363   3.145   5.346  12.032  0.0896  1.3474  1.0289
18958TIP3   OH278364   1.675   1.749   5.584 -0.2774  0.3115  0.3142
18958TIP3    H178365   1.660   1.842   5.568 -0.0457  0.5779  1.5368
18958TIP3    H278366   1.622   1.729   5.661  1.3625 -0.0277  1.4009
18959TIP3   OH278367   3.197   6.196  14.856  0.3049 -0.4174 -0.2192
18959TIP3    H178368   3.237   6.110  14.843  0.2540 -0.2730 -1.4649
18959TIP3    H278369   3.124   6.180  14.915  2.5300 -0.5773  2.6910
18960TIP3   OH278370   6.414   3.783  13.012  0.1224 -0.6710 -0.0566
18960TIP3    H178371   6.322   3.804  13.025 -0.0702 -1.4501 -0.0820
18960TIP3    H278372   6.462   3.856  13.052 -0.5023 -0.0622 -0.4197
18961TIP3   OH278373   1.219   4.395  14.162 -0.8091 -0.0520  0.2245
18961TIP3    H178374   1.176   4.375  14.246 -0.7810 -1.8526 -0.1574
18961TIP3    H278375   1.206   4.317  14.109  0.8661  0.3017 -0.7804
18962TIP3   OH278376   2.591   1.001  10.342 -0.3682 -0.7404 -0.5061
18962TIP3    H178377   2.667   0.966  10.388 -0.7728  0.7108  1.3840
18962TIP3    H278378   2.629   1.053  10.271  0.3684 -0.9857 -0.3041
18963TIP3   OH278379   0.362   2.456  16.032  0.6137  0.4683 -0.7599
18963TIP3    H178380   0.334   2.375  15.991 -0.4205  0.3837  0.0835
18963TIP3    H278381   0.321   2.456  16.118  0.8895  1.7144 -0.5976
18964TIP3   OH278382   6.589   5.488  11.516  0.0204 -0.5472  0.1163
18964TIP3    H178383   6.530   5.429  11.469 -0.8362 -1.4406  2.1858
18964TIP3    H278384   6.662   5.433  11.543  0.3545 -0.1234  0.0833
18965TIP3   OH278385   6.631   1.179  16.110 -0.0992  0.2756  0.1515
18965TIP3    H178386   6.696   1.151  16.045 -0.7642 -0.4536 -0.2172
18965TIP3    H278387   6.556   1.122  16.094 -1.4781  2.1832 -0.5519
18966TIP3   OH278388   0.799   2.428  15.510  0.1919  0.1935 -0.4520
18966TIP3    H178389   0.727   2.370  15.485  1.0644 -0.5077 -1.4279
18966TIP3    H278390   0.865   2.369  15.547  0.1153  0.8787  0.8117
18967TIP3   OH278391   0.492   2.686  16.147  0.0709 -0.1938  0.5347
18967TIP3    H178392   0.464   2.601  16.114  1.5401 -1.1558  1.6416
18967TIP3    H278393   0.501   2.673  16.241  3.5219  0.1471  0.3848
18968TIP3   OH278394   4.932   0.556   2.047 -0.4213  0.1209 -0.5758
18968TIP3    H178395   4.951   0.536   1.956 -0.7642 -2.0177 -0.2353
18968TIP3    H278396   5.010   0.527   2.095 -0.7935 -0.0456 -0.0611
18969TIP3   OH278397   2.004   4.554   1.461  0.6281 -0.2127 -0.2332
18969TIP3    H178398   1.986   4.537   1.368  2.1476 -2.0678 -0.2531
18969TIP3    H278399   2.099   4.560   1.467  0.4551  2.4521  0.8688
18970TIP3   OH278400   0.841   5.392  16.839  0.6836  0.3746 -0.3105
18970TIP3    H178401   0.889   5.330  16.784 -0.0566  0.8909 -1.5950
18970TIP3    H278402   0.769   5.340  16.876  0.1968  0.3856 -1.2011
18971TIP3   OH278403   5.929   0.227  11.498 -1.0635  0.1086 -0.3233
18971TIP3    H178404   5.928   0.315  11.460 -2.2276 -0.1347 -0.9281
18971TIP3    H278405   5.842   0.217  11.536 -0.1478  0.0885  1.8887
18972TIP3   OH278406   3.367   2.061   0.076  0.2207 -0.1116  0.3756
18972TIP3    H178407   3.373   2.056  -0.019 -2.2070 -1.1702  0.2056
18972TIP3    H278408   3.456   2.084   0.104  1.2699 -0.8361 -2.0530
18973TIP3   OH278409   1.350   3.761   4.389  0.4148  0.8764 -0.5687
18973TIP3    H178410   1.401   3.766   4.470  3.2464  2.0373 -2.2827
18973TIP3    H278411   1.389   3.689   4.340 -2.2588 -0.8259 -0.3655
18974TIP3   OH278412   2.244   0.794   6.478  0.0197  0.1520 -0.5575
18974TIP3    H178413   2.236   0.794   6.574 -2.5711  1.6734 -0.6765
18974TIP3    H278414   2.338   0.791   6.462  0.5695 -4.2285  1.9128
18975TIP3   OH278415   1.572   4.751  10.672  0.1500 -0.4613 -0.4690
18975TIP3    H178416   1.641   4.783  10.614  0.6606  0.9426  0.8397
18975TIP3    H278417   1.504   4.819  10.669  1.5238  1.2982  2.8302
18976TIP3   OH278418   1.261   5.468  10.717  0.0552 -0.2598  0.2713
18976TIP3    H178419   1.268   5.391  10.662  1.4285  1.1802 -1.7029
18976TIP3    H278420   1.351   5.492  10.739 -0.0114  2.5462 -1.8980
18977TIP3   OH278421   6.808   3.674   4.040  0.4650  0.4328  0.4080
18977TIP3    H178422   6.784   3.756   3.996  2.9141  0.7975 -0.4117
18977TIP3    H278423   6.851   3.702   4.122  0.3872 -0.0658  0.6243
18978TIP3   OH278424   6.685   5.760   3.703 -0.3969 -1.0031 -0.1199
18978TIP3    H178425   6.641   5.801   3.778 -1.1796 -1.0425 -0.5516
18978TIP3    H278426   6.762   5.815   3.688  0.2287 -1.4663  1.2212
18979TIP3   OH278427   3.580   0.415  14.488 -0.3079 -0.6774  0.2256
18979TIP3    H178428   3.601   0.458  14.405  0.1362 -2.0542 -0.4059
18979TIP3    H278429   3.604   0.480  14.555  0.5135 -0.0050 -0.6781
18980TIP3   OH278430   0.337   3.897  14.448 -0.7037 -0.3779 -0.2429
18980TIP3    H178431   0.345   3.810  14.408 -0.2415 -1.6906  2.5180
18980TIP3    H278432   0.375   3.956  14.383  4.3306 -2.8725 -0.0208
18981TIP3   OH278433   5.916   1.295  16.825  0.2836  0.3156 -0.5706
18981TIP3    H178434   5.968   1.231  16.776  0.3871 -0.4712  0.5079
18981TIP3    H278435   5.889   1.248  16.904  1.2687  1.9134  0.7935
18982TIP3   OH278436   2.215   4.052   0.304  0.3233  0.4507  1.2186
18982TIP3    H178437   2.295   4.072   0.255 -0.2210  1.6022  0.7466
18982TIP3    H278438   2.207   3.957   0.301  0.6702  0.4448 -0.3661
18983TIP3   OH278439   2.270   0.466  11.823  0.0732 -0.1065  0.5703
18983TIP3    H178440   2.256   0.386  11.772 -1.0033  0.0403  0.6057
18983TIP3    H278441   2.354   0.452  11.867 -1.7330 -2.9229  3.6434
18984TIP3   OH278442   5.605   1.769   5.757 -0.2535  0.4375  0.2440
18984TIP3    H178443   5.670   1.699   5.752 -0.9978 -0.2898  0.3516
18984TIP3    H278444   5.655   1.848   5.777  0.4778 -0.3067  1.4776
18985TIP3   OH278445   3.711   3.078   4.442 -0.1108  0.0766  0.6011
18985TIP3    H178446   3.720   3.164   4.402  2.0147  0.2863  1.4099
18985TIP3    H278447   3.766   3.081   4.520  1.9293 -2.7104 -0.5582
18986TIP3   OH278448   6.427   4.136  10.674  1.0032 -0.4717 -0.7740
18986TIP3    H178449   6.338   4.117  10.644  0.8244 -1.0036  0.0826
18986TIP3    H278450   6.425   4.229  10.697  0.1425 -0.8960  1.0040
18987TIP3   OH278451   1.240   3.554  15.044 -0.0879  0.4637 -0.8029
18987TIP3    H178452   1.150   3.565  15.075 -0.4814 -0.0209 -1.7457
18987TIP3    H278453   1.268   3.470  15.079  0.1677  0.8150 -0.1385
18988TIP3   OH278454   0.389   5.960  11.584 -0.2087 -0.1600  0.1861
18988TIP3    H178455   0.381   5.907  11.662 -0.8527 -2.4766 -1.3574
18988TIP3    H278456   0.483   5.971  11.571  0.1530 -3.4654 -0.9491
18989TIP3   OH278457   3.690   1.335  12.402 -0.2436  0.1723  0.1969
18989TIP3    H178458   3.721   1.373  12.484  0.4070 -0.9525  0.4926
18989TIP3    H278459   3.759   1.355  12.339  0.7152 -1.5363  0.6421
18990TIP3   OH278460   2.433   4.460  11.644  0.0327  0.1640 -0.0174
18990TIP3    H178461   2.443   4.528  11.711  0.7072 -0.1717  0.2381
18990TIP3    H278462   2.365   4.493  11.585  0.6409  1.2560 -0.1285
18991TIP3   OH278463   4.140   1.510   1.710  0.2224 -0.4989 -0.1125
18991TIP3    H178464   4.045   1.509   1.723  0.2289  0.4691  0.0991
18991TIP3    H278465   4.152   1.490   1.617 -0.2475  0.2420 -0.3430
18992TIP3   OH278466   5.049   6.489   1.568 -0.0831  0.1919 -0.3206
18992TIP3    H178467   4.990   6.466   1.639 -0.1284  0.8834 -0.1317
18992TIP3    H278468   5.135   6.498   1.610  0.4910 -2.2079 -0.8008
18993TIP3   OH278469   6.276   5.686  15.424 -0.3188  0.0420  0.1369
18993TIP3    H178470   6.251   5.643  15.506 -0.7478  0.5849  0.3007
18993TIP3    H278471   6.228   5.768  15.425 -1.2679 -0.4640 -1.2285
18994TIP3   OH278472   1.593   6.123   0.373  0.0023  0.2826  0.6907
18994TIP3    H178473   1.517   6.181   0.381  0.0476  0.4247  0.0979
18994TIP3    H278474   1.574   6.068   0.297  1.2229  1.4394 -0.5076
18995TIP3   OH278475   6.366   3.356   0.777  0.3915  0.4703  0.0729
18995TIP3    H178476   6.384   3.321   0.690  0.0859  2.0494 -0.6702
18995TIP3    H278477   6.450   3.350   0.823  0.3749 -1.0532 -0.0616
18996TIP3   OH278478   5.568   5.761  13.296 -0.3486  0.2992 -0.6296
18996TIP3    H178479   5.483   5.746  13.255 -0.8025  1.3847 -0.1153
18996TIP3    H278480   5.553   5.747  13.389  0.1224  0.1987 -0.5642
18997TIP3   OH278481   0.712   0.335   5.546  0.4128 -0.2260 -0.4043
18997TIP3    H178482   0.748   0.314   5.460 -2.2558  0.1233 -1.7406
18997TIP3    H278483   0.670   0.254   5.575 -1.0824  0.3702 -0.7906
18998TIP3   OH278484   1.237   1.109   4.179  0.5274 -0.0429  0.1066
18998TIP3    H178485   1.194   1.147   4.255 -0.8572  2.0909 -1.6029
18998TIP3    H278486   1.232   1.015   4.193 -1.3391  0.2333  1.7937
18999TIP3   OH278487   1.816   2.050  15.134 -0.4093 -0.1329 -0.0856
18999TIP3    H178488   1.883   1.982  15.128 -0.1836  0.0164  0.6691
18999TIP3    H278489   1.812   2.088  15.046  0.9753  0.3078  0.0174
19000TIP3   OH278490   0.428   1.285  15.379  0.6509 -0.1726  0.3019
19000TIP3    H178491   0.481   1.206  15.384  0.5143 -0.2946 -0.1524
19000TIP3    H278492   0.369   1.280  15.454  1.9897  0.4923  1.4610
19001TIP3   OH278493   1.143   3.249  12.321 -0.1564  0.3636 -0.8094
19001TIP3    H178494   1.080   3.180  12.302  1.4262 -1.4162  0.0033
19001TIP3    H278495   1.196   3.256  12.242  1.3105 -1.2587 -0.0245
19002TIP3   OH278496   0.607   2.939   0.143  0.0675  0.5067 -0.0121
19002TIP3    H178497   0.551   2.928   0.067  1.4195  0.2779 -1.0148
19002TIP3    H278498   0.680   2.879   0.129 -0.0568 -0.1673  1.8905
19003TIP3   OH278499   3.470   6.178   2.560  0.1598 -0.0702 -0.2529
19003TIP3    H178500   3.404   6.235   2.600 -0.8035 -0.5654 -1.1007
19003TIP3    H278501   3.422   6.127   2.496  0.6150 -3.1007  1.6181
19004TIP3   OH278502   5.026   1.848   5.695 -0.0536 -0.1053 -0.0279
19004TIP3    H178503   5.014   1.810   5.608  0.9586  2.1413 -1.2161
19004TIP3    H278504   5.113   1.888   5.692 -0.7874  1.7390  1.3078
19005TIP3   OH278505   2.873   1.151  13.241  0.0734 -0.9406  0.5217
19005TIP3    H178506   2.787   1.176  13.275  0.5981 -0.1738  1.3488
19005TIP3    H278507   2.930   1.152  13.318  0.8124 -1.4880 -0.0053
19006TIP3   OH278508   0.157   1.283   1.416  0.0517  0.3630  0.3411
19006TIP3    H178509   0.207   1.364   1.425 -0.5758  0.6083  2.0817
19006TIP3    H278510   0.189   1.227   1.487  1.1690 -1.3365 -1.4331
19007TIP3   OH278511   3.878   4.035  12.341 -0.4810  0.1688 -0.3624
19007TIP3    H178512   3.801   3.995  12.381 -0.7600 -0.7487 -1.7360
19007TIP3    H278513   3.951   3.979  12.368 -0.3826  0.6120  0.3286
19008TIP3   OH278514   1.517   2.122  13.905 -0.0073 -0.9164  0.3552
19008TIP3    H178515   1.488   2.090  13.991  0.7602 -1.8022  0.2944
19008TIP3    H278516   1.612   2.133  13.915 -0.0943  0.2513  0.0142
19009TIP3   OH278517   2.994   5.894  15.846 -0.3534  0.1888  0.0237
19009TIP3    H178518   2.983   5.906  15.941  0.4745  1.0541  0.0205
19009TIP3    H278519   2.938   5.819  15.825 -1.6139  0.8119  0.9659
19010TIP3   OH278520   4.236   4.220  15.493 -0.2650 -0.7764 -0.4907
19010TIP3    H178521   4.225   4.128  15.466  1.0493 -0.9229 -0.5733
19010TIP3    H278522   4.179   4.229  15.570  0.4830 -1.9983  0.2328
19011TIP3   OH278523   2.539   1.929   2.611 -0.0361 -0.2195  0.6554
19011TIP3    H178524   2.484   1.898   2.539  1.9280 -1.0760 -0.5719
19011TIP3    H278525   2.528   2.024   2.611 -1.4092 -0.3601  0.3952
19012TIP3   OH278526   4.429   1.644  13.017  0.1175  0.4188  0.1749
19012TIP3    H178527   4.401   1.617  13.105  0.9004  1.4539  0.7709
19012TIP3    H278528   4.485   1.720  13.033  0.7478  0.2652 -1.1860
19013TIP3   OH278529   0.341   0.810  10.671 -0.2138 -0.0261  0.2037
19013TIP3    H178530   0.294   0.893  10.661 -0.9341 -0.5030 -0.5431
19013TIP3    H278531   0.401   0.808  10.597  1.2597  0.7365  1.3441
19014TIP3   OH278532   3.357   6.045  16.781  0.5336  0.1042 -0.2321
19014TIP3    H178533   3.369   6.125  16.730 -0.4314  0.3907 -0.0367
19014TIP3    H278534   3.308   5.986  16.722  0.5673 -0.0581 -0.0995
19015TIP3   OH278535   1.307   0.246  11.691 -0.5793  0.7115  0.1078
19015TIP3    H178536   1.255   0.174  11.656 -0.6810  0.5991  0.4899
19015TIP3    H278537   1.396   0.212  11.696 -0.5910  0.6792  0.0964
19016TIP3   OH278538   0.896   4.738   1.161  0.1931 -0.1818  0.5686
19016TIP3    H178539   0.913   4.784   1.079  0.7678  0.0270  0.7971
19016TIP3    H278540   0.867   4.807   1.221 -1.2575 -0.4990  0.2514
19017TIP3   OH278541   5.019   3.068   4.772 -0.2465 -0.2170 -0.5015
19017TIP3    H178542   4.960   3.103   4.705 -0.6793  3.7893  1.6566
19017TIP3    H278543   5.094   3.034   4.723 -0.7691  2.0063 -3.0727
19018TIP3   OH278544   0.611   1.713  16.220  0.3467  0.1812  0.2530
19018TIP3    H178545   0.581   1.761  16.143  0.1406  0.9130  0.7779
19018TIP3    H278546   0.615   1.622  16.191 -0.2805  0.3666 -0.4514
19019TIP3   OH278547   1.548   6.067   6.258 -0.1363 -0.3504  0.5378
19019TIP3    H178548   1.620   6.126   6.235 -1.4423  1.3232  0.5232
19019TIP3    H278549   1.557   6.054   6.352 -1.6014  2.5579  1.2235
19020TIP3   OH278550   6.552   1.648   1.012  0.3200 -0.2415 -0.0114
19020TIP3    H178551   6.519   1.606   1.092  0.2757 -0.2905 -0.0554
19020TIP3    H278552   6.642   1.615   1.004 -0.3033 -1.7632 -1.0369
19021TIP3   OH278553   5.978   5.324  14.531 -0.1291 -0.8406  0.3672
19021TIP3    H178554   6.067   5.295  14.552  0.2425  0.1216  0.1621
19021TIP3    H278555   5.935   5.334  14.616  0.6318  0.7571  0.5857
19022TIP3   OH278556   0.970   5.712   5.620  0.0929 -0.0969 -0.0569
19022TIP3    H178557   0.924   5.640   5.664  1.3999 -0.5030  0.6960
19022TIP3    H278558   0.940   5.707   5.529  0.6021 -1.9886 -0.1583
19023TIP3   OH278559   3.045   0.416   3.583  0.7513  0.5056 -0.1549
19023TIP3    H178560   3.119   0.450   3.534  0.0945  0.5451 -1.1595
19023TIP3    H278561   2.983   0.386   3.515 -0.2772  0.7565  0.6450
19024TIP3   OH278562   4.568   2.649  15.562 -0.0954 -0.6986  0.0212
19024TIP3    H178563   4.556   2.586  15.491 -0.7399 -0.8289  0.2460
19024TIP3    H278564   4.573   2.596  15.641 -0.2974 -0.4927  0.1755
19025TIP3   OH278565   4.267   5.409   3.358 -0.3348 -0.5145 -0.6287
19025TIP3    H178566   4.176   5.407   3.328 -0.3065  1.0260 -0.8828
19025TIP3    H278567   4.319   5.403   3.277 -0.2028 -0.8737 -0.5216
19026TIP3   OH278568   0.370   3.617  17.077 -0.2749 -0.1420 -0.3442
19026TIP3    H178569   0.432   3.562  17.029 -0.8186  0.6921 -2.0464
19026TIP3    H278570   0.335   3.677  17.012 -0.6815  1.3632  1.1992
19027TIP3   OH278571   2.995   2.749   3.800 -0.1495 -0.3530 -0.1993
19027TIP3    H178572   3.055   2.739   3.726 -0.1056 -2.2109  0.0304
19027TIP3    H278573   3.012   2.836   3.833  1.0476 -0.1229 -1.3310
19028TIP3   OH278574   4.168   4.059   4.000  0.4940  0.0741 -0.4669
19028TIP3    H178575   4.184   4.130   3.938  3.9037  0.0132  0.1190
19028TIP3    H278576   4.116   4.099   4.070 -1.7646  0.6299 -2.3490
19029TIP3   OH278577   0.125   6.522   4.590  0.4154  0.4168 -0.3050
19029TIP3    H178578   0.196   6.562   4.641  1.6532 -0.9253 -0.8882
19029TIP3    H278579   0.096   6.449   4.644  1.7217 -1.0056 -1.4188
19030TIP3   OH278580   3.125   1.653   4.710  0.2101 -0.0531 -0.1027
19030TIP3    H178581   3.171   1.589   4.656  0.6500  0.4451 -0.3245
19030TIP3    H278582   3.032   1.631   4.700  0.4088 -1.2838  0.6380
19031TIP3   OH278583   6.180   1.579  12.578  0.5213 -0.4658 -0.3804
19031TIP3    H178584   6.117   1.613  12.515  0.1566 -2.0640 -0.9266
19031TIP3    H278585   6.255   1.637  12.570 -0.1065  0.2616 -1.1991
19032TIP3   OH278586   2.629   2.744  13.573 -0.1665 -0.2498  0.3997
19032TIP3    H178587   2.623   2.800  13.650 -0.8123  2.3428 -1.4024
19032TIP3    H278588   2.711   2.770  13.530 -0.3537 -0.8577 -0.3619
19033TIP3   OH278589   4.700   0.008   2.073 -0.3208  0.2019 -0.6046
19033TIP3    H178590   4.633   0.052   2.020 -0.5112  0.6719  0.0184
19033TIP3    H278591   4.650  -0.050   2.131 -0.3368  1.6180  0.8804
19034TIP3   OH278592   5.784   0.694   2.954  0.0488 -0.1212 -0.6522
19034TIP3    H178593   5.702   0.716   2.909 -0.8387  1.2327  1.4773
19034TIP3    H278594   5.841   0.769   2.937 -0.6760  0.9263  1.2583
19035TIP3   OH278595   1.764   3.769  13.328  0.1582 -0.1331 -0.1956
19035TIP3    H178596   1.705   3.843  13.345  0.6251  0.0266  0.8178
19035TIP3    H278597   1.845   3.809  13.297 -0.6793 -0.4220 -3.0736
19036TIP3   OH278598   6.841   3.657   6.133  0.1686  0.9493  0.3703
19036TIP3    H178599   6.846   3.633   6.225  0.2105  0.7802  0.3254
19036TIP3    H278600   6.767   3.717   6.127 -0.8434 -0.2612  0.2596
19037TIP3   OH278601   5.555   3.806  15.193  0.1426  0.5451  0.1066
19037TIP3    H178602   5.585   3.793  15.103  0.1792  0.0139  0.1893
19037TIP3    H278603   5.488   3.739  15.205  2.1471 -1.3777  1.4004
19038TIP3   OH278604   6.663   4.973   1.816  0.0001 -0.0739 -0.4708
19038TIP3    H178605   6.623   5.042   1.869  1.1212  0.5210 -0.3564
19038TIP3    H278606   6.614   4.894   1.838  1.0160 -0.0622  2.2191
19039TIP3   OH278607   0.421   0.981  14.243 -1.0798 -0.8469 -0.4252
19039TIP3    H178608   0.368   1.041  14.190 -2.6383 -0.0577  1.8978
19039TIP3    H278609   0.472   1.038  14.300 -0.3660 -1.7021 -0.1938
19040TIP3   OH278610   6.024   1.673  11.449  0.4120 -0.2199 -0.3342
19040TIP3    H178611   5.939   1.702  11.483  0.8120 -1.6472  2.0836
19040TIP3    H278612   6.031   1.582  11.477  2.2216 -0.5267 -1.6023
19041TIP3   OH278613   0.408   4.083  14.240  0.2570  0.4578  0.1387
19041TIP3    H178614   0.422   4.016  14.173  4.2289 -1.9390  2.8891
19041TIP3    H278615   0.450   4.162  14.205 -0.8213  0.3310 -1.5046
19042TIP3   OH278616   1.212   3.616   1.751  0.2063 -0.1909  0.0235
19042TIP3    H178617   1.270   3.547   1.782  0.4644 -0.2556 -0.5947
19042TIP3    H278618   1.263   3.662   1.685  0.3713  1.1716  1.0664
19043TIP3   OH278619   1.902   3.287   2.259 -0.0849 -0.4856 -0.2507
19043TIP3    H178620   1.891   3.262   2.167 -0.8232 -1.4838  0.0837
19043TIP3    H278621   1.857   3.371   2.267 -1.5132 -1.1954 -0.4532
19044TIP3   OH278622   0.827   3.073  13.451  0.4200  0.7830 -0.2881
19044TIP3    H178623   0.769   3.114  13.516 -2.8228 -3.4625 -0.0538
19044TIP3    H278624   0.906   3.051  13.500 -0.2222  1.4555  1.1033
19045TIP3   OH278625   4.550   0.280   5.918 -0.6446 -0.1924 -0.3730
19045TIP3    H178626   4.619   0.235   5.966  1.7397  1.9816 -1.5159
19045TIP3    H278627   4.536   0.227   5.839  0.7838  0.0624 -0.8162
19046TIP3   OH278628   3.011   4.898  11.704 -0.3107 -0.0214  0.0336
19046TIP3    H178629   3.004   4.812  11.746 -0.8585 -0.2657 -0.5364
19046TIP3    H278630   2.965   4.957  11.764 -3.8157 -0.8712 -1.5664
19047TIP3   OH278631   1.085   0.940  16.578 -0.4173 -0.2006  0.3336
19047TIP3    H178632   1.032   0.986  16.643 -1.4098 -0.2701 -0.3918
19047TIP3    H278633   1.170   0.983  16.581 -1.5598  2.4089 -0.9796
19048TIP3   OH278634   3.641   2.402  11.900 -0.2057  0.1136  0.7534
19048TIP3    H178635   3.626   2.382  11.992 -3.0607 -1.0096  0.1606
19048TIP3    H278636   3.555   2.392  11.859  1.0417  0.1473 -2.1260
19049TIP3   OH278637   1.028   2.636  16.322  0.2122 -1.1346 -0.0297
19049TIP3    H178638   1.104   2.671  16.369  1.2513 -0.4937 -2.0541
19049TIP3    H278639   0.956   2.642  16.384  1.4561 -0.1651  1.3942
19050TIP3   OH278640   4.456   6.699   0.714 -0.0735 -0.1311  0.2290
19050TIP3    H178641   4.497   6.619   0.745  0.5108 -0.5024 -1.4058
19050TIP3    H278642   4.362   6.680   0.713 -0.1711  0.0952  2.2338
19051TIP3   OH278643   1.190   0.863  12.775  0.5961  0.3302 -0.5542
19051TIP3    H178644   1.105   0.874  12.732  0.0840  1.8906  0.7554
19051TIP3    H278645   1.170   0.823  12.859  1.0266  1.5264  0.1396
19052TIP3   OH278646   3.968   0.906  13.045 -0.1574 -0.0479 -0.6170
19052TIP3    H178647   4.020   0.968  12.995 -1.5106  1.6516 -0.0087
19052TIP3    H278648   3.887   0.897  12.996 -0.4422 -0.4387 -0.0913
19053TIP3   OH278649   2.718   3.262   0.921 -0.0365 -0.4193 -0.0647
19053TIP3    H178650   2.786   3.283   0.985  0.2245  1.6937 -0.9632
19053TIP3    H278651   2.638   3.301   0.957  0.2350  1.3525 -1.2326
19054TIP3   OH278652   1.570   4.288  13.491  0.4102 -0.3164 -0.3498
19054TIP3    H178653   1.512   4.269  13.565  0.6096 -0.4270 -0.2200
19054TIP3    H278654   1.596   4.379  13.504  2.5492 -1.0528  1.2168
19055TIP3   OH278655   2.987   0.434  12.241  0.0405  0.0522 -0.3165
19055TIP3    H178656   2.951   0.507  12.191  1.0770  1.2501  0.6021
19055TIP3    H278657   2.923   0.364  12.231 -0.5462  0.7673 -1.9823
19056TIP3   OH278658   2.540   5.378   1.599  0.2314  0.1112  0.1428
19056TIP3    H178659   2.502   5.312   1.542  1.0216  1.0940 -1.6106
19056TIP3    H278660   2.491   5.458   1.578 -1.2494  0.0152  2.7861
19057TIP3   OH278661   4.160   2.769  14.127  0.0807  0.0380  0.3418
19057TIP3    H178662   4.183   2.695  14.071 -1.0301 -0.6240  0.7325
19057TIP3    H278663   4.080   2.806  14.087  0.7943  1.2557 -0.0407
19058TIP3   OH278664   4.556   5.502   5.006 -0.2687  0.0010  0.9970
19058TIP3    H178665   4.647   5.529   5.001 -0.8998  2.3126  1.0528
19058TIP3    H278666   4.508   5.581   5.029 -2.2101 -1.3439  1.8848
19059TIP3   OH278667   2.008   2.649   4.070 -0.1616  0.2928 -0.1662
19059TIP3    H178668   2.045   2.624   3.985  1.6993  1.1616  0.3499
19059TIP3    H278669   2.022   2.743   4.075 -1.0552  0.3932  0.7569
19060TIP3   OH278670   0.965   1.375   0.535  0.0751  0.2012  0.1084
19060TIP3    H178671   1.006   1.381   0.449 -1.5234 -0.0088 -0.7126
19060TIP3    H278672   0.885   1.426   0.527 -0.3555 -0.2460  1.3183
19061TIP3   OH278673   4.631   4.024  12.790 -0.4382  0.2199  0.5329
19061TIP3    H178674   4.565   4.094  12.789 -0.2934  0.3598  0.6979
19061TIP3    H278675   4.681   4.039  12.710 -0.8867 -0.1575  0.1783
19062TIP3   OH278676   3.568   2.562  13.972 -0.1485  1.0605 -0.1100
19062TIP3    H178677   3.555   2.573  14.066  2.9928 -1.1113  0.7217
19062TIP3    H278678   3.526   2.478  13.951  0.7142  0.6521 -0.2369
19063TIP3   OH278679   1.243   1.580  10.815  0.2820  0.6053  0.2713
19063TIP3    H178680   1.270   1.620  10.898 -1.4754  1.0365  0.6787
19063TIP3    H278681   1.275   1.640  10.748 -0.1709  1.4073  0.7535
19064TIP3   OH278682   1.174   4.469   5.284 -0.2776  0.6110  0.0863
19064TIP3    H178683   1.178   4.468   5.189 -1.4813 -0.4139  0.0151
19064TIP3    H278684   1.246   4.525   5.311  1.1794 -0.4807 -1.3673
19065TIP3   OH278685   4.124   1.301  15.507 -0.1492 -0.5631  0.0461
19065TIP3    H178686   4.059   1.341  15.566 -0.1264 -1.3302  0.5998
19065TIP3    H278687   4.072   1.243  15.451 -0.1025 -0.2143 -0.3638
19066TIP3   OH278688   6.253   5.974   0.731  0.2699  0.3719  0.0695
19066TIP3    H178689   6.346   5.980   0.751  0.3386 -0.4252  0.0043
19066TIP3    H278690   6.231   5.882   0.747 -0.7352  0.7648  1.1296
19067TIP3   OH278691   0.102   2.656  15.807 -0.5814 -0.1041  0.2653
19067TIP3    H178692   0.062   2.569  15.801 -0.9124  0.0964 -0.5240
19067TIP3    H278693   0.065   2.694  15.887  0.2169 -1.0033  1.0925
19068TIP3   OH278694   4.346   4.413  15.108  0.0453  0.0654  0.0787
19068TIP3    H178695   4.269   4.373  15.068 -1.1756  1.8660  0.4975
19068TIP3    H278696   4.323   4.422  15.201 -0.1920  2.5817 -0.1577
19069TIP3   OH278697   5.302   4.135   5.528  0.2891 -0.6000 -0.1493
19069TIP3    H178698   5.347   4.085   5.460  1.4094  0.9995 -0.6673
19069TIP3    H278699   5.227   4.174   5.484  0.2571 -0.6541 -0.1417
19070TIP3   OH278700   4.365   5.030  15.812 -0.3816 -0.1744 -0.4185
19070TIP3    H178701   4.385   5.118  15.781 -0.7275  0.0549  0.0111
19070TIP3    H278702   4.448   4.998  15.846 -0.2854  0.0295 -0.4575
19071TIP3   OH278703   1.237   0.170  10.506 -0.2742  0.6245  1.1299
19071TIP3    H178704   1.209   0.143  10.593 -1.3231  0.4425  0.7552
19071TIP3    H278705   1.272   0.258  10.517 -1.6194  1.1218  1.5240
19072TIP3   OH278706   1.008   0.438  12.292  0.1110  0.2555  0.1474
19072TIP3    H178707   0.955   0.499  12.241 -0.3680 -1.0166 -0.9439
19072TIP3    H278708   1.098   0.461  12.270 -0.0855 -0.8383 -2.0781
19073TIP3   OH278709   2.736   6.181  11.643  0.1270  0.5312 -0.4704
19073TIP3    H178710   2.804   6.140  11.590  0.9787  0.4720  0.6294
19073TIP3    H278711   2.662   6.192  11.583  0.6475 -0.5922 -1.3571
19074TIP3   OH278712   4.027   3.302  13.025  0.0038 -0.2315 -0.2012
19074TIP3    H178713   4.052   3.211  13.008 -1.3901 -0.5962 -0.4350
19074TIP3    H278714   4.058   3.319  13.114 -0.7154 -1.3196  0.2776
19075TIP3   OH278715   3.183   2.179   6.139  0.0465 -0.1308  0.3261
19075TIP3    H178716   3.185   2.179   6.235 -1.6450  0.8182  0.3960
19075TIP3    H278717   3.251   2.117   6.114  0.4208 -0.5167  2.1400
19076TIP3   OH278718   2.993   2.001   2.976  0.1775  0.1604  0.4046
19076TIP3    H178719   2.987   2.004   2.881  2.2828 -0.5445  0.1967
19076TIP3    H278720   2.948   2.081   3.005  0.0638  0.7271 -1.2095
19077TIP3   OH278721   6.105   3.144   2.601 -0.8513 -0.4029  0.5142
19077TIP3    H178722   6.031   3.149   2.661 -2.5311  1.5167 -1.5102
19077TIP3    H278723   6.115   3.051   2.582 -2.5259 -0.7511  1.1507
19078TIP3   OH278724   6.170   4.490  13.454 -0.1121 -0.5407 -0.0842
19078TIP3    H178725   6.115   4.416  13.427  0.9404 -1.0897 -0.7753
19078TIP3    H278726   6.223   4.510  13.377  0.2699  0.3455  0.3905
19079TIP3   OH278727   2.239   6.808  11.470  0.1592  0.0839  0.3527
19079TIP3    H178728   2.329   6.778  11.480  0.7714  1.7331  0.1925
19079TIP3    H278729   2.248   6.897  11.435 -1.5224  0.4239  0.7157
19080TIP3   OH278730   4.094   4.788  13.723 -0.1495  0.4310  0.6118
19080TIP3    H178731   4.156   4.861  13.721 -2.1988  2.2846  1.1220
19080TIP3    H278732   4.075   4.775  13.815 -2.7049  1.9702  0.4083
19081TIP3   OH278733   5.001   6.130  10.418 -0.7409  0.0006  0.6451
19081TIP3    H178734   4.929   6.101  10.474 -0.2581 -1.0957  0.7352
19081TIP3    H278735   5.000   6.068  10.344  0.4274 -0.3765  0.9195
19082TIP3   OH278736   2.805   6.247  12.168  0.8783 -0.2501  0.2475
19082TIP3    H178737   2.874   6.308  12.141 -0.1479  1.1069  0.5508
19082TIP3    H278738   2.749   6.238  12.091 -1.2161  2.4504  1.2612
19083TIP3   OH278739   4.642   2.248  12.668 -0.3706 -0.0044  0.0017
19083TIP3    H178740   4.649   2.170  12.613 -1.5217 -0.7500  0.8594
19083TIP3    H278741   4.553   2.279  12.654  0.3610  1.7723 -1.0679
19084TIP3   OH278742   2.202   3.880   3.369  0.0706 -0.0237 -0.3475
19084TIP3    H178743   2.166   3.967   3.383 -0.7681 -0.3631 -0.3534
19084TIP3    H278744   2.216   3.845   3.457  2.0020  0.7334 -0.3004
19085TIP3   OH278745   5.826   3.561  12.041 -0.1693  0.1473 -0.8204
19085TIP3    H178746   5.896   3.624  12.059  0.0864 -0.1448 -0.7910
19085TIP3    H278747   5.869   3.491  11.991  0.1046 -1.2087  1.1792
19086TIP3   OH278748   6.503   4.441  15.099 -0.2838  0.3453 -0.3710
19086TIP3    H178749   6.534   4.506  15.036  0.9123 -0.4935 -0.6760
19086TIP3    H278750   6.413   4.423  15.072 -1.0672  2.6672  0.3976
19087TIP3   OH278751   1.514   1.605   3.217  0.5400  0.1807  0.2795
19087TIP3    H178752   1.485   1.684   3.262  0.2601  0.0385  0.3500
19087TIP3    H278753   1.609   1.616   3.209  0.2235  1.8021 -2.1842
19088TIP3   OH278754   5.562   4.510   4.318 -0.4704  0.0690 -0.1691
19088TIP3    H178755   5.618   4.521   4.394 -0.7051 -1.7140  0.3124
19088TIP3    H278756   5.605   4.559   4.248  0.1933  1.0121  0.8865
19089TIP3   OH278757   0.254   4.534  13.753  0.2776  0.1539 -0.2860
19089TIP3    H178758   0.193   4.600  13.786  2.0827  1.1646  1.2589
19089TIP3    H278759   0.337   4.555  13.796  1.0570 -2.8595 -0.0924
19090TIP3   OH278760   6.067   4.854   5.253 -0.0511  0.3708  0.0689
19090TIP3    H178761   6.136   4.859   5.319  0.2657  2.8884 -0.3581
19090TIP3    H278762   6.043   4.945   5.235 -1.1800 -0.2765 -2.1952
19091TIP3   OH278763   5.624   6.032   3.906  0.6060  0.4283  0.0080
19091TIP3    H178764   5.632   5.969   3.977  0.3533  0.5126  0.1140
19091TIP3    H278765   5.699   6.015   3.850 -0.1013 -0.7659 -0.6086
19092TIP3   OH278766   3.440   3.713   5.717  0.1217  0.9212  0.1908
19092TIP3    H178767   3.446   3.763   5.798  1.2562  1.4599 -0.2118
19092TIP3    H278768   3.469   3.773   5.649  1.0144 -0.1198 -0.3722
19093TIP3   OH278769   2.906   4.758   3.607  0.2230 -0.4115  0.3334
19093TIP3    H178770   2.840   4.690   3.622 -1.3990  0.4442 -2.1863
19093TIP3    H278771   2.918   4.760   3.512  0.6358  2.4001  0.3373
19094TIP3   OH278772   0.483   0.175   0.692  0.4257 -0.0494 -0.3379
19094TIP3    H178773   0.557   0.188   0.632  1.3471 -1.1744  0.5317
19094TIP3    H278774   0.515   0.206   0.776 -0.6028  0.7945 -0.2388
19095TIP3   OH278775   6.488   0.084  16.511  0.5137  0.2900  0.1852
19095TIP3    H178776   6.538   0.036  16.577 -0.1874 -0.0976  0.4481
19095TIP3    H278777   6.498   0.031  16.431  1.6797  0.9608 -0.1371
19096TIP3   OH278778   6.129   0.334   2.496  0.2740 -0.3283  0.2286
19096TIP3    H178779   6.046   0.290   2.476 -0.5359  1.4765 -0.6386
19096TIP3    H278780   6.194   0.290   2.440 -0.4469 -0.6033 -0.4118
19097TIP3   OH278781   3.522   0.821  16.734 -0.3518 -0.2172  0.1905
19097TIP3    H178782   3.454   0.754  16.734 -1.9417  1.2477  2.4038
19097TIP3    H278783   3.480   0.897  16.694  0.3245  0.3850  0.6051
19098TIP3   OH278784   5.286   1.217   2.383  0.1082  0.1648  0.6428
19098TIP3    H178785   5.364   1.273   2.387 -0.8370  1.9764 -2.5874
19098TIP3    H278786   5.218   1.266   2.429  0.0444  0.1804  0.5320
19099TIP3   OH278787   4.127   0.031   6.631 -0.0463  0.5994  0.5370
19099TIP3    H178788   4.034   0.009   6.628 -0.0883  0.8285 -0.2148
19099TIP3    H278789   4.131   0.108   6.687 -0.4015  0.9798  0.0541
19100TIP3   OH278790   3.475   0.873  14.620  0.0066  0.1494 -0.4255
19100TIP3    H178791   3.410   0.894  14.686  1.4725  0.1234  1.0944
19100TIP3    H278792   3.506   0.785  14.644 -0.4769 -0.5093 -2.0512
19101TIP3   OH278793   1.019   2.613  13.581 -0.3048  0.8953 -0.2720
19101TIP3    H178794   1.088   2.570  13.531 -1.5327 -1.0652 -0.4042
19101TIP3    H278795   1.064   2.654  13.654  1.1034  0.5308 -0.9030
19102TIP3   OH278796   3.214   0.462   3.377 -0.2542 -0.1135 -1.4858
19102TIP3    H178797   3.255   0.461   3.290  0.2935  0.8177 -1.2623
19102TIP3    H278798   3.225   0.553   3.407  1.5875 -0.8768  0.4762
19103TIP3   OH278799   1.093   2.490   4.108  0.6917  0.3875  0.8889
19103TIP3    H178800   1.020   2.430   4.128 -0.0673  0.6732 -0.8508
19103TIP3    H278801   1.051   2.566   4.068  2.0141 -0.1750 -1.8092
19104TIP3   OH278802   1.759   2.188  13.855  0.6786 -0.3203  0.4168
19104TIP3    H178803   1.801   2.273  13.844  1.9190 -0.7709  1.3706
19104TIP3    H278804   1.773   2.142  13.772  0.0696  0.3563 -0.0722
19105TIP3   OH278805   1.336   4.820   3.883 -0.0179 -0.0231 -0.4940
19105TIP3    H178806   1.381   4.766   3.949 -1.5534  1.3319  1.7904
19105TIP3    H278807   1.377   4.906   3.892 -0.3893  0.2249 -1.1669
19106TIP3   OH278808   0.286   4.569  15.873  0.0291  0.0641 -0.0114
19106TIP3    H178809   0.295   4.631  15.945 -0.4880  0.7238 -0.5064
19106TIP3    H278810   0.339   4.605  15.802 -1.6102  0.8657 -0.8847
19107TIP3   OH278811   1.043   2.163   2.574 -0.2508  0.6854  0.3295
19107TIP3    H178812   0.952   2.174   2.599 -0.1675  0.7277  0.6109
19107TIP3    H278813   1.061   2.070   2.587 -0.7902  0.2737 -1.5113
19108TIP3   OH278814   5.708   6.102   0.930 -0.4097  0.3072 -0.7122
19108TIP3    H178815   5.712   6.007   0.917 -1.2526  0.2208 -0.4057
19108TIP3    H278816   5.749   6.117   1.015  0.5257  0.3233 -1.1536
19109TIP3   OH278817   6.078   5.125  13.594 -0.0127 -0.2340  0.1050
19109TIP3    H178818   6.007   5.187  13.576  0.1889 -0.2343 -0.7121
19109TIP3    H278819   6.037   5.039  13.587  0.1290 -0.2436 -0.6744
19110TIP3   OH278820   5.189   2.393   5.952 -0.0769 -0.5073 -0.1569
19110TIP3    H178821   5.205   2.471   5.899  1.4335 -0.8516 -0.2438
19110TIP3    H278822   5.245   2.404   6.028 -0.3090 -1.2271  0.1208
19111TIP3   OH278823   2.033   3.878   6.257  0.2632 -0.2227 -0.0014
19111TIP3    H178824   1.975   3.941   6.216 -0.3828  0.1751  1.4607
19111TIP3    H278825   2.093   3.851   6.187 -1.2613 -0.1775 -1.3805
19112TIP3   OH278826   4.719   6.827  10.126 -0.0873  0.2745 -0.4892
19112TIP3    H178827   4.784   6.881  10.171  0.2132  0.4045 -1.0724
19112TIP3    H278828   4.747   6.737  10.142  0.2410  0.3296 -0.7381
19113TIP3   OH278829   5.889   1.670   0.746 -0.2979 -0.0890 -0.1381
19113TIP3    H178830   5.856   1.717   0.822  0.0125  1.0175 -0.6567
19113TIP3    H278831   5.977   1.641   0.772 -0.2876  0.0737  0.0071
19114TIP3   OH278832   3.958   0.027   3.481  0.0912  0.7488 -0.2781
19114TIP3    H178833   3.877   0.019   3.431  0.3731  3.4348 -1.2964
19114TIP3    H278834   4.006   0.098   3.439  2.0022  0.6902  1.6219
19115TIP3   OH278835   3.269   0.956   4.392 -0.1858 -0.3034  0.0595
19115TIP3    H178836   3.183   0.936   4.355  0.8337 -2.5661 -1.3214
19115TIP3    H278837   3.311   0.870   4.402  2.4733  0.8231 -0.7536
19116TIP3   OH278838   5.222   4.121  12.850 -0.0712  0.0209  0.2018
19116TIP3    H178839   5.283   4.191  12.873  0.8821 -1.2465  1.6801
19116TIP3    H278840   5.137   4.165  12.841  0.5330  1.3757  0.9296
19117TIP3   OH278841   5.221   0.921   2.378 -0.1879 -0.1588  0.5197
19117TIP3    H178842   5.195   0.855   2.314 -0.6395 -0.3865  0.9377
19117TIP3    H278843   5.170   0.999   2.355 -0.8648 -0.4508  1.0271
19118TIP3   OH278844   2.906   4.614   2.253  0.5911  0.4434  0.0783
19118TIP3    H178845   2.846   4.682   2.223 -1.3098 -1.7577 -1.4938
19118TIP3    H278846   2.875   4.593   2.341  1.8581  2.2270  1.0151
19119TIP3   OH278847   1.306   4.547  12.142  0.4475  0.3760  0.3261
19119TIP3    H178848   1.337   4.545  12.051  0.3856  0.6386  0.2984
19119TIP3    H278849   1.367   4.491  12.189 -0.6198 -1.3263 -0.2107
19120TIP3   OH278850   3.227   6.794  10.829 -0.2230  0.3925  0.2991
19120TIP3    H178851   3.205   6.801  10.736  1.5360 -0.9660 -0.2684
19120TIP3    H278852   3.163   6.732  10.865  0.9128 -1.4144 -0.7044
19121TIP3   OH278853   3.151   6.660   3.184  0.4716 -0.0964  0.2380
19121TIP3    H178854   3.130   6.734   3.129  1.5598  1.0376  1.2824
19121TIP3    H278855   3.161   6.586   3.124  0.0419  0.7455 -0.8841
19122TIP3   OH278856   3.885   3.637  14.671  1.0945 -0.0371 -0.0018
19122TIP3    H178857   3.898   3.587  14.590 -0.2857  1.6721 -1.3405
19122TIP3    H278858   3.791   3.636  14.685  1.0584  1.8212  0.1300
19123TIP3   OH278859   2.521   4.708  13.919  0.0832 -0.5029 -0.3029
19123TIP3    H178860   2.597   4.651  13.906  1.1881  0.6099  0.9388
19123TIP3    H278861   2.552   4.777  13.977 -1.6620  0.4759 -0.4434
19124TIP3   OH278862   3.943   3.979  15.622 -0.2983  0.5439 -0.5262
19124TIP3    H178863   4.017   4.022  15.664 -0.9824  0.5047  0.7810
19124TIP3    H278864   3.982   3.924  15.554  0.9368  0.0412  0.5537
19125TIP3   OH278865   1.284   1.491  10.135  0.0537 -0.0707  0.2029
19125TIP3    H178866   1.223   1.530  10.073 -1.0991 -0.8109  0.8415
19125TIP3    H278867   1.313   1.410  10.092 -1.6558 -1.2029  1.0510
19126TIP3   OH278868   5.745   3.342  16.129 -0.4987 -0.0312  0.1999
19126TIP3    H178869   5.656   3.375  16.129 -0.9820 -1.1794 -2.0016
19126TIP3    H278870   5.795   3.408  16.080 -0.8391 -0.9703 -1.4621
19127TIP3   OH278871   2.924   1.762  11.789  0.0225  0.1437  0.3291
19127TIP3    H178872   2.986   1.776  11.860 -0.2521  0.9546  0.4236
19127TIP3    H278873   2.958   1.814  11.716  0.0107 -0.2444  0.0418
19128TIP3   OH278874   5.418   0.168   6.576 -0.2579  0.2427  0.0928
19128TIP3    H178875   5.413   0.111   6.653 -2.9016 -1.2543 -1.0328
19128TIP3    H278876   5.468   0.117   6.512  0.7980  0.9316  0.3392
19129TIP3   OH278877   1.474   6.506  13.134 -0.4154 -0.1326  0.0341
19129TIP3    H178878   1.426   6.489  13.053  1.7208  0.0250 -1.3343
19129TIP3    H278879   1.486   6.420  13.174 -1.2464 -0.2438  0.0518
19130TIP3   OH278880   4.391   5.683  13.810 -0.2723 -0.6233 -0.1043
19130TIP3    H178881   4.471   5.631  13.799 -0.6718 -1.2188 -0.2828
19130TIP3    H278882   4.332   5.651  13.741 -0.2506  0.6306 -0.7379
19131TIP3   OH278883   4.128   3.828   4.564 -0.3862 -0.1052  0.7928
19131TIP3    H178884   4.221   3.806   4.572 -0.4238 -0.5301  0.1000
19131TIP3    H278885   4.093   3.766   4.501 -0.5525  1.7701 -1.0800
19132TIP3   OH278886   3.318   1.161  13.762 -0.2508 -0.4059  0.9857
19132TIP3    H178887   3.306   1.090  13.699 -1.1239  1.3208 -0.9308
19132TIP3    H278888   3.411   1.182  13.757 -0.2332 -0.5734  0.5648
19133TIP3   OH278889   4.193   1.707  12.881 -0.2043  0.4543 -0.1930
19133TIP3    H178890   4.213   1.629  12.829 -0.5728  0.0368  0.2924
19133TIP3    H278891   4.276   1.728  12.925 -0.0916  0.3695 -0.3648
19134TIP3   OH278892   4.197   4.923  16.720  0.5283 -0.7705 -0.0389
19134TIP3    H178893   4.143   4.999  16.700  0.4237 -0.6602  0.6399
19134TIP3    H278894   4.141   4.867  16.774  0.7631 -1.1107 -0.1429
19135TIP3   OH278895   0.979   1.157  14.234  0.1480 -0.0656 -0.1069
19135TIP3    H178896   1.065   1.133  14.199 -0.7798  0.4358 -3.0144
19135TIP3    H278897   0.936   1.073  14.252  1.3295 -0.3203  1.8014
19136TIP3   OH278898   4.419   5.602   3.453 -0.4165 -0.3804 -0.3213
19136TIP3    H178899   4.431   5.526   3.397  0.1106  0.4959 -1.4544
19136TIP3    H278900   4.491   5.661   3.428 -2.4391  1.7343 -1.6397
19137TIP3   OH278901   0.930   3.365   5.678  0.6912 -0.2038 -0.2732
19137TIP3    H178902   0.994   3.422   5.720  1.9704 -1.8338  0.0945
19137TIP3    H278903   0.916   3.405   5.592 -1.4108  2.7606  1.2808
19138TIP3   OH278904   4.999   2.457   3.811  0.1232  0.7456 -0.2197
19138TIP3    H178905   4.976   2.369   3.840 -0.9030  0.7038 -1.1365
19138TIP3    H278906   4.960   2.466   3.725  1.5666  1.5374 -0.8342
19139TIP3   OH278907   0.970   5.102  14.354 -0.2276  0.0586 -0.5322
19139TIP3    H178908   0.891   5.083  14.404  0.7406  1.6546  1.7832
19139TIP3    H278909   1.030   5.030  14.375 -0.7513 -0.7516 -1.6939
19140TIP3   OH278910   1.162   4.066   1.299 -0.0658 -0.0047 -0.1070
19140TIP3    H178911   1.110   4.118   1.238 -1.1443 -1.1885 -0.2249
19140TIP3    H278912   1.216   4.010   1.244  0.6316  0.5111  0.0295
19141TIP3   OH278913   2.814   2.896   1.998  0.3133 -0.9458 -0.8352
19141TIP3    H178914   2.756   2.904   1.923  0.3988 -0.9049 -0.8960
19141TIP3    H278915   2.771   2.831   2.054 -0.1301 -0.4277 -0.5662
19142TIP3   OH278916   6.282   1.215  16.264  0.0730 -0.1738 -0.0827
19142TIP3    H178917   6.231   1.294  16.249  0.0413 -0.4586 -1.6515
19142TIP3    H278918   6.338   1.236  16.338 -0.1708  1.1902 -0.2579
19143TIP3   OH278919   5.489   2.842   2.960  0.2336  0.2534  0.4501
19143TIP3    H178920   5.573   2.796   2.958 -0.1283 -0.4345  0.5670
19143TIP3    H278921   5.511   2.932   2.983  1.0593  0.3592 -0.6665
19144TIP3   OH278922   0.219   4.821  13.285 -0.4303 -0.4022  0.0216
19144TIP3    H178923   0.151   4.878  13.322  0.9233  1.5490 -0.4196
19144TIP3    H278924   0.277   4.803  13.359 -0.4201 -0.5727 -0.0281
19145TIP3   OH278925   6.431   4.751   1.217 -0.5033 -0.4450  0.1283
19145TIP3    H178926   6.472   4.684   1.162 -0.7196  0.0357 -0.6333
19145TIP3    H278927   6.339   4.726   1.220 -0.6857  0.0980 -0.5995
19146TIP3   OH278928   5.454   4.234  11.052  0.0251 -0.2270 -0.2908
19146TIP3    H178929   5.362   4.261  11.047  0.5812  1.6276 -1.5238
19146TIP3    H278930   5.478   4.216  10.961  1.4336  1.3384 -0.2569
19147TIP3   OH278931   6.672   0.277  14.024 -0.4238  0.0743  0.0887
19147TIP3    H178932   6.682   0.193  14.068  0.8076  1.1003  1.9105
19147TIP3    H278933   6.739   0.277  13.956 -1.3786 -0.9568 -0.8783
19148TIP3   OH278934   6.128   1.286   2.985 -0.8478 -0.1244 -0.2503
19148TIP3    H178935   6.053   1.317   2.935 -0.5117 -0.2416 -0.8283
19148TIP3    H278936   6.107   1.195   3.007 -1.5616  0.2899  0.9273
19149TIP3   OH278937   4.675   2.349   3.479 -0.3545 -0.0411  0.7741
19149TIP3    H178938   4.652   2.431   3.436 -2.4840  0.0216  1.9003
19149TIP3    H278939   4.711   2.294   3.409 -2.1102  0.6597 -0.7395
19150TIP3   OH278940   6.856   2.223   4.944 -0.0426  0.0939  0.5888
19150TIP3    H178941   6.782   2.226   4.884  0.5066 -0.4212 -0.1319
19150TIP3    H278942   6.829   2.278   5.018 -1.3078 -0.4342  0.5438
19151TIP3   OH278943   0.176   0.443  15.060 -0.2667 -0.4598 -0.5966
19151TIP3    H178944   0.103   0.478  15.010  0.1319  1.3473  0.0234
19151TIP3    H278945   0.241   0.513  15.061 -0.0578 -0.5797  2.0004
19152TIP3   OH278946   2.311   3.048   1.862  0.4251  0.3570  0.3595
19152TIP3    H178947   2.293   3.009   1.776 -1.8350  1.6552  0.1866
19152TIP3    H278948   2.256   2.998   1.923 -0.0185  1.1507  0.6238
19153TIP3   OH278949   1.270   4.704   2.285  0.0316  0.8298 -0.0203
19153TIP3    H178950   1.180   4.674   2.290  0.2084 -0.0960 -1.8175
19153TIP3    H278951   1.279   4.741   2.198  1.0608  2.0931  0.5855
19154TIP3   OH278952   5.048   4.507   2.643  0.0640  0.2766  0.3186
19154TIP3    H178953   5.080   4.476   2.727 -0.5557 -0.9093  0.1276
19154TIP3    H278954   5.128   4.518   2.590  0.2817 -1.4840  0.2388
19155TIP3   OH278955   3.761   5.829  12.570 -0.7733 -0.9746 -0.0889
19155TIP3    H178956   3.701   5.903  12.577  0.7330  0.2730  0.2628
19155TIP3    H278957   3.763   5.791  12.658 -0.0132 -0.1610  0.2510
19156TIP3   OH278958   6.254   3.650   3.257  0.2032 -0.9743 -0.0792
19156TIP3    H178959   6.315   3.623   3.187 -0.3803 -0.3250 -0.8506
19156TIP3    H278960   6.311   3.678   3.328  0.8166 -2.0310 -0.1319
19157TIP3   OH278961   2.732   4.124   1.272 -0.0797 -0.1003 -0.1419
19157TIP3    H178962   2.712   4.215   1.250  0.2793 -0.1182 -0.5720
19157TIP3    H278963   2.754   4.084   1.188  2.0373  0.0051  0.3079
19158TIP3   OH278964   6.701   4.289   1.875  0.1124  0.2857  0.2811
19158TIP3    H178965   6.775   4.255   1.825  2.0525  2.7416  1.3159
19158TIP3    H278966   6.732   4.291   1.965 -1.7778  0.0017  0.9834
19159TIP3   OH278967   1.255   1.882   2.320  0.3155 -0.0507 -0.1067
19159TIP3    H178968   1.214   1.896   2.235 -0.0662  1.2105  0.2607
19159TIP3    H278969   1.348   1.873   2.300  0.0848 -1.1292 -0.7730
19160TIP3   OH278970   3.743   3.551   4.119  0.1564  0.2082  1.1404
19160TIP3    H178971   3.677   3.513   4.060  1.4997 -2.9257  1.4755
19160TIP3    H278972   3.709   3.638   4.139 -2.6716 -0.3580 -0.5744
19161TIP3   OH278973   3.961   3.132   3.387 -0.1706 -0.3890 -0.0198
19161TIP3    H178974   4.020   3.198   3.351  1.4643 -1.1716  1.0906
19161TIP3    H278975   3.960   3.062   3.321 -1.9135  0.6737 -1.2016
19162TIP3   OH278976   5.831   6.551   3.394 -0.2306  0.5549 -0.1579
19162TIP3    H178977   5.795   6.613   3.331  1.0310  0.8744 -0.5920
19162TIP3    H278978   5.783   6.568   3.475 -0.9176  1.0758 -0.6673
19163TIP3   OH278979   5.588   5.292   5.037  0.3659  0.0240 -0.1753
19163TIP3    H178980   5.558   5.377   5.071 -0.3559 -0.0225 -0.6623
19163TIP3    H278981   5.563   5.229   5.105  1.3230  0.2500  0.3987
19164TIP3   OH278982   3.631   4.865   1.552 -0.2388 -0.0805 -0.4029
19164TIP3    H178983   3.714   4.823   1.528 -0.2066 -0.1665 -0.1509
19164TIP3    H278984   3.604   4.912   1.474 -1.1123 -1.8738 -1.2209
19165TIP3   OH278985   4.679   4.646  11.819 -0.3403 -0.0236 -0.2035
19165TIP3    H178986   4.614   4.659  11.751 -0.5854  0.2861  0.0867
19165TIP3    H278987   4.640   4.581  11.878 -0.7013  0.6858  0.3589
19166TIP3   OH278988   4.559   5.156  16.217 -1.1983  0.9098  0.2420
19166TIP3    H178989   4.587   5.147  16.308  1.4783 -1.9581 -0.6894
19166TIP3    H278990   4.471   5.118  16.215  0.1845 -2.7534  1.1102
19167TIP3   OH278991   6.347   4.585  11.285 -0.0256  0.5465 -0.5375
19167TIP3    H178992   6.293   4.578  11.364 -0.0957 -0.7914 -0.6812
19167TIP3    H278993   6.284   4.604  11.215 -0.1772  0.1294 -0.5199
19168TIP3   OH278994   2.354   5.864  14.859 -0.0374  0.0683  0.3578
19168TIP3    H178995   2.368   5.882  14.766 -0.5039 -1.6241 -0.0679
19168TIP3    H278996   2.262   5.839  14.865 -0.0903  0.4439  1.3428
19169TIP3   OH278997   3.840   4.259  14.719  0.1870  0.4922 -0.2128
19169TIP3    H178998   3.842   4.349  14.751 -5.4491  0.4895  1.1673
19169TIP3    H278999   3.828   4.205  14.797 -1.0521 -0.9298 -1.3199
19170TIP3   OH279000   5.750   1.235   5.598 -0.2026 -0.1724 -0.3795
19170TIP3    H179001   5.670   1.197   5.635  0.0979  0.5102  1.0405
19170TIP3    H279002   5.721   1.317   5.559 -0.0873  0.5012  0.9016
19171TIP3   OH279003   4.529   6.844   2.629 -0.2169  0.3145 -0.0514
19171TIP3    H179004   4.556   6.786   2.700 -0.3886 -0.9767 -1.0084
19171TIP3    H279005   4.436   6.826   2.618  0.1155 -0.6613 -1.6072
19172TIP3   OH279006   3.470   5.842  15.400  0.2720  0.1033 -0.5017
19172TIP3    H179007   3.506   5.821  15.486 -0.2609 -0.8368 -0.4932
19172TIP3    H279008   3.376   5.827  15.408  0.4451 -2.0871 -1.8018
19173TIP3   OH279009   0.217   3.991   1.881 -0.1699  0.2036 -0.0240
19173TIP3    H179010   0.281   4.011   1.950 -0.1078 -1.7651  0.5483
19173TIP3    H279011   0.265   3.936   1.819 -0.8120  0.2493 -0.5801
19174TIP3   OH279012   5.904   0.805  15.423 -0.2462 -0.4946  0.0956
19174TIP3    H179013   5.892   0.711  15.435  1.0259 -0.8820 -1.3621
19174TIP3    H279014   5.885   0.820  15.330 -0.5547  0.7175  0.3329
19175TIP3   OH279015   5.060   0.720  13.324 -0.1178 -0.2406 -0.5439
19175TIP3    H179016   4.976   0.736  13.280 -0.0653  1.2485 -0.1669
19175TIP3    H279017   5.058   0.627  13.347 -0.3758 -0.9706 -3.1780
19176TIP3   OH279018   5.925   2.796   0.417  0.5061  0.0518  0.4496
19176TIP3    H179019   5.892   2.883   0.394  1.1134 -0.2685 -1.8915
19176TIP3    H279020   6.021   2.804   0.409  0.5197 -1.0647 -0.8835
19177TIP3   OH279021   1.024   1.482   2.415  0.4570  0.4058  0.1431
19177TIP3    H179022   0.990   1.554   2.361 -1.8019  0.4461  1.4889
19177TIP3    H279023   1.079   1.524   2.480  0.6329  0.7171 -0.2065
19178TIP3   OH279024   6.307   2.523   4.324  0.8524  0.4395  0.4613
19178TIP3    H179025   6.352   2.530   4.408  1.7173 -1.2050  0.1818
19178TIP3    H279026   6.224   2.480   4.344  1.9619 -1.9145  0.2495
19179TIP3   OH279027   1.810   0.714   2.612 -0.6042 -0.0703 -0.8458
19179TIP3    H179028   1.899   0.715   2.646 -0.1386 -2.2378 -1.8555
19179TIP3    H279029   1.819   0.681   2.523 -2.0990  2.7178 -2.1687
19180TIP3   OH279030   1.618   6.557  15.022  0.4602  0.1398 -0.2312
19180TIP3    H179031   1.554   6.618  14.985  0.4200 -0.7745 -1.7577
19180TIP3    H279032   1.595   6.472  14.985 -0.0406 -1.0437  2.5390
19181TIP3   OH279033   3.757   5.883  14.789 -0.5884 -0.0448 -0.1529
19181TIP3    H179034   3.672   5.840  14.778 -1.3159  1.4610 -0.7999
19181TIP3    H279035   3.791   5.893  14.700  0.2221 -0.5123  0.0910
19182TIP3   OH279036   0.906   3.182   1.014 -0.4236  0.2280  0.2985
19182TIP3    H179037   0.872   3.271   1.015 -0.6233  0.2029 -1.4545
19182TIP3    H279038   0.937   3.169   0.924 -0.6921 -1.5839  0.4337
19183TIP3   OH279039   2.170   2.101  12.178  0.6783 -0.6416 -0.0845
19183TIP3    H179040   2.128   2.114  12.263 -0.9023 -0.4873 -0.8697
19183TIP3    H279041   2.216   2.183  12.161 -1.3495  0.4443 -0.6447
19184TIP3   OH279042   3.989   6.315   5.167 -0.0212  0.0491 -0.7213
19184TIP3    H179043   4.025   6.249   5.226  1.0639  0.2639 -1.1043
19184TIP3    H279044   3.929   6.366   5.221  0.7606  0.0907  0.1414
19185TIP3   OH279045   2.411   0.736  15.055 -0.4071 -0.0692  0.3165
19185TIP3    H179046   2.460   0.663  15.092  1.1253  0.7833  0.0423
19185TIP3    H279047   2.348   0.695  14.996  0.6920 -1.1723 -0.1341
19186TIP3   OH279048   0.721   3.804   2.706  0.1563 -0.0432  0.5660
19186TIP3    H179049   0.731   3.774   2.796  0.4316  2.3244  1.3784
19186TIP3    H279050   0.761   3.891   2.704 -1.9482  0.9833 -1.2485
19187TIP3   OH279051   2.811   0.807   1.444  0.4285 -1.0048  0.2037
19187TIP3    H179052   2.848   0.748   1.510 -1.1735 -2.6644 -0.3108
19187TIP3    H279053   2.783   0.750   1.373  0.7490  0.6045 -1.2809
19188TIP3   OH279054   6.696   1.099  13.547  0.3387 -0.1194 -0.4965
19188TIP3    H179055   6.717   1.013  13.584 -0.4211 -0.9577 -1.9213
19188TIP3    H279056   6.779   1.147  13.550  0.6620 -0.7198  0.7546
19189TIP3   OH279057   1.985   3.457  12.131  0.0361  0.1278 -0.1913
19189TIP3    H179058   2.005   3.540  12.174 -0.3471 -0.0633  0.3670
19189TIP3    H279059   2.013   3.470  12.040  1.3044  0.3768  0.2041
19190TIP3   OH279060   5.528   6.268  15.873  0.8551  0.2927 -0.1696
19190TIP3    H179061   5.610   6.247  15.829  1.0718  0.8320 -0.0310
19190TIP3    H279062   5.522   6.204  15.944  1.9581  1.2325  0.8129
19191TIP3   OH279063   5.531   0.129   4.331  0.4910 -0.3499  0.1234
19191TIP3    H179064   5.524   0.213   4.286  0.9449  0.6166  1.7701
19191TIP3    H279065   5.441   0.096   4.336 -0.0034  1.0605  1.2671
19192TIP3   OH279066   2.938   0.988   5.211 -0.1282 -0.0474 -0.2714
19192TIP3    H179067   3.022   1.019   5.178 -0.4377 -0.1404 -1.1952
19192TIP3    H279068   2.959   0.911   5.263  0.8106  2.3886  3.2665
19193TIP3   OH279069   5.645   1.288  16.194  0.2169  0.1220 -0.4610
19193TIP3    H179070   5.622   1.278  16.287  0.7511 -0.8524 -0.4208
19193TIP3    H279071   5.741   1.290  16.193  0.2173  0.0140 -1.0049
19194TIP3   OH279072   2.302   6.431   2.653 -0.0602  0.2699  0.0818
19194TIP3    H179073   2.284   6.409   2.562 -0.4505  0.7439  0.0414
19194TIP3    H279074   2.388   6.473   2.651  0.3164 -0.5003  0.0495
19195TIP3   OH279075   5.630   2.893   4.144  0.1206  0.4050  0.2954
19195TIP3    H179076   5.569   2.905   4.071  1.4002  1.5994 -0.6225
19195TIP3    H279077   5.573   2.879   4.220 -1.3971  3.1598 -0.1975
19196TIP3   OH279078   1.486   6.416  10.971  0.4217 -0.0157  0.3780
19196TIP3    H179079   1.460   6.477  10.901 -0.9015  0.8336  1.5593
19196TIP3    H279080   1.548   6.467  11.024  1.1105 -0.5263  0.0895
19197TIP3   OH279081   3.168   6.582  16.992 -0.4389  0.6251  0.1006
19197TIP3    H179082   3.185   6.494  16.958  2.6618  1.6811 -1.5064
19197TIP3    H279083   3.223   6.639  16.939 -1.5749  3.4568  1.7414
19198TIP3   OH279084   5.644   2.017   1.416  0.0330 -0.1299  0.2376
19198TIP3    H179085   5.552   2.031   1.438  0.1507  0.7987  0.2041
19198TIP3    H279086   5.666   2.090   1.358  0.2674 -1.4235 -1.3725
19199TIP3   OH279087   6.565   3.688  15.690  0.1690 -0.2607 -0.1671
19199TIP3    H179088   6.551   3.743  15.612  2.2145  0.9129  0.2169
19199TIP3    H279089   6.639   3.632  15.666  0.6143 -0.1014  0.8157
19200TIP3   OH279090   3.012   3.971   4.112  0.2806  0.2029  0.3270
19200TIP3    H179091   2.917   3.980   4.123  0.0474 -1.6108  0.1558
19200TIP3    H279092   3.046   3.962   4.201  0.2150  0.2173  0.3539
19201TIP3   OH279093   1.152   6.187  13.185  0.6706  0.6024 -0.1372
19201TIP3    H179094   1.201   6.163  13.107  0.9365  2.5241 -0.6069
19201TIP3    H279095   1.206   6.154  13.258 -0.0064 -1.9740 -0.7085
19202TIP3   OH279096   1.286   1.344  15.369 -0.8309  0.3324 -0.6131
19202TIP3    H179097   1.228   1.332  15.444 -1.3113 -3.0841 -1.3813
19202TIP3    H279098   1.373   1.360  15.408 -1.3979  0.5292  0.6116
19203TIP3   OH279099   3.577   5.707   0.962 -0.0096  0.3050 -0.3589
19203TIP3    H179100   3.549   5.798   0.970  0.3753  0.4761 -0.8586
19203TIP3    H279101   3.502   5.663   0.922  0.0779  0.5704 -0.8332
19204TIP3   OH279102   2.785   4.776   3.085 -0.1656 -0.1178  0.3510
19204TIP3    H179103   2.707   4.809   3.041 -2.4601 -2.7102  2.0507
19204TIP3    H279104   2.843   4.749   3.015 -1.3064  0.8130 -1.0089
19205TIP3   OH279105   5.779   3.163  12.002 -0.2436 -0.2629  0.6533
19205TIP3    H179106   5.693   3.175  11.963 -1.4204  1.4159  3.4164
19205TIP3    H279107   5.768   3.091  12.064  0.4371 -0.2263  0.8278
19206TIP3   OH279108   6.704   6.569  16.434  0.2855  0.1044 -0.2873
19206TIP3    H179109   6.716   6.481  16.398  2.6483 -0.0844  0.7895
19206TIP3    H279110   6.681   6.555  16.525 -0.4164  0.6258 -0.3725
19207TIP3   OH279111   6.424   0.209  11.505  0.0413  0.1086  0.3107
19207TIP3    H179112   6.440   0.243  11.592  0.0343 -0.8601  0.7094
19207TIP3    H279113   6.467   0.271  11.446 -1.7293  1.9357  0.8307
19208TIP3   OH279114   6.205   2.091   5.491  0.0028 -0.2303 -0.2892
19208TIP3    H179115   6.272   2.028   5.466  0.0680 -0.3468  0.1649
19208TIP3    H279116   6.123   2.054   5.457  0.2362  0.2114 -1.3735
19209TIP3   OH279117   4.227   6.516  12.923  0.0018  0.0820 -0.1157
19209TIP3    H179118   4.206   6.440  12.978 -0.9193  1.2524  1.2154
19209TIP3    H279119   4.234   6.589  12.985  0.1722  1.2187 -1.4355
19210TIP3   OH279120   4.355   6.704  11.518 -0.0914 -0.1477  0.3813
19210TIP3    H179121   4.276   6.650  11.512 -0.9482  0.9442  1.4163
19210TIP3    H279122   4.403   6.686  11.437 -1.3400 -0.9245 -0.2044
19211TIP3   OH279123   4.184   3.903  12.818 -0.8910 -0.1481 -0.3424
19211TIP3    H179124   4.147   3.952  12.891  1.3489  2.7661 -0.9800
19211TIP3    H279125   4.147   3.944  12.740  2.3949  2.0688 -0.9527
19212TIP3   OH279126   5.501   0.880   5.873  0.7659 -0.6203 -0.3571
19212TIP3    H179127   5.473   0.946   5.937  0.3864 -0.2027 -0.9475
19212TIP3    H279128   5.572   0.833   5.917 -0.3326 -1.2040  0.8865
19213TIP3   OH279129   6.145   6.715  14.103  0.6369 -0.0038 -0.1016
19213TIP3    H179130   6.164   6.740  14.012 -1.9682  0.4290 -0.6322
19213TIP3    H279131   6.187   6.783  14.156  0.9653  0.5771 -1.0757
19214TIP3   OH279132   3.302   2.397   0.279 -0.4238 -0.4981  0.4582
19214TIP3    H179133   3.381   2.434   0.319 -0.7296 -1.0104  1.5609
19214TIP3    H279134   3.261   2.471   0.235  0.6097 -0.2027 -0.0516
19215TIP3   OH279135   3.354   3.064  13.332 -0.2578 -0.0713 -0.2250
19215TIP3    H179136   3.292   3.118  13.282 -0.0229  0.5138  0.1069
19215TIP3    H279137   3.357   2.981  13.284 -0.0815  0.4528 -1.1445
19216TIP3   OH279138   3.357   6.620  12.613 -0.2715 -0.9753  0.8915
19216TIP3    H179139   3.396   6.572  12.685  2.2251 -1.6774 -0.7820
19216TIP3    H279140   3.332   6.553  12.549  0.7921 -0.2442 -0.3473
19217TIP3   OH279141   4.405   6.076  16.878 -0.1119  0.2531  0.5544
19217TIP3    H179142   4.424   5.986  16.852 -3.1432 -0.1148 -0.8673
19217TIP3    H279143   4.389   6.071  16.973  2.6243 -0.0533  1.0709
19218TIP3   OH279144   3.306   1.690   1.344 -0.1366  0.2475 -0.1019
19218TIP3    H179145   3.276   1.760   1.286 -0.4253 -1.2407 -1.8137
19218TIP3    H279146   3.365   1.637   1.290  2.4999  0.7982  2.0144
19219TIP3   OH279147   1.314   4.993  12.433  0.0593  0.5857 -0.2980
19219TIP3    H179148   1.402   4.958  12.446 -0.4792 -0.4670  0.6976
19219TIP3    H279149   1.261   4.917  12.408 -1.1481  0.5915  1.9780
19220TIP3   OH279150   0.722   5.352  15.488  0.5360  0.2426  0.1620
19220TIP3    H179151   0.740   5.279  15.429 -1.1862  0.0505 -0.1749
19220TIP3    H279152   0.676   5.311  15.562 -0.0212  0.9071  0.1893
19221TIP3   OH279153   5.032   6.337  11.987 -0.3030 -0.1070  0.3953
19221TIP3    H179154   4.984   6.255  11.997 -1.6979  0.8062  1.4387
19221TIP3    H279155   5.076   6.349  12.071 -0.9374  0.7085  0.6205
19222TIP3   OH279156   2.780   5.399   3.125 -0.2149 -0.1667  0.5319
19222TIP3    H179157   2.726   5.343   3.181  1.9017 -0.7334  2.1536
19222TIP3    H279158   2.838   5.339   3.080  0.8475  0.5684  0.8812
19223TIP3   OH279159   3.276   0.716   0.108 -0.0189  0.0001  0.7573
19223TIP3    H179160   3.254   0.770   0.032  0.6973  2.6080  2.2664
19223TIP3    H279161   3.365   0.685   0.090  0.1021  0.5008  0.4619
19224TIP3   OH279162   5.773   3.838  13.409  0.3335  0.1489 -0.0981
19224TIP3    H179163   5.728   3.801  13.333 -1.3180  0.3150  0.7508
19224TIP3    H279164   5.776   3.767  13.473 -1.6876  1.0014  1.0467
19225TIP3   OH279165   6.821   2.418  14.782  0.0018  0.1562 -0.4354
19225TIP3    H179166   6.916   2.405  14.781 -0.1946 -1.4955 -0.7370
19225TIP3    H279167   6.810   2.512  14.771  1.6075  0.4136 -0.1747
19226TIP3   OH279168   5.476   6.463   2.156 -0.0296 -0.1278 -0.6497
19226TIP3    H179169   5.383   6.441   2.141  0.4452 -1.2814 -2.1914
19226TIP3    H279170   5.478   6.496   2.245 -1.6317 -2.0880  0.2153
19227TIP3   OH279171   6.091   2.324  16.811 -0.0070 -0.1070 -0.1310
19227TIP3    H179172   6.048   2.245  16.776  0.7256 -0.2655 -0.7100
19227TIP3    H279173   6.037   2.349  16.886 -2.3935  0.9550 -2.0415
19228TIP3   OH279174   5.347   0.277   5.599 -0.2070 -0.4064 -0.0043
19228TIP3    H179175   5.299   0.207   5.644  1.6711 -1.1694  0.9477
19228TIP3    H279176   5.380   0.236   5.519  1.1861 -0.7887  0.7190
19229TIP3   OH279177   3.206   4.080   2.523  0.3821 -0.0717  0.5106
19229TIP3    H179178   3.251   3.996   2.515  2.6252  1.0200  0.7924
19229TIP3    H279179   3.137   4.078   2.456  0.1149 -2.2560  0.7892
19230TIP3   OH279180   6.350   1.426   0.983  0.2080 -0.1939  0.0928
19230TIP3    H179181   6.406   1.484   0.932  1.0993  0.9291  2.2244
19230TIP3    H279182   6.387   1.339   0.970  0.5057  0.0823 -1.0053
19231TIP3   OH279183   3.133   0.768  14.140 -0.5054 -0.0370  0.2010
19231TIP3    H179184   3.104   0.856  14.117  0.4904  0.5570  1.1228
19231TIP3    H279185   3.153   0.726  14.056 -0.0092  0.9741 -0.1967
19232TIP3   OH279186   0.496   4.935  10.911 -0.2305  0.1549 -0.7810
19232TIP3    H179187   0.402   4.953  10.911  0.0177  1.4886 -0.8726
19232TIP3    H279188   0.509   4.878  10.834 -0.8186  0.7491 -1.3261
19233TIP3   OH279189   6.361   4.537   1.884 -0.7347 -0.3858  0.0338
19233TIP3    H179190   6.368   4.454   1.838  0.4079  0.2569 -1.0027
19233TIP3    H279191   6.280   4.529   1.935 -2.2549 -1.0220 -2.3065
19234TIP3   OH279192   0.337   0.766  16.697 -0.6134  0.0255  0.2576
19234TIP3    H179193   0.381   0.712  16.763  0.9894  0.2868 -0.5607
19234TIP3    H279194   0.392   0.760  16.620 -1.5973  1.0454 -0.5613
19235TIP3   OH279195   6.765   0.164  12.480 -0.2105  0.1368  0.3678
19235TIP3    H179196   6.751   0.199  12.392 -2.8968 -0.1536  0.6079
19235TIP3    H279197   6.777   0.242  12.535 -2.1804  0.5477  0.2719
19236TIP3   OH279198   0.459   6.767   5.860  0.4941  0.4718  0.4946
19236TIP3    H179199   0.549   6.750   5.832  0.3520  1.0768 -0.3525
19236TIP3    H279200   0.405   6.738   5.786 -0.1024 -1.0274  1.4556
19237TIP3   OH279201   0.024   5.049   3.108  0.7139 -0.1351 -0.5563
19237TIP3    H179202   0.072   4.974   3.075 -2.0069 -2.4310  0.2495
19237TIP3    H279203   0.067   5.072   3.190 -1.2545 -4.3268  1.9593
19238TIP3   OH279204   4.077   0.293  12.968  0.0203  0.1658  0.8010
19238TIP3    H179205   3.998   0.289  13.022 -0.1887  0.5659  0.5227
19238TIP3    H279206   4.058   0.360  12.903 -0.3102 -1.3263 -0.6920
19239TIP3   OH279207   1.144   1.501   0.811 -0.6220  0.9478  0.2995
19239TIP3    H179208   1.053   1.482   0.835 -0.3944 -0.9047 -0.1130
19239TIP3    H279209   1.151   1.474   0.720  0.1553  1.8185  0.0906
19240TIP3   OH279210   4.906   0.654  12.434 -0.4994  0.2136  0.4167
19240TIP3    H179211   4.823   0.641  12.387 -0.1721 -0.2515 -0.0386
19240TIP3    H279212   4.956   0.574  12.417 -0.6330 -0.2854  2.1230
19241TIP3   OH279213   6.625   3.887  15.472  0.3975 -0.3662  0.1789
19241TIP3    H179214   6.538   3.927  15.478  0.1027 -0.5098 -2.0995
19241TIP3    H279215   6.682   3.946  15.521 -0.8381  0.2128  0.9580
19242TIP3   OH279216   3.672   6.038  16.152 -0.1086  0.3832 -0.0589
19242TIP3    H179217   3.633   6.093  16.221 -3.1290  1.3119 -2.3010
19242TIP3    H279218   3.638   6.075  16.070  1.0694 -2.3620 -1.9180
19243TIP3   OH279219   4.443   4.034  14.578  0.3567 -0.7721 -0.4562
19243TIP3    H179220   4.456   4.075  14.492  0.8416  1.4629  0.6167
19243TIP3    H279221   4.353   4.000  14.574  0.8218 -1.9116 -2.2796
19244TIP3   OH279222   3.081   2.655   5.526 -0.0407 -0.3815 -0.0345
19244TIP3    H179223   3.092   2.646   5.620 -3.2853 -1.5455  0.3756
19244TIP3    H279224   3.060   2.566   5.496 -1.5680  0.3699 -1.3870
19245TIP3   OH279225   0.579   6.783  16.421 -0.8153  0.2154  0.0661
19245TIP3    H179226   0.536   6.780  16.336  0.5821  0.0314 -0.6635
19245TIP3    H279227   0.578   6.693  16.452 -2.1051  0.4138  0.6842
19246TIP3   OH279228   3.928   3.320  11.338 -0.7134 -0.2562  0.3276
19246TIP3    H179229   3.999   3.263  11.367 -1.1675 -0.4305  1.1214
19246TIP3    H279230   3.953   3.347  11.250  1.1676  1.0654  1.2166
19247TIP3   OH279231   4.615   2.183   1.343  0.6058 -0.0849  0.0725
19247TIP3    H179232   4.552   2.224   1.283  0.4731 -3.3611 -2.2582
19247TIP3    H279233   4.562   2.159   1.419 -0.3260 -0.0800 -0.5544
19248TIP3   OH279234   6.199   5.636   4.748  0.3152  0.1683 -0.1292
19248TIP3    H179235   6.238   5.707   4.798 -2.4371 -0.2002  2.9730
19248TIP3    H279236   6.130   5.677   4.697  2.1217  0.3176 -2.6036
19249TIP3   OH279237   6.565   2.923  16.848  0.3134  0.1509  0.5714
19249TIP3    H179238   6.494   2.960  16.901  0.3413  1.5269 -0.2811
19249TIP3    H279239   6.638   2.984  16.862  1.2985 -1.1668  1.3228
19250TIP3   OH279240   5.031   0.993   3.089  0.6405 -0.3693  0.3558
19250TIP3    H179241   4.943   1.010   3.122 -0.4528 -0.7954 -2.1063
19250TIP3    H279242   5.066   0.925   3.147  0.2220  1.2227  2.6142
19251TIP3   OH279243   1.521   0.854   0.805  0.6878  0.1276 -0.0067
19251TIP3    H179244   1.573   0.905   0.868  1.0805  0.1551 -0.3487
19251TIP3    H279245   1.446   0.823   0.856 -0.6946  2.7744 -0.2695
19252TIP3   OH279246   6.318   6.391  14.674  0.1904 -0.2833 -0.1721
19252TIP3    H179247   6.284   6.314  14.720  0.5315 -0.2611  0.1223
19252TIP3    H279248   6.367   6.439  14.741  1.6383 -0.8069 -0.8134
19253TIP3   OH279249   4.044   4.473   3.386  0.3845  0.2749 -0.4718
19253TIP3    H179250   4.044   4.378   3.391 -0.5256  0.2913  0.0195
19253TIP3    H279251   3.967   4.500   3.435 -1.2506  1.1118 -3.2602
19254TIP3   OH279252   2.330   3.495  14.996  0.2855 -0.3529 -0.2648
19254TIP3    H179253   2.317   3.551  15.072 -0.1063 -0.1133 -0.5044
19254TIP3    H279254   2.343   3.556  14.923 -0.5678 -0.5659 -0.6033
19255TIP3   OH279255   0.736   4.741  15.974 -0.1956 -0.5734 -0.2162
19255TIP3    H179256   0.668   4.792  16.017  0.3762  0.2110 -0.2210
19255TIP3    H279257   0.773   4.801  15.909  2.0974 -0.1634  1.3767
19256TIP3   OH279258   1.816   5.734   4.035 -0.8208 -0.2313  0.5398
19256TIP3    H179259   1.902   5.740   3.993 -0.5378  0.1241  1.1530
19256TIP3    H279260   1.774   5.818   4.015 -1.3772 -0.7479 -0.4993
19257TIP3   OH279261   4.036   2.903   3.230  0.3446  0.0209  0.9855
19257TIP3    H179262   4.094   2.947   3.167 -0.0089  0.3404  0.8764
19257TIP3    H279263   3.978   2.850   3.176  1.0144 -0.8834  1.1427
19258TIP3   OH279264   3.742   5.604  11.719  0.4203  0.5419 -0.3799
19258TIP3    H179265   3.728   5.559  11.802 -0.2066 -1.1775 -1.3594
19258TIP3    H279266   3.659   5.594  11.672  0.9134  1.0660 -1.4039
19259TIP3   OH279267   0.685   6.320  13.378  0.3331 -0.3200  0.1266
19259TIP3    H179268   0.617   6.298  13.314 -0.3142 -0.1056  0.7385
19259TIP3    H279269   0.764   6.331  13.325 -0.0533 -0.7773 -0.5668
19260TIP3   OH279270   0.454   2.341  13.378  0.0977 -0.2356 -0.4877
19260TIP3    H179271   0.362   2.347  13.351 -0.1874 -1.5976  0.1177
19260TIP3    H279272   0.489   2.270  13.326  0.3576 -0.8362  0.4862
19261TIP3   OH279273   3.403   1.584   2.846  0.2125 -0.5843 -0.2264
19261TIP3    H179274   3.333   1.616   2.789  0.0436 -1.0754 -0.3046
19261TIP3    H279275   3.434   1.504   2.802  2.9465  1.2118 -1.8754
19262TIP3   OH279276   5.343   5.999   6.767 -0.6801  0.5006 -0.1017
19262TIP3    H179277   5.267   6.055   6.752 -0.2036  0.8094 -1.5107
19262TIP3    H279278   5.385   5.993   6.681 -1.2376 -2.8261 -0.2570
19263TIP3   OH279279   6.789   1.917   3.859 -0.0931  0.1103  0.1167
19263TIP3    H179280   6.882   1.940   3.861  0.3793 -1.5881 -0.2124
19263TIP3    H279281   6.775   1.865   3.938 -1.1024  1.4268  0.8367
19264TIP3   OH279282   1.225   1.770   0.853  0.1454  0.2171 -0.2442
19264TIP3    H179283   1.229   1.675   0.848  1.9540  0.2256  0.1606
19264TIP3    H279284   1.155   1.788   0.915 -2.0049 -0.7224 -2.2846
19265TIP3   OH279285   4.974   1.072  11.665 -0.0097  1.0805 -0.4630
19265TIP3    H179286   5.047   1.123  11.629 -0.3802  1.5245 -0.5988
19265TIP3    H279287   4.924   1.135  11.717  0.2185  0.5663  0.3977
19266TIP3   OH279288   3.529   2.682   2.654 -0.1198  0.6354  0.7022
19266TIP3    H179289   3.442   2.706   2.621  0.0212  1.1760  0.7189
19266TIP3    H279290   3.513   2.656   2.745 -0.7171 -2.1090 -0.0964
19267TIP3   OH279291   2.824   0.029   3.977 -0.1372 -0.5815  0.2667
19267TIP3    H179292   2.754   0.092   3.957 -0.6606 -1.3028 -0.2181
19267TIP3    H279293   2.882   0.076   4.037 -1.1978 -0.0643  0.9290
19268TIP3   OH279294   3.687   0.517   0.970  0.2649  0.3554  0.1387
19268TIP3    H179295   3.617   0.512   0.905  0.2524  0.5932  0.1309
19268TIP3    H279296   3.766   0.496   0.922  0.2920  0.8056 -0.0192
19269TIP3   OH279297   1.618   1.507   1.233  0.2644  0.3149  0.4164
19269TIP3    H179298   1.616   1.513   1.329 -0.7701 -3.3321  0.7742
19269TIP3    H279299   1.656   1.422   1.215  1.7096  1.4603 -2.5619
19270TIP3   OH279300   1.639   2.660   5.603  0.5398  0.1524  0.0143
19270TIP3    H179301   1.573   2.701   5.548 -0.5763 -1.3062  0.1910
19270TIP3    H279302   1.606   2.669   5.692  2.8118  3.3825  0.6965
19271TIP3   OH279303   2.909   6.022  12.261 -0.0713 -0.0913 -0.1219
19271TIP3    H179304   2.919   5.983  12.174 -0.2963 -0.5799  0.0687
19271TIP3    H279305   2.885   6.113  12.244 -1.9583 -0.6337 -0.5846
19272TIP3   OH279306   4.836   4.281   4.449 -0.0933 -0.4251 -0.0169
19272TIP3    H179307   4.875   4.358   4.491 -0.6910 -0.0919 -0.0565
19272TIP3    H279308   4.788   4.237   4.519 -0.0779 -0.5421 -0.0804
19273TIP3   OH279309   6.424   6.517  10.716 -0.2218 -0.2588  0.3553
19273TIP3    H179310   6.493   6.571  10.755  0.3480 -1.3116  0.8362
19273TIP3    H279311   6.406   6.449  10.781 -0.6348 -0.8977 -0.4070
19274TIP3   OH279312   4.302   4.565  15.626 -0.1839 -0.4694  0.0026
19274TIP3    H179313   4.345   4.496  15.677  0.4991  0.0731  0.1590
19274TIP3    H279314   4.369   4.631  15.612 -0.3949 -0.5288 -1.4736
19275TIP3   OH279315   4.488   1.773   3.743  0.2985 -0.1389 -0.5439
19275TIP3    H179316   4.578   1.742   3.751  0.1453 -0.1760  1.7650
19275TIP3    H279317   4.452   1.765   3.832 -1.8398  0.3109 -1.3070
19276TIP3   OH279318   1.428   4.811  16.629  0.1737  0.0891  0.3177
19276TIP3    H179319   1.439   4.807  16.534  1.0680 -1.0565  0.4516
19276TIP3    H279320   1.342   4.772  16.646  1.5965 -3.4598  0.2259
19277TIP3   OH279321   0.480   5.253  15.334 -0.0556 -0.5562  0.7412
19277TIP3    H179322   0.445   5.215  15.415 -2.0729 -1.2997 -0.4221
19277TIP3    H279323   0.464   5.347  15.343 -0.6187 -0.6768  1.0486
19278TIP3   OH279324   1.272   6.682   0.111 -0.0141  0.7820 -0.6299
19278TIP3    H179325   1.210   6.716   0.047 -0.3642  0.9042 -0.2345
19278TIP3    H279326   1.338   6.636   0.059 -0.9962 -0.2524 -1.0049
19279TIP3   OH279327   2.318   1.082  10.721  0.5000 -0.3771 -0.3476
19279TIP3    H179328   2.252   1.150  10.739  1.1479  0.0631  0.4528
19279TIP3    H279329   2.277   1.001  10.751  0.3739 -0.0874  0.2829
19280TIP3   OH279330   6.766   4.582   3.682  0.5149 -0.9565  0.2844
19280TIP3    H179331   6.755   4.663   3.632  2.5705 -0.7755  0.0246
19280TIP3    H279332   6.718   4.597   3.763 -3.4341 -1.4946 -1.7279
19281TIP3   OH279333   2.189   3.458   1.081  0.4074 -0.9134 -0.1574
19281TIP3    H179334   2.256   3.519   1.048  0.2590  0.3936  1.7784
19281TIP3    H279335   2.123   3.457   1.012 -1.3450  4.0218  0.9944
19282TIP3   OH279336   5.211   0.292  11.470 -0.0455  0.4351  0.7546
19282TIP3    H179337   5.293   0.314  11.514  0.4989 -0.2373  0.1041
19282TIP3    H279338   5.238   0.250  11.388 -1.0077  2.3718 -0.6438
19283TIP3   OH279339   5.370   5.989  11.123  0.5652 -0.4056 -0.0803
19283TIP3    H179340   5.395   6.055  11.188 -0.5844 -0.5060  0.4814
19283TIP3    H279341   5.311   5.930  11.169 -0.3088 -0.4656 -1.2207
19284TIP3   OH279342   4.628   2.271  15.593 -0.4479 -0.0882 -0.0051
19284TIP3    H179343   4.643   2.187  15.638 -0.0959 -0.8071 -1.4161
19284TIP3    H279344   4.534   2.270  15.573 -0.2806 -0.5759 -0.8169
19285TIP3   OH279345   3.155   2.201  13.598 -0.0576 -0.0496  0.3610
19285TIP3    H179346   3.211   2.196  13.520 -0.9573 -1.6318 -0.2365
19285TIP3    H279347   3.146   2.295  13.615  0.0261  0.3571 -1.5538
19286TIP3   OH279348   4.236   1.448  10.709 -0.4595 -0.5772 -0.1123
19286TIP3    H179349   4.222   1.530  10.663  0.2854 -0.1547  0.3938
19286TIP3    H279350   4.324   1.420  10.682 -0.5231 -0.9627  0.0771
19287TIP3   OH279351   2.833   1.785  12.541  1.0066 -0.6745  0.1514
19287TIP3    H179352   2.765   1.765  12.476  1.3198  1.1101 -0.8245
19287TIP3    H279353   2.882   1.704  12.550  0.3062 -1.2774 -1.0867
19288TIP3   OH279354   6.544   0.419   0.993 -0.5450  0.7821 -0.1313
19288TIP3    H179355   6.588   0.430   0.909 -1.4245  3.1406 -0.3645
19288TIP3    H279356   6.484   0.346   0.979 -1.3999  1.7545 -1.9372
19289TIP3   OH279357   6.589   6.229   5.529 -0.0074  0.0796  0.7086
19289TIP3    H179358   6.657   6.271   5.478 -0.7338  1.1449  0.5892
19289TIP3    H279359   6.508   6.270   5.500 -0.7413 -1.3238  0.6779
19290TIP3   OH279360   5.987   3.725   5.868 -0.0370 -0.2184 -0.3729
19290TIP3    H179361   5.926   3.730   5.942  0.7734 -0.3775  0.3244
19290TIP3    H279362   5.933   3.697   5.794 -0.8323 -0.2101  0.1909
19291TIP3   OH279363   1.268   2.812   2.830  0.6171  0.0713 -0.9177
19291TIP3    H179364   1.342   2.865   2.801 -1.5219  3.4315 -0.7529
19291TIP3    H279365   1.206   2.816   2.758 -0.6377 -0.1008  0.1183
19292TIP3   OH279366   4.833   4.289  16.576 -0.2550 -0.1091  0.3926
19292TIP3    H179367   4.916   4.248  16.603  0.5136  1.5339  0.6507
19292TIP3    H279368   4.792   4.224  16.518  1.8742 -0.4180 -0.8760
19293TIP3   OH279369   6.096   0.806  11.354 -0.1983 -0.2686 -0.2922
19293TIP3    H179370   6.069   0.892  11.323  0.2437 -0.5558 -1.5271
19293TIP3    H279371   6.171   0.824  11.411 -0.5197  0.2110 -0.0196
19294TIP3   OH279372   4.928   2.281  16.078 -0.4740 -0.1022  0.4895
19294TIP3    H179373   4.954   2.195  16.110  0.1297 -0.8754 -1.9303
19294TIP3    H279374   5.000   2.338  16.103  0.0074 -0.6799  0.4264
19295TIP3   OH279375   6.790   2.617   1.258 -0.2577  0.4920 -0.3935
19295TIP3    H179376   6.801   2.523   1.245 -0.8718  0.2601  0.6188
19295TIP3    H279377   6.716   2.641   1.201 -1.1824  0.0200  0.5660
19296TIP3   OH279378   2.582   3.028   1.873 -0.2819  0.4018  0.9380
19296TIP3    H179379   2.492   3.051   1.851 -0.1410 -0.6369 -0.8912
19296TIP3    H279380   2.634   3.101   1.841 -0.4116  0.7302  1.4641
19297TIP3   OH279381   3.627   4.541   5.915 -0.4917 -0.1161 -0.3073
19297TIP3    H179382   3.656   4.592   5.840 -3.0060 -0.1487 -1.4048
19297TIP3    H279383   3.586   4.605   5.973 -0.0650 -0.3322  0.2376
19298TIP3   OH279384   1.200   0.368   3.314 -0.3995 -0.1517  0.2889
19298TIP3    H179385   1.169   0.286   3.353  1.5125 -1.4194 -0.6386
19298TIP3    H279386   1.210   0.347   3.221  0.7001  0.9356  0.1415
19299TIP3   OH279387   2.714   6.081   4.420  0.2670  0.6614 -0.8847
19299TIP3    H179388   2.770   6.054   4.347  1.6106  0.6320  0.1245
19299TIP3    H279389   2.675   6.164   4.391  2.3785  1.7274 -0.8841
19300TIP3   OH279390   6.658   6.680  13.043  0.3964  0.4578 -0.5582
19300TIP3    H179391   6.682   6.648  12.956  1.1728 -1.3292  0.2762
19300TIP3    H279392   6.740   6.681  13.092  0.1096  2.1827 -0.0231
19301TIP3   OH279393   1.685   3.821  15.979  0.5786  0.1232 -0.3471
19301TIP3    H179394   1.698   3.760  15.905  2.4430  1.0330 -0.8178
19301TIP3    H279395   1.693   3.908  15.940 -0.0095  0.6485  0.6734
19302TIP3   OH279396   2.165   2.220  15.610 -0.0840  0.5507  0.1780
19302TIP3    H179397   2.195   2.219  15.701  1.3628  1.3637 -0.2415
19302TIP3    H279398   2.101   2.291  15.607 -1.2648 -0.4407  0.8456
19303TIP3   OH279399   1.361   4.525   5.744 -0.5299  0.3015 -0.8115
19303TIP3    H179400   1.455   4.546   5.742 -0.2181 -1.0214 -0.9150
19303TIP3    H279401   1.357   4.439   5.786 -1.7248  0.4495 -0.6053
19304TIP3   OH279402   2.376   0.517  11.513  0.0904  0.2206 -0.2968
19304TIP3    H179403   2.350   0.451  11.448  0.6259  0.2728 -0.5732
19304TIP3    H279404   2.307   0.515  11.579 -0.3117 -0.0404 -0.7242
19305TIP3   OH279405   4.436   4.539   4.975  0.3335 -0.3672  0.5869
19305TIP3    H179406   4.417   4.565   4.884 -1.5596 -1.6803  0.5606
19305TIP3    H279407   4.452   4.622   5.020 -0.8115  0.4915 -0.5137
19306TIP3   OH279408   1.519   4.411  14.209  0.2975 -0.2334 -0.0700
19306TIP3    H179409   1.543   4.399  14.117 -0.3262 -0.7088 -0.1776
19306TIP3    H279410   1.428   4.382  14.214  0.1818  0.2312  0.6060
19307TIP3   OH279411   3.491   2.647   3.540  0.5827 -0.2874 -0.3974
19307TIP3    H179412   3.462   2.569   3.492  1.1071 -1.0206  0.4442
19307TIP3    H279413   3.518   2.708   3.471  1.2710 -1.2892 -1.0494
19308TIP3   OH279414   5.841   6.146   0.402  0.4281 -0.8435 -0.0895
19308TIP3    H179415   5.840   6.181   0.491 -1.7332 -1.0253  0.0145
19308TIP3    H279416   5.802   6.059   0.411  0.7746 -1.1153 -1.1301
19309TIP3   OH279417   2.089   2.279   4.087 -0.4657  0.0240  0.3070
19309TIP3    H179418   2.168   2.333   4.090 -0.7801  0.4614  0.7436
19309TIP3    H279419   2.034   2.319   4.020 -1.3200  1.1156  1.6322
19310TIP3   OH279420   6.023   1.694  16.849 -0.4253  0.3756  0.2007
19310TIP3    H179421   6.060   1.610  16.872  0.6384  0.8150  0.1559
19310TIP3    H279422   6.040   1.750  16.925 -0.1835  0.8302 -0.1821
19311TIP3   OH279423   2.529   0.683   1.796 -0.8064 -0.7013  0.2059
19311TIP3    H179424   2.580   0.613   1.755  1.4297  0.7061  0.4079
19311TIP3    H279425   2.449   0.688   1.744 -0.6160 -2.7738 -0.3592
19312TIP3   OH279426   6.010   2.927   2.073 -0.7325 -0.2651 -0.2776
19312TIP3    H179427   6.017   2.968   1.987 -0.3677  1.5077  0.5562
19312TIP3    H279428   6.073   2.855   2.071  1.3319  1.4572 -0.6036
19313TIP3   OH279429   2.845   1.588  12.240 -0.7776  0.6053 -0.2842
19313TIP3    H179430   2.893   1.668  12.218 -0.7618  1.0328  1.1817
19313TIP3    H279431   2.767   1.620  12.285 -0.4442 -0.2188  0.9082
19314TIP3   OH279432   3.411   3.214   2.641  0.3233  0.3399  0.8406
19314TIP3    H179433   3.446   3.220   2.552  1.0001 -1.8767  0.8863
19314TIP3    H279434   3.317   3.230   2.632 -0.2758 -3.2726 -0.9279
19315TIP3   OH279435   1.148   3.715   2.915 -0.4058  0.3558  0.1079
19315TIP3    H179436   1.219   3.661   2.881  0.1776  0.0413  1.7160
19315TIP3    H279437   1.069   3.680   2.874 -0.0849 -1.9430  1.2578
19316TIP3   OH279438   6.187   1.561   0.783 -0.0161 -0.5418  0.1148
19316TIP3    H179439   6.228   1.616   0.851 -0.2218  1.1262 -1.0545
19316TIP3    H279440   6.257   1.545   0.720 -0.4313 -0.0028 -0.4992
19317TIP3   OH279441   6.211   1.732  11.764 -0.1657 -0.0214 -0.1782
19317TIP3    H179442   6.184   1.813  11.806 -0.0679 -0.7663  1.3848
19317TIP3    H279443   6.216   1.754  11.671 -1.1609  1.4739  0.0807
19318TIP3   OH279444   3.747   3.043   2.797  0.0422 -0.2480  0.4090
19318TIP3    H179445   3.790   3.028   2.881  2.0229 -0.3937 -0.5617
19318TIP3    H279446   3.695   3.122   2.809 -0.1029 -0.5521  1.8949
19319TIP3   OH279447   0.365   2.892  15.081  0.3152  0.4752 -0.0917
19319TIP3    H179448   0.380   2.808  15.037 -1.5285 -1.1229  2.0920
19319TIP3    H279449   0.429   2.892  15.152 -1.8326 -0.7697  1.9659
19320TIP3   OH279450   5.650   4.249  15.520  0.0922  0.2641  0.0890
19320TIP3    H179451   5.743   4.227  15.509  0.1485 -0.3288  1.5563
19320TIP3    H279452   5.603   4.177  15.480  0.2952 -1.2683  2.4099
19321TIP3   OH279453   6.447   0.621   5.623  0.7314 -0.8650  0.0525
19321TIP3    H179454   6.382   0.596   5.689 -0.0351 -0.2076 -0.4389
19321TIP3    H279455   6.531   0.608   5.667  0.2744 -1.5871  0.7485
19322TIP3   OH279456   0.121   5.644   3.139  0.0356 -0.0016  1.2065
19322TIP3    H179457   0.032   5.667   3.113 -0.1077 -1.1162  0.6584
19322TIP3    H279458   0.111   5.598   3.222 -0.2398 -2.6410 -0.1805
19323TIP3   OH279459   1.235   1.046  14.870 -0.5259 -0.5584 -0.1333
19323TIP3    H179460   1.261   0.954  14.859 -1.9943 -0.8940 -1.2499
19323TIP3    H279461   1.312   1.096  14.844  0.1954 -1.4699  0.1879
19324TIP3   OH279462   3.561   6.317  11.832  0.0338 -0.2195  1.1304
19324TIP3    H179463   3.553   6.392  11.890 -2.4912  0.6067 -0.1637
19324TIP3    H279464   3.554   6.241  11.891 -1.2383  0.5831  2.0843
19325TIP3   OH279465   0.300   4.142   3.093 -0.0039  0.1257  0.0633
19325TIP3    H179466   0.224   4.176   3.045  0.3747 -1.4453 -1.7663
19325TIP3    H279467   0.264   4.115   3.178 -1.7120 -1.2305 -1.0001
19326TIP3   OH279468   2.403   4.333  14.343 -0.3474  0.5425  0.2582
19326TIP3    H179469   2.369   4.360  14.428 -0.5070 -0.3182  0.4682
19326TIP3    H279470   2.474   4.272  14.363  0.2951  1.1158 -0.2107
19327TIP3   OH279471   5.630   2.259   2.631  0.6335 -0.9015 -0.5436
19327TIP3    H179472   5.693   2.291   2.696  0.6631  1.0365 -1.4300
19327TIP3    H279473   5.625   2.165   2.646  2.8119 -0.9404  0.3841
19328TIP3   OH279474   4.099   6.692  12.273  0.0982  0.4825  0.2272
19328TIP3    H179475   4.043   6.754  12.226 -0.4331  0.1182  0.3705
19328TIP3    H279476   4.043   6.655  12.341  0.3177 -0.3618 -0.0337
19329TIP3   OH279477   0.792   0.313  11.254 -0.2038 -0.4491 -0.0216
19329TIP3    H179478   0.828   0.224  11.254  0.6289 -0.1226  0.4844
19329TIP3    H279479   0.865   0.369  11.225 -1.0626 -0.0415 -1.5315
19330TIP3   OH279480   3.287   0.560   5.973 -0.4906 -0.1636 -0.6544
19330TIP3    H179481   3.263   0.651   5.953  1.1441  0.4506 -0.0809
19330TIP3    H279482   3.321   0.525   5.891  0.2673  0.2551 -0.5300
19331TIP3   OH279483   5.047   3.047   1.635  0.4212  0.0027  0.2996
19331TIP3    H179484   5.042   3.137   1.603 -1.4639 -0.2200 -0.2108
19331TIP3    H279485   4.964   3.034   1.681 -1.1635 -2.5614 -2.8446
19332TIP3   OH279486   5.957   1.113  12.035 -0.0816  0.3834  0.7814
19332TIP3    H179487   6.039   1.085  12.077  0.6396 -0.6377 -1.1393
19332TIP3    H279488   5.890   1.100  12.102  1.0164 -0.9712  1.6910
19333TIP3   OH279489   3.915   4.254   3.626  0.2019  0.4729  0.0919
19333TIP3    H179490   3.982   4.197   3.587 -0.3926 -2.7964  3.2102
19333TIP3    H279491   3.835   4.233   3.577  0.3505 -0.0897  0.0729
19334TIP3   OH279492   2.248   6.759   4.927  0.3437 -0.0605  0.3227
19334TIP3    H179493   2.303   6.752   5.005 -0.0190  0.5326  0.6388
19334TIP3    H279494   2.161   6.733   4.957  0.5047 -1.3128 -0.2494
19335TIP3   OH279495   3.781   1.044  16.678 -0.3997 -0.1502 -0.2475
19335TIP3    H179496   3.698   1.006  16.705  0.9028 -2.1333  1.1609
19335TIP3    H279497   3.846   0.974  16.690  2.0602  2.2538  1.9155
19336TIP3   OH279498   4.747   4.096   2.431  0.0826 -0.0944  0.3550
19336TIP3    H179499   4.743   4.092   2.526 -0.6601  1.2491  0.4044
19336TIP3    H279500   4.722   4.008   2.402 -0.0492 -0.4106  1.3827
19337TIP3   OH279501   4.553   4.604  15.061 -0.2746 -0.2755  0.2448
19337TIP3    H179502   4.485   4.537  15.073 -0.8028  0.0104 -0.9977
19337TIP3    H279503   4.598   4.578  14.980 -0.1772  0.6191  0.0058
19338TIP3   OH279504   1.923   4.405  11.999  0.0717  0.2981 -0.5894
19338TIP3    H179505   1.911   4.333  12.060  0.8961 -0.1524 -0.9441
19338TIP3    H279506   1.969   4.472  12.050 -1.1274  0.8032 -0.1153
19339TIP3   OH279507   0.935   6.438   2.689  0.4644  0.0962  0.1236
19339TIP3    H179508   0.934   6.454   2.594  2.2363  1.7698  0.3221
19339TIP3    H279509   0.900   6.349   2.698 -1.4823  0.5487 -1.9124
19340TIP3   OH279510   0.316   1.977   4.919  0.0311 -0.2317  0.3019
19340TIP3    H179511   0.284   1.889   4.939  2.7904 -1.4749 -0.2219
19340TIP3    H279512   0.402   1.981   4.962 -0.0062  2.2205  0.2779
19341TIP3   OH279513   4.909   0.759  16.584  0.5372 -0.5920 -0.2659
19341TIP3    H179514   4.840   0.797  16.639  0.5984 -0.7670 -0.0635
19341TIP3    H279515   4.964   0.833  16.560  0.4577 -0.4988 -0.1614
19342TIP3   OH279516   5.128   2.019   1.477 -0.5933 -1.4482  0.4537
19342TIP3    H179517   5.036   1.993   1.473 -0.8570 -0.4555 -1.3576
19342TIP3    H279518   5.132   2.088   1.544 -1.4664 -0.5579 -0.3751
19343TIP3   OH279519   6.706   6.699  10.761  0.0353 -0.4703  0.4080
19343TIP3    H179520   6.721   6.605  10.770  2.1597 -0.1758  0.4406
19343TIP3    H279521   6.763   6.726  10.690 -0.3822  0.8405  0.5362
19344TIP3   OH279522   1.397   2.691   4.746 -0.5011  0.4149  0.0083
19344TIP3    H179523   1.337   2.709   4.674 -1.0158 -1.1595  0.0032
19344TIP3    H279524   1.341   2.685   4.823  0.0240  1.8968  0.5468
19345TIP3   OH279525   6.450   0.550  12.562 -0.1837 -0.2978 -0.1952
19345TIP3    H179526   6.437   0.594  12.478  1.0666  0.6164  0.0591
19345TIP3    H279527   6.545   0.551  12.575 -0.3588 -0.3892  1.2408
19346TIP3   OH279528   2.040   0.248  11.369  0.1409 -0.9134 -0.1627
19346TIP3    H179529   1.995   0.306  11.307 -0.8655  1.0455  2.2105
19346TIP3    H279530   2.133   0.260  11.350 -0.1392 -0.3303 -1.2433
19347TIP3   OH279531   6.049   2.023  16.479  0.6018  0.2493  0.4745
19347TIP3    H179532   5.979   1.977  16.433  0.6210 -0.4090  1.0841
19347TIP3    H279533   6.039   1.997  16.570  2.0160 -0.3668  0.4757
19348TIP3   OH279534   5.075   4.480   3.797 -0.0295  0.0206 -0.2737
19348TIP3    H179535   5.045   4.567   3.821  0.3087  0.1482 -0.3158
19348TIP3    H279536   5.016   4.421   3.845 -0.8119  0.2586 -0.9226
19349TIP3   OH279537   4.670   0.565  13.584 -0.2156 -0.0412 -0.3300
19349TIP3    H179538   4.670   0.590  13.491 -1.9290 -3.2485 -1.3768
19349TIP3    H279539   4.652   0.471  13.582 -1.9599  0.0709  3.3534
19350TIP3   OH279540   5.510   0.949  12.546  0.0426  0.2175  0.0133
19350TIP3    H179541   5.488   0.902  12.465  0.0816 -0.2142  0.2516
19350TIP3    H279542   5.557   0.885  12.599  0.2992  0.5990  0.2476
19351TIP3   OH279543   6.838   1.943  16.778 -0.0352  0.2836  0.3547
19351TIP3    H179544   6.898   2.017  16.767 -0.2938  0.4213 -0.1403
19351TIP3    H279545   6.751   1.984  16.783 -0.0024  0.2381  2.6467
19352TIP3   OH279546   3.060   2.517   3.235 -0.5762 -0.7047  0.4193
19352TIP3    H179547   2.969   2.503   3.210 -0.3216 -3.0540  0.5865
19352TIP3    H279548   3.111   2.482   3.162  0.2204  0.2178  0.5042
19353TIP3   OH279549   6.317   3.878  14.728 -0.1443 -0.5151 -0.5199
19353TIP3    H179550   6.236   3.847  14.686 -0.2701 -1.3891  0.3360
19353TIP3    H279551   6.326   3.823  14.806  1.1398 -0.2525 -0.4623
19354TIP3   OH279552   1.996   1.834  12.688  0.6621  0.2531  0.3324
19354TIP3    H179553   1.934   1.903  12.708 -0.4637 -1.2764  2.4648
19354TIP3    H279554   2.065   1.878  12.638 -1.2431  2.3416 -0.6508
19355TIP3   OH279555   4.118   3.185   5.812 -0.5910 -0.3054  0.0598
19355TIP3    H179556   4.166   3.104   5.827 -0.0486 -0.2494 -1.2249
19355TIP3    H279557   4.027   3.164   5.832 -0.2866 -0.8948  0.8620
19356TIP3   OH279558   2.981   2.141  12.765  0.2134 -0.0590  0.3754
19356TIP3    H179559   3.053   2.086  12.734 -2.1400 -2.0184 -2.1247
19356TIP3    H279560   2.919   2.080  12.805 -0.9131  1.2675  0.7579
19357TIP3   OH279561   2.935   3.563   4.400  0.1624 -0.3850 -0.3163
19357TIP3    H179562   2.941   3.506   4.323 -0.8023  0.3902 -0.9980
19357TIP3    H279563   2.914   3.650   4.364  2.4466  0.6443  0.6157
19358TIP3   OH279564   4.741   0.634   4.642  0.4844 -0.3490 -0.1832
19358TIP3    H179565   4.730   0.602   4.552 -3.2365 -0.9302  0.3460
19358TIP3    H279566   4.828   0.602   4.667  0.0550 -3.6661 -2.2535
19359TIP3   OH279567   1.906   0.874   4.160  0.1756  0.0293  0.2187
19359TIP3    H179568   1.837   0.910   4.104  0.7308 -0.1806 -0.6313
19359TIP3    H279569   1.985   0.921   4.134  1.2577 -2.6998 -2.0276
19360TIP3   OH279570   4.901   0.875  16.321 -0.3431  0.9754 -0.3724
19360TIP3    H179571   4.839   0.944  16.346  0.1467  1.5910 -0.8025
19360TIP3    H279572   4.902   0.878  16.225 -1.2197 -0.4660 -0.4641
19361TIP3   OH279573   3.683   4.446  16.114 -0.4875 -0.5468 -0.2889
19361TIP3    H179574   3.597   4.441  16.074 -0.4388  0.0704 -0.4717
19361TIP3    H279575   3.689   4.535  16.148 -0.4431 -0.9875  0.9093
19362TIP3   OH279576   1.099   6.238   5.956  0.2571  0.3858 -0.4381
19362TIP3    H179577   1.109   6.150   5.992  2.1027  0.9898  0.6186
19362TIP3    H279578   1.138   6.233   5.869  0.7090  0.2554 -0.2284
19363TIP3   OH279579   5.347   5.061  14.240  0.1927 -0.6612  0.1981
19363TIP3    H179580   5.291   4.986  14.224  0.2479 -0.7475  0.4062
19363TIP3    H279581   5.435   5.024  14.251  0.6090 -0.4040 -1.7910
19364TIP3   OH279582   2.947   0.508  11.677 -0.0831  0.0491 -0.0662
19364TIP3    H179583   2.904   0.495  11.761  0.3141 -0.9684 -0.0050
19364TIP3    H279584   2.914   0.593  11.646 -0.5225  0.2591  0.9276
19365TIP3   OH279585   0.107   3.488  11.244 -0.0387 -0.1401  0.2704
19365TIP3    H179586   0.022   3.503  11.203  0.7202  2.5349 -0.5034
19365TIP3    H279587   0.116   3.393  11.244 -1.9337 -0.4229 -1.9428
19366TIP3   OH279588   3.697   1.700  11.494 -0.3774  0.3310  0.0643
19366TIP3    H179589   3.750   1.777  11.518 -0.3914  0.4788 -0.3774
19366TIP3    H279590   3.627   1.735  11.440 -0.8992  0.1228  0.5943
19367TIP3   OH279591   2.984   6.623  16.236 -0.3747  0.5215  0.5566
19367TIP3    H179592   3.037   6.543  16.236 -0.5678  0.3582 -1.2214
19367TIP3    H279593   3.048   6.694  16.238 -0.1518  0.3186  0.6438
19368TIP3   OH279594   4.022   2.785  13.738 -0.4734 -0.0534  0.4509
19368TIP3    H179595   4.038   2.703  13.786 -1.4419  0.0044  0.8849
19368TIP3    H279596   3.966   2.760  13.665  0.7846 -0.0926 -0.5504
19369TIP3   OH279597   6.606   4.374   3.976  0.0132  0.1590  0.2074
19369TIP3    H179598   6.597   4.372   4.071 -0.6048 -0.1181  0.1458
19369TIP3    H279599   6.519   4.353   3.943  0.0722  0.8487 -0.4239
19370TIP3   OH279600   2.706   0.596   0.383 -0.7870 -0.2703 -0.1967
19370TIP3    H179601   2.741   0.508   0.401  0.4796  0.3786  0.6736
19370TIP3    H279602   2.699   0.637   0.469 -0.8749  0.6492 -0.6357
19371TIP3   OH279603   2.713   6.422   0.211  0.2467 -0.4306 -0.3800
19371TIP3    H179604   2.695   6.438   0.118  0.6470  1.8062 -0.1123
19371TIP3    H279605   2.805   6.395   0.212 -0.5059 -3.3726 -0.8606
19372TIP3   OH279606   2.683   2.097   0.725 -0.1446  0.4395 -0.6890
19372TIP3    H179607   2.636   2.180   0.721 -0.5184  0.2236 -0.8487
19372TIP3    H279608   2.770   2.116   0.691 -0.2019  0.7859 -0.6362
19373TIP3   OH279609   3.778   5.586   2.090  0.1235  0.0616  0.3853
19373TIP3    H179610   3.781   5.549   2.179 -3.7007  3.5250  2.3452
19373TIP3    H279611   3.686   5.613   2.079  1.0803  2.5729 -3.3933
19374TIP3   OH279612   6.109   2.525  17.091 -0.6346 -0.7049  0.2752
19374TIP3    H179613   6.061   2.443  17.088 -2.2843  0.2241  0.1411
19374TIP3    H279614   6.085   2.565  17.175  1.0129 -0.8166  0.8552
19375TIP3   OH279615   0.075   2.800  16.589 -0.0012  0.0676 -0.2857
19375TIP3    H179616   0.116   2.721  16.625 -0.0193 -0.1973 -0.8369
19375TIP3    H279617  -0.018   2.778  16.585 -0.1248  0.4416  0.3803
19376TIP3   OH279618   0.721   3.974  14.425 -0.1086 -0.1448  0.2533
19376TIP3    H179619   0.777   3.899  14.445  0.4340  0.0681 -0.4177
19376TIP3    H279620   0.782   4.044  14.400 -0.6294  0.3692  0.4010
19377TIP3   OH279621   3.100   1.631   5.777 -0.3234 -0.3178 -0.5611
19377TIP3    H179622   3.161   1.559   5.760  0.6652  0.2324  0.5239
19377TIP3    H279623   3.014   1.589   5.776  0.1435 -1.3110 -1.0457
19378TIP3   OH279624   1.065   2.460   2.944  0.5679 -0.8687 -0.0535
19378TIP3    H179625   1.122   2.511   3.001 -0.9479  0.5561  0.2661
19378TIP3    H279626   1.104   2.470   2.857 -0.1333  1.6512 -0.1623
19379TIP3   OH279627   4.333   4.856  14.234  0.3839 -0.1622  0.5848
19379TIP3    H179628   4.353   4.767  14.203 -0.6083  0.1003 -0.9117
19379TIP3    H279629   4.258   4.845  14.291  1.5807 -0.5187  2.1617
19380TIP3   OH279630   2.557   3.602   3.844  0.3370  0.4309 -0.0162
19380TIP3    H179631   2.567   3.676   3.904  1.2052  2.6019 -2.6523
19380TIP3    H279632   2.613   3.534   3.880 -0.1652  1.1391  2.2695
19381TIP3   OH279633   4.188   4.300   2.368  0.0478  0.4270 -0.0654
19381TIP3    H179634   4.126   4.326   2.437  0.4490  1.7388 -0.1736
19381TIP3    H279635   4.250   4.242   2.412 -0.0163  0.8137  0.5478
19382TIP3   OH279636   3.915   0.515   0.171 -0.0157  0.1364 -0.0431
19382TIP3    H179637   3.949   0.474   0.092 -1.7791 -2.1311  0.2861
19382TIP3    H279638   3.989   0.566   0.205  1.2103  0.0092 -2.3471
19383TIP3   OH279639   6.722   1.818  12.858  0.7257  0.1186  0.1622
19383TIP3    H179640   6.776   1.832  12.936  1.6306  1.0178 -0.5982
19383TIP3    H279641   6.726   1.901  12.810 -1.8052  0.4245  0.3323
19384TIP3   OH279642   4.273   4.629   2.696 -0.0203  0.3947  0.4532
19384TIP3    H179643   4.235   4.545   2.724  0.5368  0.2458  0.7747
19384TIP3    H279644   4.251   4.690   2.766  0.6140  0.2279  0.8069
19385TIP3   OH279645   5.207   2.113   3.990 -0.4076  0.2532 -0.2087
19385TIP3    H179646   5.176   2.023   4.005 -2.4559  1.0049  0.4868
19385TIP3    H279647   5.302   2.108   3.999 -0.6865 -1.1658  3.9600
19386TIP3   OH279648   6.282   0.072  14.975  0.0337 -0.4781  0.0747
19386TIP3    H179649   6.347   0.011  15.009 -0.0258 -0.0251  1.0233
19386TIP3    H279650   6.334   0.146  14.941  0.0731 -0.7573 -0.4868
19387TIP3   OH279651   4.806   4.262  12.005  0.7376 -0.1530 -0.1403
19387TIP3    H179652   4.763   4.271  12.090 -0.0310 -0.0505 -0.5300
19387TIP3    H279653   4.811   4.168  11.990  1.9006 -0.2101  0.5192
19388TIP3   OH279654   2.325   4.460   6.266 -0.2656 -0.2184 -0.5891
19388TIP3    H179655   2.318   4.556   6.274 -2.8133 -0.4095  0.3959
19388TIP3    H279656   2.235   4.430   6.264  0.4895 -2.6764 -0.3709
19389TIP3   OH279657   0.809   2.697  16.490  0.2132 -0.2802  0.3009
19389TIP3    H179658   0.716   2.713  16.474  1.0205  3.6653 -1.6401
19389TIP3    H279659   0.828   2.743  16.572  0.8433  1.0706 -0.5668
19390TIP3   OH279660   4.543   5.276   1.620 -1.1789 -0.1613 -0.2322
19390TIP3    H179661   4.531   5.310   1.709 -1.1397  1.5185 -0.8226
19390TIP3    H279662   4.464   5.226   1.602 -1.9521  0.8939  0.1560
19391TIP3   OH279663   6.478   5.371   2.337 -0.1229 -0.5595  0.2992
19391TIP3    H179664   6.564   5.380   2.377  0.1354  0.6441 -0.4588
19391TIP3    H279665   6.438   5.458   2.346 -0.1088 -0.2739 -1.8592
19392TIP3   OH279666   1.717   2.466   3.581  0.1752  0.1600  0.0220
19392TIP3    H179667   1.812   2.454   3.583  0.3721  1.5857  0.4188
19392TIP3    H279668   1.702   2.526   3.507 -0.2225  1.2691  0.9643
19393TIP3   OH279669   5.567   1.052  14.067  0.0659  0.2736 -0.2745
19393TIP3    H179670   5.610   1.021  14.147 -1.3855 -0.5267  0.2304
19393TIP3    H279671   5.639   1.084  14.012  1.0406  1.9745  1.8100
19394TIP3   OH279672   4.121   2.231  11.776 -0.2151 -0.1374  0.4296
19394TIP3    H179673   4.114   2.137  11.762  1.4833 -0.4238  1.3323
19394TIP3    H279674   4.209   2.254  11.745 -1.2112  1.5038 -1.4682
19395TIP3   OH279675   5.718   5.813   0.800  0.0701 -0.2340  0.3528
19395TIP3    H179676   5.748   5.736   0.753 -0.9211 -0.7629  0.5714
19395TIP3    H279677   5.676   5.868   0.734 -1.1849 -0.9067  0.5620
19396TIP3   OH279678   2.515   1.238   2.597 -0.3199  0.0664  0.7066
19396TIP3    H179679   2.535   1.147   2.617 -1.2019  0.0381  1.5698
19396TIP3    H279680   2.495   1.277   2.683 -3.0648  0.2672  0.0717
19397TIP3   OH279681   3.913   1.033  14.805  0.4582  0.1115 -0.8341
19397TIP3    H179682   3.999   1.025  14.764  0.5800  2.5686 -1.1952
19397TIP3    H279683   3.852   1.040  14.731  0.0812 -0.2843 -0.5708
19398TIP3   OH279684   1.125   6.289  16.285  0.0544  0.7843 -0.3965
19398TIP3    H179685   1.144   6.364  16.228  1.3316  0.8758  0.1200
19398TIP3    H279686   1.145   6.212  16.232 -1.3225  0.7803 -0.9496
19399TIP3   OH279687   5.905   6.698  16.522  0.6175 -0.1063 -0.1659
19399TIP3    H179688   5.860   6.704  16.438 -0.3722 -1.6665  0.2169
19399TIP3    H279689   5.840   6.724  16.587  0.6748 -1.0241  0.2778
19400TIP3   OH279690   6.140   6.689   2.846  0.1310 -1.1104 -0.9577
19400TIP3    H179691   6.055   6.651   2.871 -0.3358  0.1644 -0.5323
19400TIP3    H279692   6.150   6.666   2.754 -1.8686  0.7406 -1.7315
19401TIP3   OH279693   5.005   5.087   0.790  0.2186 -0.2350  0.0763
19401TIP3    H179694   4.959   5.088   0.706 -0.2690 -0.1224  0.3415
19401TIP3    H279695   4.935   5.082   0.856  0.5983 -0.4270  0.4730
19402TIP3   OH279696   5.867   5.680  14.189  0.2134 -0.0616  0.1503
19402TIP3    H179697   5.807   5.753  14.176 -0.9146 -0.9532  0.1396
19402TIP3    H279698   5.839   5.641  14.272 -0.0094 -1.1914 -0.4350
19403TIP3   OH279699   1.067   3.837  17.108  0.9390  0.1478  0.6312
19403TIP3    H179700   1.055   3.840  17.203  1.7654  0.7716  0.7314
19403TIP3    H279701   1.104   3.923  17.087  1.0200 -0.0919 -0.2174
19404TIP3   OH279702   1.241   0.269  15.007 -0.9528  0.2597  0.3927
19404TIP3    H179703   1.324   0.315  14.993 -0.7652 -0.5091 -1.2156
19404TIP3    H279704   1.266   0.177  15.015 -1.5813  0.1194  0.8203
19405TIP3   OH279705   6.148   0.445  14.357 -0.2172  0.4491  0.1753
19405TIP3    H179706   6.149   0.374  14.293  1.2520  0.3713  0.2409
19405TIP3    H279707   6.067   0.434  14.405  0.3907 -1.7301  0.7796
19406TIP3   OH279708   3.249   3.220  11.024 -0.0191  0.0869  0.1835
19406TIP3    H179709   3.271   3.295  10.969  1.1734  1.1654  2.0456
19406TIP3    H279710   3.331   3.171  11.033 -1.2484 -3.1136 -3.1550
19407TIP3   OH279711   1.831   0.897  14.994 -0.3645  0.1226 -0.8542
19407TIP3    H179712   1.879   0.979  15.003  0.8702 -0.7931  1.9816
19407TIP3    H279713   1.862   0.860  14.911  1.4605  1.0221 -0.6215
19408TIP3   OH279714   1.033   1.765   4.723 -0.0285 -0.2429 -0.6920
19408TIP3    H179715   0.964   1.715   4.678  1.3671 -0.9372 -2.1482
19408TIP3    H279716   1.048   1.840   4.667 -0.3461  0.5154  0.2076
19409TIP3   OH279717   3.017   4.468   3.134  0.2026 -0.1686  0.6942
19409TIP3    H179718   2.968   4.509   3.205  0.5484  1.4251  0.0497
19409TIP3    H279719   3.104   4.507   3.139 -0.1939  1.2080 -1.5258
19410TIP3   OH279720   0.768   1.810   0.891 -0.5675 -0.1924  0.5148
19410TIP3    H179721   0.747   1.735   0.946  0.9460  0.1035  1.5630
19410TIP3    H279722   0.825   1.774   0.823  0.7835  0.0735  1.4510
19411TIP3   OH279723   6.174   3.146   4.495 -0.2310  0.2520 -0.3070
19411TIP3    H179724   6.199   3.058   4.522 -1.0361  0.0286 -0.2732
19411TIP3    H279725   6.080   3.141   4.480  0.0131  0.6384 -2.1664
19412TIP3   OH279726   6.405   5.105  14.034  0.4491  0.5269  0.6546
19412TIP3    H179727   6.420   5.068  14.121  0.9083 -0.6731  0.0731
19412TIP3    H279728   6.310   5.101  14.022  0.4001  0.5455  1.0209
19413TIP3   OH279729   5.434   5.609  16.199  0.5887  0.4181  0.1811
19413TIP3    H179730   5.484   5.684  16.166  3.4382 -1.5573 -0.4367
19413TIP3    H279731   5.479   5.586  16.281 -2.1460  1.1031  2.0162
19414TIP3   OH279732   5.264   3.001  10.161  0.1016 -0.3263 -0.2982
19414TIP3    H179733   5.349   3.000  10.117  0.5298 -0.2143  0.5043
19414TIP3    H279734   5.259   3.087  10.202 -0.3453 -0.3797 -0.2348
19415TIP3   OH279735   5.125   6.432  12.544 -0.1626  0.7339  0.2661
19415TIP3    H179736   5.201   6.481  12.514  0.1227  1.4594  2.0541
19415TIP3    H279737   5.050   6.487  12.520 -0.0938  0.4343 -0.6954
19416TIP3   OH279738   5.931   1.188   1.770  0.4378 -0.2481 -0.5021
19416TIP3    H179739   6.007   1.212   1.716 -0.8294 -0.5985 -2.5550
19416TIP3    H279740   5.877   1.267   1.771 -0.4128 -0.8045 -1.3195
19417TIP3   OH279741   0.578   5.730   2.122  0.4393 -0.6598 -0.9042
19417TIP3    H179742   0.573   5.685   2.037 -0.1517  2.3879 -2.6411
19417TIP3    H279743   0.491   5.769   2.133  0.6839 -0.5253  0.8493
19418TIP3   OH279744   4.654   0.449  12.589  1.0905  0.2821 -0.3879
19418TIP3    H179745   4.598   0.406  12.654  2.1627  0.2498  0.5365
19418TIP3    H279746   4.718   0.498  12.641  0.2011  2.6895 -1.3941
19419TIP3   OH279747   4.121   6.564  11.611 -0.2490 -0.5380  0.7385
19419TIP3    H179748   4.146   6.473  11.620  0.2001 -0.4661  0.2694
19419TIP3    H279749   4.026   6.563  11.609 -0.2380 -1.1973 -1.1257
19420TIP3   OH279750   4.986   0.055  11.460  0.6454  0.2187 -0.0165
19420TIP3    H179751   4.892   0.034  11.454  0.1606  2.6821 -2.5375
19420TIP3    H279752   5.029  -0.030  11.454 -1.3632 -0.9773  1.1210
19421TIP3   OH279753   1.539   0.367  12.192  0.4048  0.5440  0.1572
19421TIP3    H179754   1.456   0.414  12.200  0.7665  1.2315 -0.0260
19421TIP3    H279755   1.515   0.281  12.158 -0.0677  1.3461 -1.6701
19422TIP3   OH279756   5.830   3.666   5.653  0.3674 -0.1682  0.1085
19422TIP3    H179757   5.871   3.678   5.567 -1.3065 -0.7569 -0.8126
19422TIP3    H279758   5.750   3.718   5.649 -0.6553 -1.6492  0.6331
19423TIP3   OH279759   1.737   5.394   3.042 -0.7022 -0.1244  1.0143
19423TIP3    H179760   1.667   5.428   3.098 -1.6355 -1.4700  0.7238
19423TIP3    H279761   1.729   5.298   3.050 -0.1788 -0.3293 -0.5835
19424TIP3   OH279762   0.233   1.674  12.987  0.6768  0.5150  0.2792
19424TIP3    H179763   0.283   1.724  12.922 -1.2113  3.4001  0.8444
19424TIP3    H279764   0.287   1.676  13.066  1.2441  0.4119 -0.0979
19425TIP3   OH279765   5.843   1.593   4.837 -0.6154  0.0845  0.1135
19425TIP3    H179766   5.758   1.610   4.796 -1.1486  0.6470  1.4042
19425TIP3    H279767   5.869   1.678   4.874 -0.2595 -0.4629  1.1377
19426TIP3   OH279768   5.371   2.323   5.472  0.3266  0.1580  0.8996
19426TIP3    H179769   5.302   2.383   5.499  0.9332  2.1884 -1.5872
19426TIP3    H279770   5.370   2.253   5.537 -2.2542  1.4716  2.4201
19427TIP3   OH279771   4.817   6.496   6.441 -0.2098 -0.0929  0.6998
19427TIP3    H179772   4.855   6.428   6.385  0.1837  1.9914 -1.7938
19427TIP3    H279773   4.724   6.498   6.416 -0.2895  0.0448  1.0072
19428TIP3   OH279774   4.667   3.723  12.914  0.5600 -0.3883  0.2699
19428TIP3    H179775   4.732   3.685  12.972  0.0463 -1.5832  0.0888
19428TIP3    H279776   4.710   3.729  12.829  0.5520 -0.8698  0.2281
19429TIP3   OH279777   4.690   3.972   1.534  0.0337 -0.4017  0.2076
19429TIP3    H179778   4.596   3.975   1.519  0.0650 -0.3000  0.0261
19429TIP3    H279779   4.716   3.884   1.506  0.1389 -0.1156 -0.6417
19430TIP3   OH279780   4.540   1.359   4.370  0.3094 -0.0421 -0.1858
19430TIP3    H179781   4.466   1.348   4.430  2.1746 -2.3955  1.9227
19430TIP3    H279782   4.576   1.271   4.361  3.6682  1.1751  0.0345
19431TIP3   OH279783   6.580   0.227   5.834 -0.2203  0.4468  0.0160
19431TIP3    H179784   6.522   0.155   5.859 -0.7997  0.0181 -2.3695
19431TIP3    H279785   6.644   0.232   5.906  0.7526 -3.4494 -0.3715
19432TIP3   OH279786   3.538   0.614   6.081 -0.0667  0.0018 -0.7138
19432TIP3    H179787   3.451   0.606   6.043  0.2268  1.3310 -1.7158
19432TIP3    H279788   3.596   0.629   6.007  0.7125  1.2572  0.0995
19433TIP3   OH279789   4.259   6.567   3.864  0.8660 -0.2795 -0.3388
19433TIP3    H179790   4.320   6.535   3.930  0.9026  2.6291  1.1908
19433TIP3    H279791   4.315   6.589   3.789  1.3477 -0.1264  0.0575
19434TIP3   OH279792   3.551   2.678  13.506 -0.1811 -0.5412  0.2106
19434TIP3    H179793   3.457   2.696  13.505 -0.3924 -1.4437  1.4125
19434TIP3    H279794   3.587   2.735  13.437 -1.7855 -1.2978 -1.3333
19435TIP3   OH279795   2.448   0.176  12.796 -0.0874 -0.2885 -0.0464
19435TIP3    H179796   2.362   0.204  12.826 -0.3110 -1.8462  0.8531
19435TIP3    H279797   2.477   0.247  12.739 -1.5899  0.6604  0.3022
19436TIP3   OH279798   4.104   5.720  14.160  0.3379 -0.2119 -0.0667
19436TIP3    H179799   4.060   5.635  14.160 -0.8110  0.2845 -2.1944
19436TIP3    H279800   4.183   5.706  14.108 -0.7189  0.3314 -1.9178
19437TIP3   OH279801   5.833   2.659  11.575  0.2003  0.3012 -0.0480
19437TIP3    H179802   5.742   2.676  11.600  0.5834  1.3072  0.7330
19437TIP3    H279803   5.864   2.743  11.540  0.0936 -0.6916 -2.7030
19438TIP3   OH279804   3.716   0.563  11.201  0.3467 -0.3592  0.5795
19438TIP3    H179805   3.787   0.499  11.207 -0.0596 -0.9638 -0.6281
19438TIP3    H279806   3.751   0.633  11.147 -0.4917 -1.4749 -1.5188
19439TIP3   OH279807   3.162   6.036   3.918  0.4477  0.5311 -0.4184
19439TIP3    H179808   3.194   6.084   3.842 -0.3783  1.5579 -0.1345
19439TIP3    H279809   3.108   5.966   3.881  2.4811 -0.8963 -0.8796
19440TIP3   OH279810   0.597   1.375   2.245 -0.4216 -0.2384 -0.2642
19440TIP3    H179811   0.636   1.305   2.298 -0.6687 -0.8440 -0.8655
19440TIP3    H279812   0.669   1.405   2.190 -0.1761  0.3606  0.3712
19441TIP3   OH279813   0.433   6.283   3.397  0.5065 -0.1878 -0.1793
19441TIP3    H179814   0.481   6.235   3.330  0.9149  0.4059 -0.3217
19441TIP3    H279815   0.492   6.354   3.423 -0.1206  0.2986 -0.0438
19442TIP3   OH279816   4.462   1.277   0.905  0.0406 -0.1256  0.0678
19442TIP3    H179817   4.517   1.199   0.901 -0.6506 -0.7003  1.3005
19442TIP3    H279818   4.392   1.254   0.967  2.1365  2.8851  4.0271
19443TIP3   OH279819   4.578   5.089  16.730 -0.6896  0.2772 -0.2571
19443TIP3    H179820   4.673   5.075  16.734 -0.4917 -0.4304 -3.9118
19443TIP3    H279821   4.541   5.020  16.785  0.8974 -0.6351 -0.2772
19444TIP3   OH279822   6.073   4.067  16.093 -0.3975  0.4782  0.0728
19444TIP3    H179823   6.089   4.002  16.161 -0.1014  0.5175  0.0438
19444TIP3    H279824   5.998   4.117  16.124 -0.9727 -0.2242 -0.1589
19445TIP3   OH279825   4.459   6.454   4.595  0.0472 -0.0435  0.1408
19445TIP3    H179826   4.419   6.526   4.545  0.1777  0.3157  0.5476
19445TIP3    H279827   4.389   6.421   4.650 -0.4721 -1.3168 -1.2021
19446TIP3   OH279828   5.394   1.992   1.533  0.3706 -0.1670 -0.1424
19446TIP3    H179829   5.343   2.073   1.544 -0.4501 -0.7586  0.6001
19446TIP3    H279830   5.342   1.938   1.474  0.7440 -0.3005 -0.3541
19447TIP3   OH279831   2.801   0.522   0.881 -0.2368 -0.0202 -0.5149
19447TIP3    H179832   2.829   0.469   0.956  1.5815  2.1784  0.4874
19447TIP3    H279833   2.742   0.587   0.918  0.0174  0.5695 -1.1214
19448TIP3   OH279834   0.861   0.354   2.465 -0.0630  0.1692  0.2032
19448TIP3    H179835   0.862   0.356   2.560 -1.4163 -0.7332  0.2657
19448TIP3    H279836   0.946   0.318   2.441  0.2174  0.2365  1.0713
19449TIP3   OH279837   1.494   5.581  11.267  0.5034 -0.0375  0.1109
19449TIP3    H179838   1.489   5.602  11.174  1.2594 -0.7341 -0.0952
19449TIP3    H279839   1.586   5.559  11.282  0.1677 -1.0855  0.7554
19450TIP3   OH279840   4.106   4.432  12.130 -0.2288 -0.0637 -0.2678
19450TIP3    H179841   4.028   4.437  12.186 -0.3578 -0.5355 -0.4034
19450TIP3    H279842   4.109   4.341  12.101 -0.2967  0.2270 -1.2205
19451TIP3   OH279843   4.815   1.143   4.628  0.0112 -0.0013 -0.8916
19451TIP3    H179844   4.887   1.165   4.688  0.5245 -1.7664 -0.7917
19451TIP3    H279845   4.781   1.227   4.600  2.3504  0.9396 -1.1916
19452TIP3   OH279846   2.558   6.513  14.955 -0.6342  0.0352 -0.3088
19452TIP3    H179847   2.549   6.538  15.047  1.2840  1.5557 -0.4813
19452TIP3    H279848   2.629   6.568  14.921 -0.5354 -1.2752 -2.4270
19453TIP3   OH279849   6.596   2.763   3.616  0.0803  0.6563 -0.0070
19453TIP3    H179850   6.588   2.756   3.711  0.8865 -1.0065 -0.0209
19453TIP3    H279851   6.689   2.747   3.598 -0.7333 -4.1311 -1.3325
19454TIP3   OH279852   1.650   1.004   2.308 -0.4213  0.2281  0.1209
19454TIP3    H179853   1.744   0.997   2.290 -0.2142  0.2818  1.1319
19454TIP3    H279854   1.613   0.922   2.275  0.5266 -1.4632  2.9365
19455TIP3   OH279855   5.181   0.861  13.552 -0.1506  0.1620  0.4694
19455TIP3    H179856   5.112   0.876  13.618 -1.3428  0.3815 -0.7800
19455TIP3    H279857   5.139   0.806  13.486  1.0553 -0.1457 -0.0576
19456TIP3   OH279858   6.483   4.291  10.984  0.7015 -0.6249 -0.1305
19456TIP3    H179859   6.540   4.268  11.057  0.6910 -2.8749 -0.7680
19456TIP3    H279860   6.542   4.314  10.913  0.7142  1.2003  0.4200
19457TIP3   OH279861   3.761   2.578   3.209 -0.7983 -0.4223 -0.3834
19457TIP3    H179862   3.696   2.532   3.262  1.9494 -2.6627  1.3002
19457TIP3    H279863   3.719   2.661   3.186 -2.8094  0.0019  3.9260
19458TIP3   OH279864   2.811   2.799  16.706 -0.4889  0.3253 -0.1642
19458TIP3    H179865   2.905   2.782  16.702 -0.0108  1.4327  3.1342
19458TIP3    H279866   2.797   2.870  16.643  1.0714  0.8422  0.0263
19459TIP3   OH279867   4.848   4.993  11.340 -0.1536  0.1444 -0.2041
19459TIP3    H179868   4.912   4.921  11.345  0.4579  0.7519  0.8863
19459TIP3    H279869   4.874   5.041  11.261  1.3511  0.9319  0.7217
19460TIP3   OH279870   5.866   0.258  14.981  0.7484 -0.0049 -0.4921
19460TIP3    H179871   5.809   0.205  14.925  1.2004 -0.3717 -0.6123
19460TIP3    H279872   5.887   0.335  14.928  1.4249 -0.4957 -0.9639
19461TIP3   OH279873   1.640   6.214  16.168  0.5812  0.6014 -0.3475
19461TIP3    H179874   1.702   6.149  16.135  0.3304 -1.1098  2.2639
19461TIP3    H279875   1.577   6.225  16.097  0.9954 -1.5678 -1.1369
19462TIP3   OH279876   0.090   6.359   3.545  0.3402 -0.9655 -0.4506
19462TIP3    H179877   0.128   6.377   3.458  1.9846 -1.3445  0.1568
19462TIP3    H279878   0.150   6.295   3.584 -0.2488 -0.6081  1.0707
19463TIP3   OH279879   1.572   5.549   3.209 -0.2914  0.2455 -0.4633
19463TIP3    H179880   1.529   5.571   3.292  0.7686 -0.2523  0.2429
19463TIP3    H279881   1.599   5.633   3.172  1.5786  0.3754  1.0210
19464TIP3   OH279882   6.142   0.216  13.755  0.0361  0.4524  0.3069
19464TIP3    H179883   6.096   0.225  13.839 -0.0548  0.7181  0.2288
19464TIP3    H279884   6.144   0.305  13.720  0.5987  0.4402  0.3041
19465TIP3   OH279885   5.686   3.699  10.315 -0.2516  0.2994 -0.6995
19465TIP3    H179886   5.679   3.641  10.391  0.2293 -0.2042 -1.0279
19465TIP3    H279887   5.693   3.640  10.240  0.5955  0.7656 -1.0104
19466TIP3   OH279888   5.090   0.876  15.452  0.7846 -0.0350  0.7576
19466TIP3    H179889   5.058   0.947  15.507 -0.5142 -0.9568  1.2673
19466TIP3    H279890   5.059   0.796  15.495 -0.1501 -0.8085 -1.1767
19467TIP3   OH279891   6.166   5.307  14.800 -0.2467 -0.5372  0.2201
19467TIP3    H179892   6.092   5.363  14.776  0.6446  0.4946 -0.2048
19467TIP3    H279893   6.178   5.323  14.894 -0.2192 -0.2867  0.1751
19468TIP3   OH279894   2.913   6.308   3.002 -0.3485  0.1665  0.3011
19468TIP3    H179895   2.851   6.282   2.934  0.8993 -0.4844 -0.6220
19468TIP3    H279896   2.904   6.241   3.069  1.5090 -1.7277 -1.2264
19469TIP3   OH279897   2.703   3.674   0.769 -0.2047 -0.0393  0.8849
19469TIP3    H179898   2.712   3.767   0.789  0.7368 -0.2646  1.6258
19469TIP3    H279899   2.793   3.641   0.769 -0.4344 -0.7419 -0.4704
19470TIP3   OH279900   3.271   5.360   4.046 -0.4523  0.0163 -0.0121
19470TIP3    H179901   3.207   5.394   4.108 -1.0141 -2.7342  1.0761
19470TIP3    H279902   3.346   5.419   4.055 -1.2179  0.8033  1.8903
19471TIP3   OH279903   5.189   3.132  15.431 -0.3992 -0.4712  0.4880
19471TIP3    H179904   5.225   3.199  15.373 -1.3390 -0.6649 -0.3438
19471TIP3    H279905   5.247   3.056  15.418  0.3172 -0.0153  0.9897
19472TIP3   OH279906   0.050   6.260   4.649 -0.4262  0.5487 -0.3886
19472TIP3    H179907   0.084   6.174   4.623 -0.9701  0.0879  0.3728
19472TIP3    H279908   0.059   6.261   4.744 -1.7704  0.7457 -0.2493
19473TIP3   OH279909   4.571   1.538   4.840  0.1359  0.6392  0.4496
19473TIP3    H179910   4.571   1.539   4.936  3.4761  1.9882  0.5820
19473TIP3    H279911   4.547   1.449   4.816 -3.1964  0.8638  2.3574
19474TIP3   OH279912   3.386   4.363  11.407  0.4169  0.1912  0.3872
19474TIP3    H179913   3.444   4.439  11.417 -0.7146  1.1040  0.2387
19474TIP3    H279914   3.361   4.339  11.496 -0.2120  0.8082  0.3929
19475TIP3   OH279915   6.618   4.002   5.346  0.5775 -0.1624 -0.3580
19475TIP3    H179916   6.712   3.984   5.349  0.7205  0.6581  0.8809
19475TIP3    H279917   6.583   3.937   5.285  1.7795 -1.2529  0.0743
19476TIP3   OH279918   3.748   4.976  13.061  0.1398 -0.2064 -0.1127
19476TIP3    H179919   3.757   4.943  13.151 -0.5576 -0.7047 -0.2130
19476TIP3    H279920   3.783   5.065  13.064 -2.7049  0.9975  1.4037
19477TIP3   OH279921   3.012   3.745   2.977 -0.2415  0.4111 -0.2251
19477TIP3    H179922   3.025   3.837   2.954 -1.2398  0.2817 -1.3855
19477TIP3    H279923   2.924   3.724   2.947  0.5208 -1.3384 -1.4249
19478TIP3   OH279924   5.712   1.290   1.407  0.2986 -0.3364 -0.2049
19478TIP3    H179925   5.753   1.216   1.363 -2.4832 -1.7156 -0.6257
19478TIP3    H279926   5.685   1.348   1.335 -1.3857 -1.0471 -0.1751
19479TIP3   OH279927   6.239   3.796   2.845  0.3846  0.0449 -0.5791
19479TIP3    H179928   6.196   3.869   2.800 -0.9464  0.1565  0.7889
19479TIP3    H279929   6.202   3.797   2.933  0.8062 -1.9090 -0.3392
19480TIP3   OH279930   6.404   2.378  11.725  0.4694 -0.3508  0.4469
19480TIP3    H179931   6.435   2.294  11.760  1.9274 -0.0126 -0.0020
19480TIP3    H279932   6.431   2.377  11.634  1.8443  1.2246  0.7924
19481TIP3   OH279933   5.179   2.418  14.127  0.8204  0.4525 -0.1818
19481TIP3    H179934   5.113   2.463  14.074  0.6999 -0.4781 -0.8570
19481TIP3    H279935   5.217   2.486  14.182 -0.8348  0.9851  0.3716
19482TIP3   OH279936   0.085   3.506   2.553  0.3711  0.4663  0.4487
19482TIP3    H179937   0.053   3.494   2.464 -1.1611 -0.0523  1.0349
19482TIP3    H279938   0.054   3.594   2.578 -2.2681 -0.6910  1.6185
19483TIP3   OH279939   0.858   5.049   5.727 -0.3937  0.8666  0.7698
19483TIP3    H179940   0.909   5.038   5.807  0.5924  0.4094  0.0892
19483TIP3    H279941   0.912   5.104   5.671 -1.4589  1.9085  0.7313
19484TIP3   OH279942   2.183   1.393  14.967 -0.3681  0.1287  0.2210
19484TIP3    H179943   2.180   1.324  15.033  2.4613  0.2139  0.5413
19484TIP3    H279944   2.273   1.394  14.937 -1.1430  1.3402 -2.3699
19485TIP3   OH279945   0.827   2.145  15.397  0.5245 -0.4623  0.0961
19485TIP3    H179946   0.763   2.131  15.468  2.4528  0.5308  2.1454
19485TIP3    H279947   0.790   2.097  15.323 -3.1723  0.9919  0.7630
19486TIP3   OH279948   2.636   0.071   6.670  0.1414 -0.1057 -0.1077
19486TIP3    H179949   2.603   0.040   6.585 -1.6304  2.0215 -0.2896
19486TIP3    H279950   2.722   0.106   6.651  0.0153 -0.2163 -0.9150
19487TIP3   OH279951   5.861   6.229   3.624  0.4952  0.4253  0.4250
19487TIP3    H179952   5.772   6.241   3.590  0.6008 -0.3945 -0.1855
19487TIP3    H279953   5.891   6.317   3.644 -0.4673  0.7119  0.6777
19488TIP3   OH279954   4.594   3.308  15.114 -0.3110  0.8695  0.2858
19488TIP3    H179955   4.615   3.343  15.028 -0.8669  1.2386  0.2947
19488TIP3    H279956   4.679   3.288  15.153 -0.0021  1.7938  0.1080
19489TIP3   OH279957   4.453   4.508  11.182  0.6536 -0.1412 -0.5360
19489TIP3    H179958   4.410   4.462  11.110 -1.0419 -0.3610  0.5562
19489TIP3    H279959   4.415   4.596  11.180  0.6646 -0.1209  0.0053
19490TIP3   OH279960   1.985   2.642   0.082  0.3921  0.3406  0.1140
19490TIP3    H179961   1.962   2.723   0.129  1.5358 -0.3235  1.9335
19490TIP3    H279962   2.006   2.579   0.151  3.2965 -0.3827 -1.2528
19491TIP3   OH279963   1.807   1.188   1.059 -0.0174  0.3778 -0.5280
19491TIP3    H179964   1.758   1.185   1.141  0.2689 -0.1007 -0.3695
19491TIP3    H279965   1.746   1.224   0.995 -1.2678 -2.0840 -0.8205
19492TIP3   OH279966   6.444   5.322  14.289  0.7024  0.4577 -0.2420
19492TIP3    H179967   6.459   5.400  14.237  3.1004 -0.4092 -1.0261
19492TIP3    H279968   6.351   5.324  14.311 -0.0570  1.7527 -3.1007
19493TIP3   OH279969   5.476   0.837  11.939 -0.0699 -0.5838 -0.4858
19493TIP3    H179970   5.537   0.786  11.885 -0.6013 -0.4852 -1.2049
19493TIP3    H279971   5.393   0.789  11.932  0.1697 -1.3264  1.3685
19494TIP3   OH279972   1.743   4.089   3.052 -0.2164  0.5880 -0.3843
19494TIP3    H179973   1.731   4.129   3.138  0.6874 -1.7354  0.9295
19494TIP3    H279974   1.766   4.162   2.994  0.4689  2.0606  1.6265
19495TIP3   OH279975   2.184   2.919  12.469 -0.0338 -0.3061 -0.1665
19495TIP3    H179976   2.239   2.950  12.541 -1.6517  1.3960  0.3849
19495TIP3    H279977   2.247   2.901  12.398  1.2826  1.4303  0.4797
19496TIP3   OH279978   2.482   6.734  14.537 -0.0296  0.0361 -0.0858
19496TIP3    H179979   2.482   6.751  14.443 -0.0890 -1.5798 -0.3985
19496TIP3    H279980   2.566   6.766  14.568  1.0123 -1.5713 -1.1259
19497TIP3   OH279981   3.124   5.877   3.336  0.2802 -0.3468  0.2464
19497TIP3    H179982   3.198   5.863   3.395 -0.5979 -1.2988  1.1690
19497TIP3    H279983   3.116   5.795   3.288  0.0528 -0.1076 -0.1300
19498TIP3   OH279984   0.078   1.925  14.643 -0.0418  0.1917  0.2320
19498TIP3    H179985   0.057   1.982  14.569 -0.0439  0.5726  0.5242
19498TIP3    H279986   0.169   1.900  14.627  0.2379  0.9670  0.5437
19499TIP3   OH279987   5.662   5.321  15.355  0.9642  0.0465  0.1638
19499TIP3    H179988   5.629   5.331  15.444  1.9441 -0.0275  0.5433
19499TIP3    H279989   5.663   5.410  15.319 -1.3481 -0.1200 -0.5107
19500TIP3   OH279990   4.024   2.535   1.826  0.3005  0.0742 -0.4494
19500TIP3    H179991   4.013   2.624   1.860 -1.7722 -0.8509  1.6209
19500TIP3    H279992   3.976   2.535   1.743  0.6814  0.9786 -0.6841
19501TIP3   OH279993   5.810   1.967  16.349 -0.3034 -0.0007 -0.2393
19501TIP3    H179994   5.720   1.974  16.380 -0.1621  1.7212 -0.1339
19501TIP3    H279995   5.826   2.048  16.301  1.3065 -0.0932  0.0696
19502TIP3   OH279996   0.595   1.218   0.887  0.4194  0.4885  0.6936
19502TIP3    H179997   0.520   1.230   0.830  1.5336  1.9947 -0.5521
19502TIP3    H279998   0.671   1.229   0.829  1.6278 -1.3436  1.8264
19503TIP3   OH279999   2.244   2.922   1.616 -0.1917  0.4820  0.4067
19503TIP3    H180000   2.266   2.836   1.580 -0.8466 -0.9339  3.1293
19503TIP3    H280001   2.152   2.935   1.592 -0.3098  0.0740  0.6335
19504TIP3   OH280002   6.539   3.669   5.204 -0.0177 -0.9050  0.2667
19504TIP3    H180003   6.618   3.678   5.151  0.5034  0.0630  1.1460
19504TIP3    H280004   6.468   3.658   5.141  0.6782 -0.5992 -0.5883
19505TIP3   OH280005   1.583   2.420   0.922  0.0621  0.4301 -0.4894
19505TIP3    H180006   1.610   2.362   0.993 -3.0055 -0.9105 -0.2681
19505TIP3    H280007   1.508   2.468   0.958  0.1522  1.7436 -1.9503
19506TIP3   OH280008   5.367   0.075  16.264  0.0175  0.0778  0.1247
19506TIP3    H180009   5.416   0.006  16.218  2.0234  0.5191  1.4839
19506TIP3    H280010   5.431   0.116  16.322 -2.2690 -0.1576  3.0416
19507TIP3   OH280011   4.520   6.577  13.051  0.0646  0.0845  0.0585
19507TIP3    H180012   4.563   6.651  13.009  0.2320  1.1764  2.0172
19507TIP3    H280013   4.437   6.613  13.084 -0.0530 -0.7022  0.6616
19508TIP3   OH280014   5.130   5.146   1.677 -0.3202  0.7631 -0.0260
19508TIP3    H180015   5.121   5.178   1.767 -0.6594  0.6327 -0.0116
19508TIP3    H280016   5.206   5.088   1.680 -1.1681 -0.3723  0.5092
19509TIP3   OH280017   4.432   4.125  10.855  0.7078 -0.1960 -0.6257
19509TIP3    H180018   4.393   4.045  10.889  2.5470  0.0982  2.5545
19509TIP3    H280019   4.363   4.191  10.865 -0.1716 -0.9650 -1.4549
19510TIP3   OH280020   2.930   5.136  13.124  0.5826 -0.0248  0.0200
19510TIP3    H180021   2.882   5.182  13.055 -1.4449 -1.9764  0.0043
19510TIP3    H280022   3.022   5.148  13.102  0.0589  1.7746 -1.4138
19511TIP3   OH280023   2.730   4.894  16.557  0.9906 -0.6245  0.3483
19511TIP3    H180024   2.715   4.946  16.636  1.6144  0.2164 -0.0678
19511TIP3    H280025   2.813   4.850  16.573  1.4694  0.0940 -0.1086
19512TIP3   OH280026   6.855   0.138   5.220 -0.2381 -0.1164 -0.4826
19512TIP3    H180027   6.867   0.171   5.309 -1.2941  0.5423 -0.5617
19512TIP3    H280028   6.845   0.217   5.166 -0.0963 -0.5183 -1.1089
19513TIP3   OH280029   0.580   5.264   5.996 -0.4673 -0.3039  0.2339
19513TIP3    H180030   0.515   5.324   5.959 -1.3331 -0.4896  1.3849
19513TIP3    H280031   0.559   5.262   6.090  1.8793  0.4851  0.8569
19514TIP3   OH280032   0.184   6.257   4.899 -0.0691 -0.5345 -0.0107
19514TIP3    H180033   0.246   6.187   4.876 -0.9807 -1.2261 -0.4300
19514TIP3    H280034   0.128   6.218   4.966 -1.9917 -1.0131 -1.7916
19515TIP3   OH280035   2.024   3.603  11.302 -0.0702 -0.8230 -0.3896
19515TIP3    H180036   2.007   3.562  11.218 -1.3768  1.9502 -1.5817
19515TIP3    H280037   2.115   3.580  11.322  0.3071 -1.4485 -2.5864
19516TIP3   OH280038   2.761   1.758  13.491 -0.3364 -0.0418  0.0917
19516TIP3    H180039   2.809   1.686  13.530  0.3840  0.3786 -0.0166
19516TIP3    H280040   2.774   1.747  13.397  1.2089  1.1935  0.1278
19517TIP3   OH280041   0.050   4.833  15.644  0.4106 -0.0720 -0.1813
19517TIP3    H180042   0.137   4.847  15.680  0.6057  1.5828 -1.2045
19517TIP3    H280043   0.020   4.752  15.685  2.0773 -0.2220  0.8300
19518TIP3   OH280044   6.581   3.210  13.114  0.1723  0.4250 -0.2700
19518TIP3    H180045   6.574   3.243  13.024 -1.8723  1.2865  0.1486
19518TIP3    H280046   6.663   3.248  13.147  0.5979  0.6555 -1.5461
19519TIP3   OH280047   0.238   0.414  13.133 -0.1459  0.3303  0.6852
19519TIP3    H180048   0.326   0.390  13.104 -0.6091 -0.3036 -0.2794
19519TIP3    H280049   0.182   0.344  13.097 -0.9549  0.3526  1.8591
19520TIP3   OH280050   3.406   6.187   5.287 -0.0980  0.0409  0.1296
19520TIP3    H180051   3.470   6.164   5.355  0.5064 -0.0627 -0.4711
19520TIP3    H280052   3.353   6.257   5.327  1.0198  0.8243  0.2879
19521TIP3   OH280053   1.002   6.085   5.050  0.2866 -0.3138  0.0937
19521TIP3    H180054   0.940   6.040   4.994 -0.6220  0.3904  0.5059
19521TIP3    H280055   1.078   6.027   5.054  0.6853 -0.0829 -2.3914
19522TIP3   OH280056   4.379   1.817  16.058  0.5642  0.1190  0.2294
19522TIP3    H180057   4.393   1.906  16.091  2.0614 -0.1360  0.3573
19522TIP3    H280058   4.431   1.814  15.977  0.8546 -0.7539  0.4395
19523TIP3   OH280059   0.762   5.073   3.759  0.1574  0.2408  0.4007
19523TIP3    H180060   0.693   5.099   3.698  0.9030 -0.0497 -0.6176
19523TIP3    H280061   0.745   4.980   3.777  0.7966 -0.0992 -0.6216
19524TIP3   OH280062   3.873   0.274  15.944  0.0489 -0.7995  0.1313
19524TIP3    H180063   3.854   0.311  16.031  0.6736 -0.3312  0.0748
19524TIP3    H280064   3.787   0.250  15.909 -0.0702 -2.8057  1.6470
19525TIP3   OH280065   4.318   4.003   6.207  0.3990 -0.1704  0.5213
19525TIP3    H180066   4.273   4.074   6.160  0.2481  0.0336  0.9749
19525TIP3    H280067   4.248   3.944   6.235  0.4510 -0.0831  0.8393
19526TIP3   OH280068   6.150   4.471   2.055  0.1043 -0.0699 -0.2097
19526TIP3    H180069   6.088   4.504   2.120  0.9066 -0.2043  0.6528
19526TIP3    H280070   6.114   4.388   2.026 -1.2262  0.8631 -1.3626
19527TIP3   OH280071   3.994   5.354   3.320  0.0205  0.1445 -0.1052
19527TIP3    H180072   3.938   5.327   3.247  3.1725 -0.2721 -2.5754
19527TIP3    H280073   4.020   5.272   3.363  0.8083  0.0817 -0.6718
19528TIP3   OH280074   0.799   0.672  11.030 -0.3934  0.2306  0.2878
19528TIP3    H180075   0.881   0.637  10.997 -1.5637 -2.0682 -0.3388
19528TIP3    H280076   0.793   0.759  10.991  1.2246  0.0497 -0.4557
19529TIP3   OH280077   1.578   1.247   1.834  0.6425  0.1108 -0.4818
19529TIP3    H180078   1.598   1.186   1.905 -0.9258  0.3843  0.2279
19529TIP3    H280079   1.603   1.333   1.869  0.2154  0.2013 -0.3952
19530TIP3   OH280080   1.562   0.511  13.817  0.7348  0.1692 -1.0461
19530TIP3    H180081   1.526   0.458  13.888  1.2356  0.1318 -0.8131
19530TIP3    H280082   1.556   0.454  13.740  0.4565  0.1037 -0.9775
19531TIP3   OH280083   0.739   1.353  11.125 -0.5873  0.3221  0.2256
19531TIP3    H180084   0.829   1.321  11.122 -0.3193  1.0967 -0.4320
19531TIP3    H280085   0.736   1.423  11.060 -2.6533 -2.0619 -2.5195
19532TIP3   OH280086   6.021   5.881  13.437 -0.2525  0.1428  0.1875
19532TIP3    H180087   6.105   5.847  13.468 -0.1812 -1.2796 -1.4226
19532TIP3    H280088   6.018   5.971  13.471  1.5892  0.0019  0.8684
19533TIP3   OH280089   6.436   5.310  16.167 -0.2686 -0.1729  0.2186
19533TIP3    H180090   6.428   5.269  16.081  1.3644  1.7569 -0.9317
19533TIP3    H280091   6.458   5.238  16.226 -0.9293 -1.4601 -1.0529
19534TIP3   OH280092   5.703   1.182   3.147  0.0145  0.0612 -0.0284
19534TIP3    H180093   5.659   1.145   3.070  0.2617  1.9811 -1.1453
19534TIP3    H280094   5.741   1.106   3.191 -1.8719 -1.3100 -0.6536
19535TIP3   OH280095   6.455   6.621   5.574  0.2792 -0.0771 -0.8535
19535TIP3    H180096   6.390   6.685   5.544  1.2816  0.7843 -1.2434
19535TIP3    H280097   6.426   6.538   5.536 -1.7765 -0.1573  0.7273
19536TIP3   OH280098   6.063   5.317   1.313 -0.0761 -0.1798 -0.1784
19536TIP3    H180099   5.984   5.273   1.281  0.1286  0.5396 -1.7418
19536TIP3    H280100   6.131   5.250   1.307 -0.1357 -0.1911 -0.8694
19537TIP3   OH280101   3.111   0.313   3.814 -0.5000  0.1434 -0.0067
19537TIP3    H180102   3.097   0.346   3.725 -1.9176 -1.3177 -0.3795
19537TIP3    H280103   3.122   0.219   3.803  1.7598  0.2270  1.1756
19538TIP3   OH280104   2.947   0.516  15.598 -0.0190  0.5805  0.0812
19538TIP3    H180105   2.888   0.441  15.588  1.0284 -0.5146  1.6599
19538TIP3    H280106   2.989   0.525  15.512 -1.2828  0.3634 -0.5791
19539TIP3   OH280107   6.219   5.830  12.603 -0.2065 -0.2068 -0.9596
19539TIP3    H180108   6.189   5.872  12.522  0.2993  0.7904 -0.6516
19539TIP3    H280109   6.298   5.878  12.627 -0.0960 -0.7902 -0.1207
19540TIP3   OH280110   5.000   2.766   2.895  0.0334  0.0847 -0.2582
19540TIP3    H180111   4.976   2.858   2.905 -1.2110  0.1317 -2.7998
19540TIP3    H280112   5.070   2.766   2.830  1.0011 -0.7165  0.7342
19541TIP3   OH280113   1.718   1.918   1.910  0.0163  1.1464 -0.0967
19541TIP3    H180114   1.673   1.837   1.886  0.7445  1.6634 -3.9784
19541TIP3    H280115   1.666   1.988   1.870 -0.0338  2.5851  2.2877
19542TIP3   OH280116   3.791   2.604  11.735 -0.2120  0.3000 -0.5831
19542TIP3    H180117   3.748   2.530  11.777  2.5461 -1.0843  0.0751
19542TIP3    H280118   3.841   2.565  11.663  2.3220  1.2240  0.5438
19543TIP3   OH280119   2.876   0.686   2.386  0.5708 -0.4580  0.4585
19543TIP3    H180120   2.840   0.765   2.346  1.1708 -0.8383 -0.9118
19543TIP3    H280121   2.846   0.615   2.328  0.9790 -1.1041  1.0261
19544TIP3   OH280122   3.937   6.597  13.239  0.3401  0.2165 -0.6040
19544TIP3    H180123   4.016   6.633  13.278 -0.6458  1.4888  0.3096
19544TIP3    H280124   3.952   6.502  13.236  1.7094  0.3991 -0.0737
19545TIP3   OH280125   5.906   4.937   0.397 -0.6410 -0.0455  0.1847
19545TIP3    H180126   5.844   4.982   0.340 -0.8066 -2.4589 -1.6637
19545TIP3    H280127   5.953   5.008   0.441 -2.8560  1.8682 -0.3356
19546TIP3   OH280128   4.975   1.853  15.999  0.2885  0.1092  0.5659
19546TIP3    H180129   5.016   1.768  15.985  0.3435  0.2955 -0.4642
19546TIP3    H280130   4.881   1.835  16.001  0.2908  0.0517  0.1438
19547TIP3   OH280131   6.337   5.060   3.302 -0.2192  0.0563 -0.0916
19547TIP3    H180132   6.257   5.036   3.256 -0.7260 -0.9078  1.2303
19547TIP3    H280133   6.326   5.025   3.390  1.3928  0.4551  0.3108
19548TIP3   OH280134   5.560   4.443   0.445 -0.3092  0.0686  0.2875
19548TIP3    H180135   5.639   4.448   0.499 -0.1430  0.4241  0.0107
19548TIP3    H280136   5.589   4.469   0.357 -0.4617 -0.9934 -0.1037
19549TIP3   OH280137   6.266   6.405   2.134 -0.0045  0.4331 -0.5054
19549TIP3    H180138   6.178   6.385   2.166 -0.1193  0.7901 -0.5934
19549TIP3    H280139   6.301   6.468   2.197  0.6761 -0.6536  0.2407
19550TIP3   OH280140   6.234   5.127  12.419  0.3924 -0.9781 -0.4494
19550TIP3    H180141   6.287   5.201  12.449  0.1019 -1.0379  0.2084
19550TIP3    H280142   6.162   5.168  12.370  0.4736 -0.8521 -0.4658
19551TIP3   OH280143   3.972   5.127   6.233 -0.1398 -0.3771  0.0389
19551TIP3    H180144   3.915   5.188   6.280 -0.0905  0.0359 -0.4283
19551TIP3    H280145   4.056   5.133   6.278  0.4316  1.3666 -1.1680
19552TIP3   OH280146   0.432   2.649  11.244  0.2642 -0.3496  0.3340
19552TIP3    H180147   0.521   2.635  11.211 -0.5373 -3.9394 -0.7659
19552TIP3    H280148   0.406   2.563  11.278 -3.0344  0.3869 -0.0267
19553TIP3   OH280149   5.132   5.512  11.438  0.6849 -0.7442 -0.4020
19553TIP3    H180150   5.144   5.524  11.344  0.1727 -1.4862 -0.5762
19553TIP3    H280151   5.092   5.593  11.469  0.4726 -0.6574 -0.9029
19554TIP3   OH280152   3.018   4.246  13.933  0.6748 -0.0157  0.1989
19554TIP3    H180153   3.071   4.239  14.013  1.5949  0.7427 -0.3338
19554TIP3    H280154   2.990   4.338  13.931 -1.2977 -0.5426  0.8466
19555TIP3   OH280155   1.049   4.481  10.395  0.0345  0.5698  0.3801
19555TIP3    H180156   1.049   4.417  10.325  0.3173  0.5029  0.4400
19555TIP3    H280157   1.027   4.564  10.352  1.1562  0.7107  0.0375
19556TIP3   OH280158   2.907   6.713  13.210 -0.0794 -0.1704 -0.5734
19556TIP3    H180159   2.830   6.656  13.211 -1.1696  1.1193 -3.2093
19556TIP3    H280160   2.896   6.769  13.286  0.4336 -2.5929  1.4272
19557TIP3   OH280161   0.810   5.402   1.593 -0.5586 -0.0958  0.2938
19557TIP3    H180162   0.773   5.336   1.653  1.9193 -0.9933  0.9911
19557TIP3    H280163   0.784   5.486   1.631 -2.5033 -0.6395  0.2605
19558TIP3   OH280164   4.769   3.441  10.503 -0.1088 -0.1650 -0.4762
19558TIP3    H180165   4.761   3.447  10.408 -1.3533 -0.1918 -0.3842
19558TIP3    H280166   4.862   3.456  10.520 -0.4638  5.2737 -1.3512
19559TIP3   OH280167   4.353   5.449  12.697  0.1038 -0.5082  0.0877
19559TIP3    H180168   4.377   5.496  12.617 -1.6578  1.7015  0.7681
19559TIP3    H280169   4.410   5.372  12.697  1.9744  0.7498 -1.9502
19560TIP3   OH280170   4.736   1.122   5.632  0.2131 -0.3042 -0.0316
19560TIP3    H180171   4.696   1.156   5.712 -0.0046  1.3204 -0.7998
19560TIP3    H280172   4.777   1.198   5.591  0.8483 -1.2241 -1.1647
19561TIP3   OH280173   2.705   2.680   2.639 -0.4111  0.0714  0.9529
19561TIP3    H180174   2.775   2.634   2.591 -0.0434  1.8533 -0.3060
19561TIP3    H280175   2.666   2.612   2.694  1.5033 -1.2582  0.7810
19562TIP3   OH280176   5.270   4.052  15.064 -0.3456 -0.5465  0.4866
19562TIP3    H180177   5.285   4.123  15.127 -0.2800 -0.0689 -0.0660
19562TIP3    H280178   5.186   4.072  15.023  0.5104  0.2269 -0.9790
19563TIP3   OH280179   3.619   4.116  14.025  0.2596  0.6469 -0.2478
19563TIP3    H180180   3.700   4.164  14.009  0.2966  0.0984 -1.9407
19563TIP3    H280181   3.595   4.139  14.115  0.2871  3.8227 -0.9083
19564TIP3   OH280182   2.825   2.880   0.703  0.2457  0.1871 -0.2986
19564TIP3    H180183   2.821   2.952   0.641 -0.4765  0.6412  0.2584
19564TIP3    H280184   2.756   2.899   0.767  1.2185 -0.0631  0.8537
19565TIP3   OH280185   4.105   0.598  12.597 -0.2400 -0.1524  0.1628
19565TIP3    H180186   4.111   0.505  12.577 -1.2746 -0.1218 -0.3390
19565TIP3    H280187   4.168   0.639  12.537 -0.2833 -0.4642 -0.1001
19566TIP3   OH280188   4.784   6.091   1.141 -0.0395  0.3318  0.2603
19566TIP3    H180189   4.784   6.055   1.052  1.5927 -0.2186  0.4411
19566TIP3    H280190   4.734   6.027   1.192  1.0274 -0.6212  0.1660
19567TIP3   OH280191   6.434   4.973   0.735  0.3495  0.4193  0.3188
19567TIP3    H180192   6.363   4.923   0.694  1.6064 -0.7434 -0.5282
19567TIP3    H280193   6.407   5.065   0.725 -0.2286  0.0946 -1.5788
19568TIP3   OH280194   1.098   2.102   5.861  0.5708 -0.8309  0.4772
19568TIP3    H180195   1.141   2.169   5.914 -0.8965  1.1108 -0.6587
19568TIP3    H280196   1.031   2.150   5.812 -1.3908 -3.3165  0.5110
19569TIP3   OH280197   1.320   6.779   2.100 -0.0358  0.0570  0.3115
19569TIP3    H180198   1.302   6.799   2.008  0.8083  0.1323  0.1468
19569TIP3    H280199   1.382   6.847   2.127 -0.6997  0.3595  1.1035
19570TIP3   OH280200   3.414   1.245   5.482 -0.2016  0.1687  0.3587
19570TIP3    H180201   3.448   1.238   5.392 -0.3492 -0.0727  0.3203
19570TIP3    H280202   3.491   1.262   5.535 -0.0118 -0.3939  0.2745
19571TIP3   OH280203   0.618   6.597  13.782 -0.1050  0.2042 -0.2973
19571TIP3    H180204   0.604   6.505  13.762 -0.9403  0.1759  0.3637
19571TIP3    H280205   0.538   6.624  13.828 -0.3500  1.5345 -1.4426
19572TIP3   OH280206   4.073   2.052  13.472  0.2350  0.3475  0.0423
19572TIP3    H180207   4.105   2.069  13.560  2.0155 -0.2507 -0.4559
19572TIP3    H280208   4.051   1.959  13.471  3.4874 -0.5258 -1.0347
19573TIP3   OH280209   4.240   4.643   0.138  0.0152  0.3529 -0.1729
19573TIP3    H180210   4.214   4.701   0.067  0.9212  0.5671 -0.3386
19573TIP3    H280211   4.157   4.616   0.179 -0.4441  1.2119 -0.5219
19574TIP3   OH280212   0.642   3.553   5.266 -0.1127 -0.4396  0.3248
19574TIP3    H180213   0.656   3.646   5.250  0.4689 -0.6852 -0.6596
19574TIP3    H280214   0.556   3.534   5.229  0.9066 -0.8448 -2.0182
19575TIP3   OH280215   0.509   1.665   2.568 -0.0441  0.2611 -0.2251
19575TIP3    H180216   0.459   1.703   2.641 -2.4643  0.4575 -1.8509
19575TIP3    H280217   0.598   1.658   2.601 -0.7356  1.7081  2.2340
19576TIP3   OH280218   4.736   1.343  12.389 -0.1540 -0.4464  0.0147
19576TIP3    H180219   4.720   1.327  12.296 -0.6403  1.7416 -0.3339
19576TIP3    H280220   4.831   1.355  12.395 -0.2259  0.4713 -0.4234
19577TIP3   OH280221   3.994   5.155   4.235  0.2470 -0.3485  0.1975
19577TIP3    H180222   4.017   5.063   4.242  0.8861 -0.0804  2.6232
19577TIP3    H280223   3.939   5.172   4.312  0.4799  1.3723  0.0306
19578TIP3   OH280224   3.384   0.823   3.172 -0.0211 -0.1412  0.0174
19578TIP3    H180225   3.339   0.901   3.139  0.6278  0.6585  0.9632
19578TIP3    H280226   3.333   0.795   3.247  0.7076  0.4258  0.7411
19579TIP3   OH280227   4.240   3.135  12.100 -0.3122 -0.4878  0.0449
19579TIP3    H180228   4.277   3.047  12.097 -0.6971 -0.6458 -0.2295
19579TIP3    H280229   4.289   3.185  12.034 -0.4609 -0.6431 -0.1829
19580TIP3   OH280230   2.323   4.043   2.797  0.0611 -0.7889  0.1678
19580TIP3    H180231   2.243   4.040   2.743  0.0453 -0.4147  0.1645
19580TIP3    H280232   2.293   4.077   2.881 -0.0031 -1.8455  0.5857
19581TIP3   OH280233   6.415   1.147  13.541 -0.3560  0.4035 -0.1281
19581TIP3    H180234   6.510   1.146  13.528 -0.5153 -1.5685 -1.4856
19581TIP3    H280235   6.404   1.145  13.636  0.9603  0.1569  0.0376
19582TIP3   OH280236   5.205   5.548  15.774 -0.3775 -0.8673 -0.0492
19582TIP3    H180237   5.187   5.589  15.858  0.4274 -1.5926  0.4956
19582TIP3    H280238   5.121   5.550  15.728 -0.8480 -0.5361  0.8048
19583TIP3   OH280239   5.120   4.642   0.933  0.9162  0.0220 -0.3510
19583TIP3    H180240   5.048   4.690   0.974  0.6605  2.1028 -2.9912
19583TIP3    H280241   5.078   4.577   0.878  1.0867  0.3741 -0.9017
19584TIP3   OH280242   3.465   3.883  11.892  0.1316  0.1696  0.3544
19584TIP3    H180243   3.373   3.869  11.867  0.2894 -1.0641  0.3777
19584TIP3    H280244   3.506   3.916  11.812 -0.1661 -0.0556  0.1040
19585TIP3   OH280245   2.511   4.690   1.098 -0.1214  0.3405  0.2828
19585TIP3    H180246   2.488   4.640   1.020 -0.7179  0.3678  0.4358
19585TIP3    H280247   2.428   4.702   1.144  0.3389 -0.4063  1.3577
19586TIP3   OH280248   1.298   1.440   1.181 -0.6133 -0.1487  0.2611
19586TIP3    H180249   1.370   1.389   1.218 -1.3467 -0.2502  1.5946
19586TIP3    H280250   1.335   1.482   1.104  0.5426 -1.1444  0.2538
19587TIP3   OH280251   2.526   4.211   0.844  0.1022 -0.2636 -0.1951
19587TIP3    H180252   2.496   4.245   0.760  0.7106  1.0204  0.0786
19587TIP3    H280253   2.458   4.236   0.906  1.1514  1.6942  0.2370
19588TIP3   OH280254   5.745   2.277   3.958 -0.5864 -0.0497  0.0140
19588TIP3    H180255   5.802   2.310   4.028 -1.1698 -1.7946  1.3886
19588TIP3    H280256   5.657   2.304   3.985 -0.9802 -1.9282  0.7398
19589TIP3   OH280257   4.701   0.479   3.543  0.6910 -0.4813  0.4917
19589TIP3    H180258   4.733   0.561   3.505 -0.1745  0.0556  0.8993
19589TIP3    H280259   4.615   0.500   3.577 -0.7606 -2.2086 -1.8261
19590TIP3   OH280260   1.705   0.374  16.596 -0.9390  0.4535  0.5300
19590TIP3    H180261   1.727   0.316  16.524 -2.3928 -0.8303  1.0581
19590TIP3    H280262   1.758   0.452  16.581  1.5482 -1.1873  0.1048
19591TIP3   OH280263   6.685   0.404  15.724  0.8005 -0.1495 -0.0346
19591TIP3    H180264   6.750   0.344  15.760  1.9452  0.9692 -0.2022
19591TIP3    H280265   6.735   0.471  15.679 -0.4599  0.8314 -0.0403
19592TIP3   OH280266   2.918   3.883  10.747 -0.4823 -0.1537  0.2156
19592TIP3    H180267   2.962   3.870  10.831 -0.1338  0.2330  0.0963
19592TIP3    H280268   2.926   3.977  10.730 -1.6719 -0.0116  0.3669
19593TIP3   OH280269   3.273   3.373  17.034 -0.2872  0.7332  0.3105
19593TIP3    H180270   3.321   3.424  17.099 -0.7461  0.4748  0.8645
19593TIP3    H280271   3.308   3.401  16.950 -0.1086  1.5190  0.6398
19594TIP3   OH280272   1.186   5.971   5.933 -0.7776  0.1343  0.5020
19594TIP3    H180273   1.255   6.016   5.982  0.5242 -0.1782 -0.9287
19594TIP3    H280274   1.173   6.025   5.855  0.5959 -1.6826 -1.0926
19595TIP3   OH280275   6.310   2.208   4.565  0.2525 -0.3876 -0.1587
19595TIP3    H180276   6.366   2.194   4.489  1.2564  2.5129 -0.1098
19595TIP3    H280277   6.244   2.270   4.535 -0.4680 -0.6320  0.8690
19596TIP3   OH280278   1.123   4.314   2.852  0.1835 -0.1396 -0.2326
19596TIP3    H180279   1.053   4.340   2.912 -0.6995 -1.5907 -0.5744
19596TIP3    H280280   1.199   4.302   2.908  0.0734  1.0664  0.2086
19597TIP3   OH280281   2.021   3.096   5.829  0.1034 -0.3942  0.0414
19597TIP3    H180282   2.039   3.095   5.734 -0.0406  2.3111 -0.0905
19597TIP3    H280283   2.108   3.105   5.869  0.0992 -0.8513  0.1696
19598TIP3   OH280284   4.609   1.838  13.062  0.0860  0.2957 -0.3382
19598TIP3    H180285   4.641   1.784  12.990  1.9520  1.7747 -0.7083
19598TIP3    H280286   4.689   1.874  13.101 -1.0708  2.8850 -0.2074
19599TIP3   OH280287   5.066   6.736  13.625  0.0718  0.7921  0.0684
19599TIP3    H180288   5.025   6.650  13.635 -1.8381  1.7297  0.7448
19599TIP3    H280289   5.062   6.775  13.712  3.0081  0.7364  0.3258
19600TIP3   OH280290   3.534   1.095  15.399 -0.2659 -0.0861  0.3501
19600TIP3    H180291   3.489   1.036  15.339 -1.1105 -0.6964  1.5610
19600TIP3    H280292   3.575   1.160  15.341 -0.2187 -1.2127 -0.9365
19601TIP3   OH280293   2.511   4.751   4.641  0.2246  0.6404 -0.7889
19601TIP3    H180294   2.599   4.716   4.629  0.0054 -0.2115 -0.1141
19601TIP3    H280295   2.455   4.692   4.590 -0.0587  0.5105 -0.3413
19602TIP3   OH280296   0.798   3.091  14.257 -0.5605  0.0436  0.2576
19602TIP3    H180297   0.795   3.110  14.163  0.4625 -0.8781  0.0211
19602TIP3    H280298   0.891   3.073  14.275 -1.1791 -3.0501  0.7841
19603TIP3   OH280299   6.556   2.023   3.777 -0.0090  0.4304  0.6339
19603TIP3    H180300   6.484   1.961   3.785  0.1118 -0.1213 -1.8697
19603TIP3    H280301   6.634   1.973   3.802 -0.0285 -0.1876 -0.4838
19604TIP3   OH280302   1.453   2.408  12.582  0.4322  0.1328  0.2489
19604TIP3    H180303   1.488   2.389  12.495  0.4445  0.0230  0.2777
19604TIP3    H280304   1.463   2.503  12.592  2.0208 -0.0713  0.8126
19605TIP3   OH280305   1.383   5.692   3.355 -0.4123  0.6560  0.0017
19605TIP3    H180306   1.298   5.731   3.376 -0.5866  1.6916 -2.2871
19605TIP3    H280307   1.442   5.767   3.348  0.7792 -0.0631  1.7119
19606TIP3   OH280308   6.075   4.527  12.975 -0.2610  0.4266 -0.5480
19606TIP3    H180309   5.983   4.554  12.976 -0.4673 -0.2011  1.1042
19606TIP3    H280310   6.078   4.450  13.033  1.0774 -0.3735 -1.6141
19607TIP3   OH280311   5.358   1.277  11.418 -0.4675 -0.1074 -0.0154
19607TIP3    H180312   5.327   1.195  11.378  1.1385 -0.9658  0.4000
19607TIP3    H280313   5.358   1.340  11.346 -1.1116 -0.6398 -0.4937
19608TIP3   OH280314   4.082   1.687   5.456 -0.2511 -0.1487 -0.4987
19608TIP3    H180315   4.139   1.665   5.530 -3.4817 -1.8133  1.7283
19608TIP3    H280316   4.062   1.780   5.469 -2.0033 -0.7487  1.8063
19609TIP3   OH280317   2.579   0.087  14.926 -0.4514 -0.4806  0.6531
19609TIP3    H180318   2.642   0.115  14.860 -0.9901  1.0958  0.7776
19609TIP3    H280319   2.590  -0.008  14.931  1.7373 -0.2789  0.4983
19610TIP3   OH280320   3.542   6.379   5.607 -0.3993  0.2687 -0.4710
19610TIP3    H180321   3.509   6.338   5.688 -0.9538  0.0852 -0.7819
19610TIP3    H280322   3.566   6.305   5.552  1.2027  0.4086  0.0095
19611TIP3   OH280323   0.514   1.423  10.084 -0.1150 -0.2799  0.5727
19611TIP3    H180324   0.419   1.436  10.088  0.0594  0.9574  1.3521
19611TIP3    H280325   0.527   1.331  10.103 -1.2299 -0.7741 -0.8419
19612TIP3   OH280326   4.665   2.783   3.356 -0.2710 -0.5190  0.0042
19612TIP3    H180327   4.620   2.819   3.280 -0.3635 -1.0657 -0.2053
19612TIP3    H280328   4.754   2.767   3.326 -0.2948 -0.6912  0.0191
19613TIP3   OH280329   4.379   0.377   0.257 -0.2256  0.4124 -0.4895
19613TIP3    H180330   4.455   0.402   0.309 -0.1956 -1.4672  0.4557
19613TIP3    H280331   4.304   0.400   0.312 -0.2359 -0.2638 -0.2097
19614TIP3   OH280332   4.114   3.357  13.598 -0.4416 -0.2609  0.0966
19614TIP3    H180333   4.181   3.423  13.583 -0.8654  0.6200  1.8396
19614TIP3    H280334   4.054   3.397  13.662 -2.5585 -1.0574 -1.2616
19615TIP3   OH280335   2.573   2.480  14.997  0.4037  0.3718  0.0349
19615TIP3    H180336   2.635   2.444  14.934  1.7308  0.3848  1.2822
19615TIP3    H280337   2.532   2.404  15.037 -0.2753  0.3601 -0.6642
19616TIP3   OH280338   1.984   2.799   2.953  0.2400  0.0503 -0.6846
19616TIP3    H180339   2.000   2.781   3.045 -1.6235 -0.3622 -0.3989
19616TIP3    H280340   1.996   2.715   2.909  1.3247  0.2895 -0.8582
19617TIP3   OH280341   5.819   0.018   3.571  0.5996  0.2789  0.0220
19617TIP3    H180342   5.759   0.071   3.624 -0.9498 -1.6039  0.2597
19617TIP3    H280343   5.849  -0.051   3.631 -1.2022 -1.9017 -1.4487
19618TIP3   OH280344   2.653   1.631   2.453 -0.4939  0.0566 -0.4200
19618TIP3    H180345   2.652   1.708   2.396 -1.2726 -0.3276 -0.9306
19618TIP3    H280346   2.579   1.643   2.512 -1.0925 -0.6704 -1.0077
19619TIP3   OH280347   5.833   5.362  11.664  0.3845  0.4253 -0.0766
19619TIP3    H180348   5.843   5.285  11.608  0.3016  0.1043  0.3362
19619TIP3    H280349   5.825   5.325  11.752 -1.1510  0.8126 -0.0157
19620TIP3   OH280350   6.637   2.442  16.963  0.3455 -0.0033 -0.0214
19620TIP3    H180351   6.705   2.404  16.907  1.3322  1.2292  0.3002
19620TIP3    H280352   6.559   2.444  16.907  0.6024 -1.2617 -0.4593
19621TIP3   OH280353   6.807   4.773   5.514  0.0977 -0.4517  0.0258
19621TIP3    H180354   6.841   4.862   5.520 -3.5592  1.0536  2.0245
19621TIP3    H280355   6.824   4.735   5.601  0.5485 -1.2732 -0.4098
19622TIP3   OH280356   1.915   5.042   3.481  0.3413 -0.7460  0.4090
19622TIP3    H180357   1.829   5.052   3.440  0.7367 -0.7662 -0.4654
19622TIP3    H280358   1.899   4.987   3.557 -0.4478 -0.5978  0.3629
19623TIP3   OH280359   4.043   1.215  14.035  0.1602 -0.5077 -0.0948
19623TIP3    H180360   4.081   1.134  14.070  0.0213 -1.3026 -1.6650
19623TIP3    H280361   4.118   1.268  14.009  0.2398 -0.7785 -0.4216
19624TIP3   OH280362   4.753   4.604   2.684 -0.0985 -0.2603 -0.0474
19624TIP3    H180363   4.662   4.589   2.710 -0.6560  1.2553 -0.9958
19624TIP3    H280364   4.773   4.533   2.623 -1.8802  1.2747 -2.6134
19625TIP3   OH280365   4.784   4.442  13.289 -0.1406 -0.0027  0.1629
19625TIP3    H180366   4.782   4.534  13.262  0.2527  0.0175  0.1895
19625TIP3    H280367   4.695   4.423  13.318 -0.7078 -0.1636 -1.5996
19626TIP3   OH280368   3.901   6.255   3.240 -0.0765 -0.2294 -0.3454
19626TIP3    H180369   3.820   6.204   3.234  0.8957 -2.4141  2.8783
19626TIP3    H280370   3.957   6.220   3.170 -0.2531 -2.0782  0.3882
19627TIP3   OH280371   2.998   5.507  14.231 -0.2086 -0.0519  0.1416
19627TIP3    H180372   3.014   5.439  14.166  2.0857  0.3389  0.2375
19627TIP3    H280373   3.080   5.556  14.236 -1.2504  1.6972  1.2883
19628TIP3   OH280374   1.877   3.775  10.971 -0.8209  0.2233  0.1223
19628TIP3    H180375   1.845   3.855  10.928 -1.5903  0.2838  0.7719
19628TIP3    H280376   1.873   3.708  10.903 -1.2585  0.4907 -0.1267
19629TIP3   OH280377   6.834   1.518   1.475  0.7588 -0.5209  0.0702
19629TIP3    H180378   6.844   1.428   1.444  2.8296 -0.2546 -0.2127
19629TIP3    H280379   6.908   1.532   1.533 -1.0673  0.1728  2.3801
19630TIP3   OH280380   4.010   0.366  10.752  0.2761 -0.0774  0.7316
19630TIP3    H180381   3.990   0.274  10.772  0.2208  0.1253  1.6453
19630TIP3    H280382   4.105   0.367  10.738  0.0395 -0.5850 -1.0823
19631TIP3   OH280383   1.938   0.639   3.072 -0.0734 -0.1844 -0.1235
19631TIP3    H180384   2.018   0.686   3.051  0.0132 -1.0800 -1.9977
19631TIP3    H280385   1.955   0.600   3.158  1.2357  0.2048 -0.1876
19632TIP3   OH280386   6.486   5.854   4.490 -0.2022  0.0039 -0.1806
19632TIP3    H180387   6.542   5.776   4.498 -1.6504 -1.2064 -1.1496
19632TIP3    H280388   6.546   5.925   4.468  0.9204 -1.3312 -1.6312
19633TIP3   OH280389   1.316   1.336   0.101  0.1394  0.1619  0.6056
19633TIP3    H180390   1.287   1.263   0.047  0.9828 -1.0966  1.8034
19633TIP3    H280391   1.363   1.394   0.040  0.9397 -1.1369 -0.0545
19634TIP3   OH280392   3.277   0.885  12.338  0.1343  0.4600  0.4690
19634TIP3    H180393   3.320   0.799  12.338  0.9820  0.8752  0.0555
19634TIP3    H280394   3.211   0.878  12.407  0.5620 -0.3481  0.8190
19635TIP3   OH280395   2.678   1.316  15.117  0.1908  0.2000  0.5751
19635TIP3    H180396   2.588   1.348  15.114  0.0192 -0.2541  0.6544
19635TIP3    H280397   2.691   1.274  15.032  1.0186  2.0151 -0.2505
19636TIP3   OH280398   3.266   6.662  15.105  0.1132 -0.3466 -0.0236
19636TIP3    H180399   3.189   6.648  15.159 -0.6658  2.4306 -0.2800
19636TIP3    H280400   3.239   6.638  15.016  0.1550 -1.1451  0.1746
19637TIP3   OH280401   5.190   2.565  13.538  0.4649 -0.3840 -0.2226
19637TIP3    H180402   5.130   2.512  13.591  0.6275  0.5070  0.8965
19637TIP3    H280403   5.139   2.643  13.516  0.6856 -0.3638 -0.6603
19638TIP3   OH280404   6.079   1.174   6.328  0.8373 -0.0407  0.1642
19638TIP3    H180405   6.141   1.102   6.324 -0.8635 -1.5346 -0.5685
19638TIP3    H280406   6.038   1.165   6.414 -0.3830 -0.8762 -0.4740
19639TIP3   OH280407   3.002   0.108  15.170 -0.0475  0.3519  0.0007
19639TIP3    H180408   2.950   0.029  15.152  0.3480  0.0587  0.1170
19639TIP3    H280409   2.975   0.134  15.258  0.6393 -0.3187  0.4209
19640TIP3   OH280410   5.163   3.665  16.983 -0.1014 -0.0066 -0.2921
19640TIP3    H180411   5.146   3.717  16.904 -0.6964  0.4368  0.1109
19640TIP3    H280412   5.257   3.648  16.981 -0.2305 -0.6936 -1.5066
19641TIP3   OH280413   5.589   4.422  15.852  0.3316 -0.7448 -0.9041
19641TIP3    H180414   5.648   4.376  15.912  0.0423 -1.4285 -1.1230
19641TIP3    H280415   5.527   4.354  15.824 -1.2606  0.2072  0.1710
19642TIP3   OH280416   0.978   5.871  16.885 -0.4271  0.3685 -0.0420
19642TIP3    H180417   0.977   5.819  16.966  0.6587  0.7984  0.2621
19642TIP3    H280418   0.906   5.836  16.834 -0.2894 -0.8282  0.5459
19643TIP3   OH280419   1.593   6.542   2.416  0.0078 -0.7290 -0.2401
19643TIP3    H180420   1.566   6.557   2.326  1.6576 -0.5018 -0.7292
19643TIP3    H280421   1.628   6.626   2.445 -0.3009 -0.8594  0.5418
19644TIP3   OH280422   5.264   4.945  16.831  0.3033 -0.2473 -0.2575
19644TIP3    H180423   5.333   4.929  16.766 -1.2633  0.5375 -2.2010
19644TIP3    H280424   5.256   5.040  16.834 -0.9519 -0.3365 -0.3765
19645TIP3   OH280425   0.046   1.354  15.561  0.5344  0.2194 -0.0618
19645TIP3    H180426   0.004   1.268  15.567  1.3295 -0.1469  0.3977
19645TIP3    H280427  -0.012   1.405  15.504 -0.0215 -0.5699 -0.2217
19646TIP3   OH280428   1.833   4.028   0.940 -0.2819  0.1264 -0.7515
19646TIP3    H180429   1.827   4.084   0.862  0.6536  0.0783 -0.8759
19646TIP3    H280430   1.898   3.962   0.916  2.2639  1.7885  1.0267
19647TIP3   OH280431   1.287   2.764   5.251  0.0244  0.3352  0.2828
19647TIP3    H180432   1.263   2.855   5.270 -0.9488  0.2080 -0.2726
19647TIP3    H280433   1.225   2.711   5.302 -1.1231  0.0006 -1.3604
19648TIP3   OH280434   2.285   4.781   0.809  0.6788  0.4427 -0.2660
19648TIP3    H180435   2.339   4.703   0.795 -0.5451 -0.4542 -0.1327
19648TIP3    H280436   2.205   4.748   0.850 -0.4792  1.5508 -1.5295
19649TIP3   OH280437   2.269   2.779  13.804 -0.1508 -0.3669 -0.1546
19649TIP3    H180438   2.307   2.854  13.849 -0.3929 -1.0700  1.2748
19649TIP3    H280439   2.175   2.795  13.804 -0.0910  0.0960 -1.3222
19650TIP3   OH280440   2.179   1.211  15.171  0.1170  0.0049  0.2692
19650TIP3    H180441   2.241   1.137  15.175 -1.3678 -1.2614  0.7662
19650TIP3    H280442   2.140   1.214  15.258 -0.0045  1.2676  0.1803
19651TIP3   OH280443   6.833   0.833  13.404 -0.0156  0.2228 -0.0469
19651TIP3    H180444   6.865   0.847  13.493 -0.8134 -1.5646  0.5693
19651TIP3    H280445   6.894   0.882  13.348  0.7363  1.0328  1.4492
19652TIP3   OH280446   4.913   2.713   4.540  0.0898 -0.1404 -0.1083
19652TIP3    H180447   4.897   2.662   4.460  0.0367 -0.2168 -0.0495
19652TIP3    H280448   4.827   2.744   4.567  0.2162  0.6358 -0.5740
19653TIP3   OH280449   1.338   0.390  10.995 -0.0864  0.2924  0.2475
19653TIP3    H180450   1.269   0.326  11.009 -1.2253  1.4609  0.1292
19653TIP3    H280451   1.320   0.426  10.908  1.0988  0.1140 -0.0876
19654TIP3   OH280452   1.717   1.420  14.013 -0.8599  0.2005  0.5678
19654TIP3    H180453   1.682   1.487  14.072 -1.5334 -0.5135  0.9944
19654TIP3    H280454   1.649   1.410  13.946 -0.7914 -0.1029  0.5420
19655TIP3   OH280455   3.268   4.852   1.833  0.4346  0.0493 -0.2448
19655TIP3    H180456   3.273   4.932   1.884  0.7368  0.5244 -1.0100
19655TIP3    H280457   3.293   4.877   1.744 -0.6000 -0.6507 -0.7647
19656TIP3   OH280458   0.269   4.683  11.778 -0.0449 -0.1252 -0.0125
19656TIP3    H180459   0.296   4.726  11.859  1.6316  1.1563 -1.1869
19656TIP3    H280460   0.342   4.626  11.755 -0.7157 -0.8619 -0.3883
19657TIP3   OH280461   5.573   2.991   8.716 -0.1902 -0.2990  0.2490
19657TIP3    H180462   5.536   3.072   8.750  0.3984  0.3015 -0.5009
19657TIP3    H280463   5.667   3.008   8.708 -0.2769 -0.4308 -1.5304
19658TIP3   OH280464   2.928   1.760   3.282 -0.2501  0.7630  0.7216
19658TIP3    H180465   2.993   1.700   3.247 -0.3704  1.0807 -0.0758
19658TIP3    H280466   2.979   1.836   3.311 -0.2675  1.0546  0.0040
19659TIP3   OH280467   4.889   0.119  14.619  0.1738  0.0943 -0.6298
19659TIP3    H180468   4.969   0.072  14.597  1.2941  1.2375  0.7461
19659TIP3    H280469   4.916   0.211  14.625 -1.0072  0.3920  0.8163
19660TIP3   OH280470   0.140   0.837  13.965 -0.2516  0.4424 -0.1349
19660TIP3    H180471   0.135   0.804  13.876  1.2679  1.7206 -0.7443
19660TIP3    H280472   0.175   0.926  13.956  1.6482 -0.0066  1.8009
19661TIP3   OH280473   4.178   6.666   6.844 -1.0106  0.2488  0.0355
19661TIP3    H180474   4.086   6.685   6.864 -0.8084  1.0204  0.2859
19661TIP3    H280475   4.202   6.730   6.777 -1.1625 -1.1566 -1.4204
19662TIP3   OH280476   3.017   5.034  14.127 -0.1244  0.1906  0.3791
19662TIP3    H180477   3.101   5.075  14.145 -1.7363  3.0775  1.9244
19662TIP3    H280478   2.988   5.000  14.211 -1.3198  0.9097  0.2789
19663TIP3   OH280479   1.077   6.335  15.973  0.1707  0.9944 -0.3689
19663TIP3    H180480   0.990   6.351  15.936 -0.3990 -0.0799  0.4573
19663TIP3    H280481   1.074   6.245  16.005  1.2421  1.2844  0.6396
19664TIP3   OH280482   5.109   2.004  11.258  0.0229  0.1509 -0.5317
19664TIP3    H180483   5.145   2.063  11.192 -0.1376  0.1460 -0.6243
19664TIP3    H280484   5.082   1.927  11.208  0.9460 -0.3260 -0.3126
19665TIP3   OH280485   4.662   6.525  16.187 -0.5553 -0.1522 -0.8601
19665TIP3    H180486   4.625   6.446  16.147  0.0355 -0.4175 -0.8838
19665TIP3    H280487   4.619   6.531  16.272 -0.8926 -0.2756 -1.0166
19666TIP3   OH280488   1.201   0.077   1.597 -0.2889  0.0198 -0.1160
19666TIP3    H180489   1.143   0.141   1.638  0.1477 -0.3998  1.1783
19666TIP3    H280490   1.170  -0.008   1.629 -0.1969 -0.3550 -0.9843
19667TIP3   OH280491   3.262   0.075  11.994 -0.0462 -0.2346 -0.2595
19667TIP3    H180492   3.282   0.164  11.963  0.9180 -0.7903 -1.3027
19667TIP3    H280493   3.166   0.071  11.995 -0.1032  0.4803 -1.2545
19668TIP3   OH280494   0.777   5.485   1.868 -0.3042  0.0234  0.4725
19668TIP3    H180495   0.783   5.501   1.963  1.3003  0.4927  0.3242
19668TIP3    H280496   0.686   5.505   1.846 -0.4492  0.8967  1.7504
19669TIP3   OH280497   5.669   1.651   5.227  0.6367  0.3594 -0.3288
19669TIP3    H180498   5.601   1.719   5.230 -0.0159 -0.2616 -0.8112
19669TIP3    H280499   5.662   1.607   5.311  0.5105  0.3625 -0.3372
19670TIP3   OH280500   5.545   5.482   0.589  0.3113  0.3608  0.3906
19670TIP3    H180501   5.527   5.572   0.617  0.6281  0.2330  1.0219
19670TIP3    H280502   5.561   5.489   0.495  0.3070  0.9577  0.4307
19671TIP3   OH280503   2.628   0.749  13.872  0.3285 -0.0101  0.7765
19671TIP3    H180504   2.630   0.675  13.811  0.5559 -0.2958  1.1202
19671TIP3    H280505   2.713   0.791  13.860  0.5005 -0.2564  1.1220
19672TIP3   OH280506   3.433   0.399   2.238 -0.3748  0.3940 -0.0119
19672TIP3    H180507   3.505   0.448   2.200 -0.8675  1.2885  0.1796
19672TIP3    H280508   3.358   0.417   2.181 -0.4637 -0.5190 -0.2075
19673TIP3   OH280509   0.216   6.818   0.183  0.6242 -0.3608 -0.1642
19673TIP3    H180510   0.250   6.788   0.268 -0.9063 -1.1634  0.2101
19673TIP3    H280511   0.211   6.738   0.130 -1.1305 -0.4054 -0.0095
19674TIP3   OH280512   3.172   3.420   0.759  0.4136  0.5994  0.1211
19674TIP3    H180513   3.217   3.472   0.691  1.2240  2.3942  1.9243
19674TIP3    H280514   3.243   3.377   0.806 -0.1263 -0.3817  0.0488
19675TIP3   OH280515   2.579   5.693   2.668  0.5716  0.2667 -0.1794
19675TIP3    H180516   2.649   5.634   2.695  1.3487  0.8159 -0.9700
19675TIP3    H280517   2.528   5.708   2.749  0.9735 -0.6352  0.2546
19676TIP3   OH280518   0.355   2.416   2.695  0.0417 -0.1736  0.0788
19676TIP3    H180519   0.410   2.383   2.766 -1.4778 -1.4188  0.7086
19676TIP3    H280520   0.384   2.507   2.683  0.3713  0.0494  2.2522
19677TIP3   OH280521   5.304   6.699  11.751 -0.6231 -0.4183  0.0461
19677TIP3    H180522   5.337   6.678  11.839 -0.8276 -2.1693 -0.2631
19677TIP3    H280523   5.223   6.747  11.766 -1.6324 -2.2768  0.8701
19678TIP3   OH280524   1.261   0.441   0.358  0.1962  0.4978  0.3275
19678TIP3    H180525   1.243   0.356   0.319  0.9051  1.1546 -1.5250
19678TIP3    H280526   1.356   0.451   0.350  0.2860  0.9211  1.7262
19679TIP3   OH280527   5.106   3.405  14.433  0.4887 -0.2519  0.5511
19679TIP3    H180528   5.091   3.497  14.414  2.0361 -0.2315 -0.7495
19679TIP3    H280529   5.101   3.399  14.529  1.1272  1.3068  0.7027
19680TIP3   OH280530   1.511   4.254   5.550 -0.2076  0.1758 -0.0559
19680TIP3    H180531   1.420   4.243   5.523  0.2248 -0.7448 -1.2281
19680TIP3    H280532   1.536   4.167   5.583  0.7291 -0.0742 -1.3429
19681TIP3   OH280533   3.914   5.613   0.015 -0.1577  0.1175  0.1540
19681TIP3    H180534   3.973   5.538   0.004 -0.7126 -0.3907  0.5319
19681TIP3    H280535   3.837   5.590  -0.036  0.0823  0.9154 -0.5827
19682TIP3   OH280536   6.098   0.059   1.832  0.9194 -0.7113 -0.4646
19682TIP3    H180537   6.064   0.048   1.744  0.1773  1.0659 -0.4336
19682TIP3    H280538   6.086  -0.027   1.873  0.4770 -1.3175 -1.8072
19683TIP3   OH280539   1.003   4.111   1.529  0.9910  0.6495  0.0363
19683TIP3    H180540   1.039   4.025   1.549  1.0320  0.2626 -1.5620
19683TIP3    H280541   1.034   4.130   1.440  1.0729  2.3641  0.4041
19684TIP3   OH280542   3.850   1.075  12.490 -0.2398  0.1329  0.0661
19684TIP3    H180543   3.793   1.151  12.480 -0.6748 -0.3860 -1.7347
19684TIP3    H280544   3.792   0.999  12.482  0.6093 -0.4032 -1.5293
19685TIP3   OH280545   4.382   6.517  10.291  0.5011 -0.3068  0.1143
19685TIP3    H180546   4.456   6.553  10.340 -1.1196  3.1120  0.3143
19685TIP3    H280547   4.310   6.514  10.355 -0.1124 -1.5036 -0.5993
19686TIP3   OH280548   1.761   4.909  13.840  0.1544 -0.7475 -0.1947
19686TIP3    H180549   1.807   4.993  13.842  2.0310 -1.7219 -0.5499
19686TIP3    H280550   1.812   4.852  13.897 -1.2191 -1.6182  0.2147
19687TIP3   OH280551   2.887   5.036  14.879  0.3624 -0.4729 -0.1361
19687TIP3    H180552   2.874   5.124  14.916  3.4424 -0.2669  0.7436
19687TIP3    H280553   2.832   5.035  14.801  0.1577  2.2227 -0.1334
19688TIP3   OH280554   6.567   3.324   6.407  0.0135  0.1527  0.5196
19688TIP3    H180555   6.623   3.297   6.480  0.4715  0.8304  0.4233
19688TIP3    H280556   6.502   3.381   6.447  1.3021  1.9470  0.1588
19689TIP3   OH280557   6.242   2.257   5.821 -0.3900 -0.1363 -0.6133
19689TIP3    H180558   6.250   2.261   5.725 -0.2091  0.1513 -0.5846
19689TIP3    H280559   6.319   2.209   5.850 -1.3663 -1.8873 -0.7571
19690TIP3   OH280560   3.492   5.825   2.191  0.1085 -0.5064  0.2965
19690TIP3    H180561   3.557   5.828   2.261 -0.7574 -0.7507  1.1275
19690TIP3    H280562   3.507   5.906   2.142 -0.4875  0.6248  1.8986
19691TIP3   OH280563   0.191   6.455  16.990 -0.1537  0.0326 -0.0321
19691TIP3    H180564   0.257   6.455  16.922 -0.0041 -1.8941  0.0410
19691TIP3    H280565   0.114   6.496  16.950  0.6549  1.0757 -0.5458
19692TIP3   OH280566   1.205   2.637  12.494 -0.0835  0.4072 -0.6530
19692TIP3    H180567   1.139   2.567  12.500  0.9593 -0.7305 -1.8473
19692TIP3    H280568   1.205   2.662  12.402  0.0426  1.5242 -0.3561
19693TIP3   OH280569   4.151   0.263  15.152  0.0475  0.8330  0.2534
19693TIP3    H180570   4.241   0.290  15.171 -0.0535  1.0212  0.4682
19693TIP3    H280571   4.147   0.259  15.057  0.2548  0.9246  0.2401
19694TIP3   OH280572   3.208   0.200  17.046 -0.2778 -0.5781  0.4992
19694TIP3    H180573   3.173   0.286  17.024  1.1706 -0.5878 -2.2665
19694TIP3    H280574   3.282   0.218  17.104  0.8828  0.2460 -1.1387
19695TIP3   OH280575   5.452   0.876  17.063 -0.3603  0.2404  0.0156
19695TIP3    H180576   5.362   0.869  17.095 -0.3920 -0.9125 -0.2846
19695TIP3    H280577   5.502   0.815  17.118 -0.5241 -2.2836 -2.4111
19696TIP3   OH280578   5.016   5.606   1.547 -0.5073 -0.4050  0.5383
19696TIP3    H180579   5.037   5.650   1.630  0.8155  0.1576 -0.0769
19696TIP3    H280580   4.933   5.562   1.565  0.0652 -0.8567  2.3861
19697TIP3   OH280581   2.449   0.906   1.310 -0.0081 -0.2038 -0.3707
19697TIP3    H180582   2.383   0.897   1.379  0.9296  0.6530  0.6952
19697TIP3    H280583   2.399   0.913   1.229 -1.1842 -0.2203  0.3270
19698TIP3   OH280584   4.033   0.379  15.750  0.1142 -0.5328 -0.9273
19698TIP3    H180585   3.963   0.358  15.811  0.2238  0.5870 -0.3875
19698TIP3    H280586   4.107   0.326  15.780  0.3934  0.5499  0.4048
19699TIP3   OH280587   4.421   2.418  12.103  0.1531 -0.3501 -0.2593
19699TIP3    H180588   4.512   2.411  12.132  0.2557 -0.1976 -0.5430
19699TIP3    H280589   4.369   2.409  12.183  0.4508  0.6687  0.0495
19700TIP3   OH280590   3.139   1.008   2.469 -0.4585 -0.0816 -0.5994
19700TIP3    H180591   3.079   1.017   2.395 -0.7141 -0.4505 -0.4371
19700TIP3    H280592   3.183   0.924   2.454 -1.9638 -1.1580  0.7146
19701TIP3   OH280593   4.183   0.961  12.527 -0.2487 -0.4954 -0.0070
19701TIP3    H180594   4.116   0.939  12.593 -0.3388  0.3277  0.1874
19701TIP3    H280595   4.166   0.901  12.455 -2.0979  0.6070 -0.5470
19702TIP3   OH280596   5.598   0.201  15.123 -0.2071  0.2999  0.2903
19702TIP3    H180597   5.689   0.233  15.120 -0.2832  0.6607  1.3247
19702TIP3    H280598   5.602   0.122  15.177 -0.5102  0.3458  0.3812
19703TIP3   OH280599   2.618   1.542  16.204 -0.5349  0.4727  0.3436
19703TIP3    H180600   2.599   1.521  16.112 -0.5215 -0.6060  0.5698
19703TIP3    H280601   2.540   1.587  16.235 -0.8275  0.2226 -0.0112
19704TIP3   OH280602   2.234   4.814   1.314 -0.3233 -0.2901 -0.4536
19704TIP3    H180603   2.152   4.863   1.323  0.1490  0.4238  0.1121
19704TIP3    H280604   2.228   4.746   1.381  0.2149  0.7577  0.7017
19705TIP3   OH280605   6.606   0.804   4.330  0.4360 -0.0696 -0.7686
19705TIP3    H180606   6.557   0.886   4.327  0.6572  0.0363 -1.6885
19705TIP3    H280607   6.646   0.796   4.243  3.7317  0.8869  0.4768
19706TIP3   OH280608   6.307   5.570   0.074  0.1820  0.5574 -0.0868
19706TIP3    H180609   6.323   5.502   0.009  1.0042  0.4797  0.1921
19706TIP3    H280610   6.299   5.651   0.023 -3.1452  0.0022 -0.6782
19707TIP3   OH280611   2.004   0.957   5.386  0.3226  0.4424 -0.2201
19707TIP3    H180612   1.996   0.868   5.354  0.2635  0.9880 -1.8037
19707TIP3    H280613   2.093   0.984   5.363  0.3551  0.7780  0.2748
19708TIP3   OH280614   3.281   4.622  11.831  0.2771  0.7422 -0.4772
19708TIP3    H180615   3.365   4.595  11.792  0.7745  0.4559  0.7489
19708TIP3    H280616   3.300   4.708  11.870  0.5491 -0.1225  1.4089
19709TIP3   OH280617   3.326   3.358  12.249 -0.3402 -0.0470 -0.2141
19709TIP3    H180618   3.365   3.410  12.319  1.5903 -1.0219 -0.4986
19709TIP3    H280619   3.291   3.422  12.188  1.2135  0.9081 -0.1363
19710TIP3   OH280620   2.105   4.918  10.245  0.4035  0.1687 -0.2887
19710TIP3    H180621   2.089   4.887  10.334  1.4648 -0.7850 -0.4044
19710TIP3    H280622   2.088   5.012  10.248  4.5823  1.0997  2.0892
19711TIP3   OH280623   1.460   4.991   0.403  0.0160 -0.4185  0.3457
19711TIP3    H180624   1.492   5.057   0.464  0.5428 -0.9011  0.5973
19711TIP3    H280625   1.421   5.042   0.331  1.4518  0.1897 -0.0312
19712TIP3   OH280626   1.927   6.416  12.314 -0.2840 -0.2429 -0.1462
19712TIP3    H180627   1.950   6.349  12.249 -0.2391  0.5590 -0.9884
19712TIP3    H280628   1.851   6.380  12.360  0.1466 -1.1540 -0.1254
19713TIP3   OH280629   5.486   3.848   0.128  0.1158  0.5153  0.0195
19713TIP3    H180630   5.477   3.795   0.049  0.9813 -0.0879  0.3103
19713TIP3    H280631   5.580   3.850   0.145  0.2790  3.2697 -0.7199
19714TIP3   OH280632   4.785   1.706   5.560 -0.1018  0.2196 -0.0917
19714TIP3    H180633   4.713   1.648   5.585  0.5682 -0.2853  0.7010
19714TIP3    H280634   4.742   1.781   5.518 -1.1199  0.0828  0.6664
19715TIP3   OH280635   2.349   2.422  10.788  0.4253  0.5405 -0.7561
19715TIP3    H180636   2.338   2.508  10.828 -0.2173 -0.0927  0.4886
19715TIP3    H280637   2.420   2.434  10.725  1.9627  1.4301  1.0544
19716TIP3   OH280638   3.763   6.213  12.299  0.0455 -0.8504 -0.3434
19716TIP3    H180639   3.853   6.245  12.292 -0.5972  0.6917 -2.6301
19716TIP3    H280640   3.769   6.138  12.358  2.6193 -0.0805  0.5181
19717TIP3   OH280641   4.451   3.349   1.075 -0.4866 -0.2987  0.5998
19717TIP3    H180642   4.450   3.438   1.040 -0.8278 -1.4160 -2.5744
19717TIP3    H280643   4.543   3.326   1.080 -0.3486  0.4881  2.3309
19718TIP3   OH280644   0.215   4.902  17.063  0.3644  0.3824  0.3911
19718TIP3    H180645   0.182   4.874  16.977  1.0636 -1.4605  0.6879
19718TIP3    H280646   0.306   4.872  17.065  1.9628  4.4779 -0.0070
19719TIP3   OH280647   0.504   4.367   5.771 -0.0167 -0.2407 -0.0507
19719TIP3    H180648   0.558   4.355   5.693 -1.0084 -0.1993 -0.7629
19719TIP3    H280649   0.552   4.431   5.823  0.6935 -0.3140 -0.5869
19720TIP3   OH280650   1.837   5.010   4.058  0.0132 -0.2211 -0.2957
19720TIP3    H180651   1.792   5.079   4.011 -1.9178 -0.2805  1.3451
19720TIP3    H280652   1.916   5.052   4.093 -1.4260  1.4233  1.2082
19721TIP3   OH280653   5.317   5.425   2.067  0.2940 -0.4367  0.4783
19721TIP3    H180654   5.260   5.347   2.068  0.6608 -0.7077  0.3713
19721TIP3    H280655   5.361   5.424   2.152  0.2073 -0.2770  0.5251
19722TIP3   OH280656   2.270   3.508   1.577  0.4185  0.0811 -0.3986
19722TIP3    H180657   2.295   3.451   1.505  0.9709 -0.4396  0.1972
19722TIP3    H280658   2.340   3.498   1.641 -0.0154  0.6132  0.1704
19723TIP3   OH280659   1.564   5.910  15.535  0.2804 -0.4512  0.2790
19723TIP3    H180660   1.620   5.838  15.565 -0.7557 -0.7427  1.6361
19723TIP3    H280661   1.479   5.870  15.520  0.3907 -0.0076 -1.7306
19724TIP3   OH280662   4.976   2.977  10.737 -0.6010 -0.0523 -0.0594
19724TIP3    H180663   4.884   2.980  10.709  0.1131 -0.3268 -2.7827
19724TIP3    H280664   5.009   3.064  10.715 -0.0994 -0.1069  0.4811
19725TIP3   OH280665   2.748   6.524  12.075 -0.1490  0.2891  0.0799
19725TIP3    H180666   2.717   6.540  11.986  0.4944  0.3522 -0.1383
19725TIP3    H280667   2.680   6.469  12.115  0.7246 -1.9110 -1.2751
19726TIP3   OH280668   3.532   3.156   0.052 -0.2058  1.1713 -0.1894
19726TIP3    H180669   3.602   3.097   0.082  0.5411  3.0134  1.9876
19726TIP3    H280670   3.539   3.155  -0.043 -1.2750 -3.4074 -0.4872
19727TIP3   OH280671   2.613   3.494   4.422  0.6495 -0.1475  0.2749
19727TIP3    H180672   2.648   3.414   4.461  1.5794 -0.3988 -1.0247
19727TIP3    H280673   2.638   3.489   4.330 -1.2104  0.5683 -0.3186
19728TIP3   OH280674   1.030   0.434  11.631  0.0050 -0.0596  0.4211
19728TIP3    H180675   0.992   0.504  11.579 -2.4533 -0.6961  1.2273
19728TIP3    H280676   1.107   0.473  11.672  0.3468  1.2741 -1.3547
19729TIP3   OH280677   6.502   3.239   1.682  0.0773  0.4575  0.2431
19729TIP3    H180678   6.523   3.150   1.712  0.9894  1.3796  2.5340
19729TIP3    H280679   6.565   3.256   1.612  0.0203 -0.6012 -0.0936
19730TIP3   OH280680   6.734   3.697  10.964  0.6528  0.3193 -0.4087
19730TIP3    H180681   6.769   3.764  10.905 -0.5741  0.6874 -0.7500
19730TIP3    H280682   6.711   3.624  10.907 -0.9720  0.8524 -0.5083
19731TIP3   OH280683   1.149   6.489  13.610  0.9323  0.0777 -0.2610
19731TIP3    H180684   1.166   6.495  13.516 -1.0531  0.8305 -0.6185
19731TIP3    H280685   1.059   6.455  13.616  0.9380  0.2571  1.3627
19732TIP3   OH280686   3.486   3.916   2.958  0.3362 -0.0051  0.1539
19732TIP3    H180687   3.419   3.851   2.935  0.0630  0.7602 -1.3274
19732TIP3    H280688   3.569   3.874   2.935  0.3329 -0.6757  1.3114
19733TIP3   OH280689   4.739   5.904   5.504 -0.2265  0.0099  0.1266
19733TIP3    H180690   4.764   5.877   5.592 -4.4183 -1.1613  1.1593
19733TIP3    H280691   4.760   5.998   5.501 -1.1865  0.4048  2.9310
19734TIP3   OH280692   5.188   0.937   3.314  0.5805  0.4700  0.1934
19734TIP3    H180693   5.132   0.905   3.385 -0.2977 -0.0897 -0.7396
19734TIP3    H280694   5.231   1.014   3.352  1.6343 -0.9125  1.9931
19735TIP3   OH280695   0.555   2.837  12.998 -0.3890  0.2169  0.4844
19735TIP3    H180696   0.568   2.746  13.025  0.4395 -0.4102 -1.7633
19735TIP3    H280697   0.632   2.882  13.031 -1.6463  0.5847  3.1832
19736TIP3   OH280698   0.350   2.231  11.645  0.0978  0.3492  0.3285
19736TIP3    H180699   0.373   2.314  11.686  0.8849  0.3683 -0.1298
19736TIP3    H280700   0.256   2.221  11.660 -0.1285  1.6279 -0.1777
19737TIP3   OH280701   0.989   6.760   1.728 -0.4751 -0.9083 -0.0950
19737TIP3    H180702   0.926   6.782   1.659 -0.8641  0.2744  0.6056
19737TIP3    H280703   0.937   6.758   1.808  0.1205 -1.4334  0.2889
19738TIP3   OH280704   3.661   6.758  15.584 -0.7664 -0.1827  0.1650
19738TIP3    H180705   3.637   6.774  15.492 -0.7200  0.9325  0.3287
19738TIP3    H280706   3.712   6.677  15.582  0.2719  0.4639 -0.9750
19739TIP3   OH280707   2.107   2.137   3.284  0.1413  1.0755 -0.5677
19739TIP3    H180708   2.080   2.203   3.348 -0.6308  0.6148 -0.4020
19739TIP3    H280709   2.053   2.155   3.207  0.5051  1.1324 -0.8132
19740TIP3   OH280710   1.385   5.120  14.252 -0.1301 -0.2666 -0.7667
19740TIP3    H180711   1.478   5.119  14.275 -0.2547 -0.2685 -0.2517
19740TIP3    H280712   1.367   5.211  14.231 -0.1707 -0.1342 -0.1867
19741TIP3   OH280713   3.130   0.263  16.559  0.1439  0.2315 -0.9890
19741TIP3    H180714   3.052   0.223  16.598  2.0365 -1.2523  1.6180
19741TIP3    H280715   3.118   0.357  16.574  0.0332 -0.1544  2.0496
19742TIP3   OH280716   3.705   5.747   0.361 -0.2391  0.1462 -0.7009
19742TIP3    H180717   3.670   5.759   0.273 -2.8373 -0.1035  0.2145
19742TIP3    H280718   3.714   5.653   0.371  2.1844  0.2297 -1.3815
19743TIP3   OH280719   1.539   0.429   0.306  0.0123  0.1947  0.2179
19743TIP3    H180720   1.583   0.491   0.364 -0.6532  0.2543  0.6793
19743TIP3    H280721   1.602   0.412   0.236  1.7570 -1.5946  2.0873
19744TIP3   OH280722   5.828   1.533   2.909 -0.6454  0.6388 -0.1465
19744TIP3    H180723   5.838   1.442   2.883 -0.2561  0.2429  1.2864
19744TIP3    H280724   5.906   1.577   2.874  0.2488 -0.0294  0.9297
19745TIP3   OH280725   3.859   4.593   3.854  0.2983  0.1940  0.1238
19745TIP3    H180726   3.874   4.509   3.897 -0.3838  0.5697  1.1218
19745TIP3    H280727   3.766   4.593   3.832 -0.3577  1.7333  2.5188
19746TIP3   OH280728   1.466   1.380  14.578 -0.1247 -0.1907  0.1424
19746TIP3    H180729   1.426   1.305  14.533  2.2925 -1.1371 -0.5607
19746TIP3    H280730   1.474   1.447  14.510 -0.1436 -0.1460  0.1839
19747TIP3   OH280731   6.709   6.186   2.475 -0.1323  0.1016  0.1532
19747TIP3    H180732   6.622   6.183   2.435  0.3707 -1.3206 -0.9295
19747TIP3    H280733   6.762   6.128   2.421  0.8208 -1.2715  2.4118
19748TIP3   OH280734   6.645   5.717   5.196 -0.6061 -0.6472 -0.0350
19748TIP3    H180735   6.582   5.789   5.189 -0.0632  0.0832  1.9074
19748TIP3    H280736   6.655   5.703   5.290  0.4440 -2.2729 -0.3469
19749TIP3   OH280737   1.977   2.512   5.045 -0.6447  0.0383  0.0498
19749TIP3    H180738   1.972   2.420   5.019 -0.5663  0.5234 -1.8278
19749TIP3    H280739   1.967   2.561   4.963  1.3240  1.6703  0.6877
19750TIP3   OH280740   5.730   5.087   1.976 -0.1767 -0.3000  0.8323
19750TIP3    H180741   5.680   5.049   2.048 -0.4952 -2.7273 -0.5362
19750TIP3    H280742   5.665   5.137   1.926 -0.6034 -1.0027  0.6722
19751TIP3   OH280743   6.534   1.800  13.133  0.4420  0.7577 -0.3777
19751TIP3    H180744   6.568   1.731  13.076 -0.2445 -0.0947  0.2241
19751TIP3    H280745   6.556   1.881  13.087 -0.3392  0.0965 -2.0292
19752TIP3   OH280746   5.447   3.970   5.955  0.3278  0.0808 -0.1980
19752TIP3    H180747   5.376   3.929   6.004 -0.9069 -1.7933 -3.2529
19752TIP3    H280748   5.406   4.040   5.906  1.6214  2.2228  1.5926
19753TIP3   OH280749   2.515   3.853   2.807 -0.0162  0.5053  0.1199
19753TIP3    H180750   2.446   3.919   2.802 -0.6070 -0.1818 -3.0160
19753TIP3    H280751   2.486   3.783   2.749  1.9637 -1.1953  1.0217
19754TIP3   OH280752   4.533   3.866  15.517  0.3659 -0.3744 -0.5133
19754TIP3    H180753   4.565   3.853  15.428  0.0097  0.8606 -0.8391
19754TIP3    H280754   4.558   3.955  15.540  0.3875 -0.6447  0.6088
19755TIP3   OH280755   3.346   3.150  15.900 -0.1735 -0.2119  0.1509
19755TIP3    H180756   3.273   3.145  15.839 -1.0966 -0.4265  1.2296
19755TIP3    H280757   3.343   3.239  15.934  0.2577 -0.1294 -0.0255
19756TIP3   OH280758   6.213   1.425   5.882 -0.6287 -0.2516  0.6028
19756TIP3    H180759   6.299   1.452   5.852  0.3916 -1.9097  1.8541
19756TIP3    H280760   6.182   1.364   5.815 -2.2871  2.5781 -1.4504
19757TIP3   OH280761   3.645   4.156   0.171  0.6332  0.3675  0.1858
19757TIP3    H180762   3.645   4.149   0.075 -1.2388  2.2136 -0.0081
19757TIP3    H280763   3.597   4.079   0.200  3.7528 -1.8640 -0.0731
19758TIP3   OH280764   1.493   1.828   4.207 -0.3690 -0.2321 -0.0115
19758TIP3    H180765   1.455   1.866   4.286 -0.6926  1.5464 -0.9488
19758TIP3    H280766   1.462   1.738   4.206  0.0839 -0.4539  2.1327
19759TIP3   OH280767   1.450   4.799   5.014 -0.2651  0.2697 -0.0694
19759TIP3    H180768   1.363   4.761   5.008  0.6451 -1.7364 -1.8351
19759TIP3    H280769   1.492   4.752   5.086 -0.5751  1.1557  0.7062
19760TIP3   OH280770   0.298   3.729   3.216 -0.5122  0.0335  0.1254
19760TIP3    H180771   0.298   3.788   3.141 -2.8152 -1.7461 -1.4148
19760TIP3    H280772   0.205   3.717   3.238  0.0683  0.5694  3.4028
19761TIP3   OH280773   2.483   1.351   2.216  0.1600 -0.0221 -0.4594
19761TIP3    H180774   2.517   1.286   2.153 -0.6972 -0.9112 -0.0271
19761TIP3    H280775   2.557   1.367   2.275  0.3006 -0.8391 -0.3960
19762TIP3   OH280776   4.707   6.471  11.958 -0.2514 -0.3600 -0.3549
19762TIP3    H180777   4.715   6.437  12.047 -1.1496  0.9508  0.2695
19762TIP3    H280778   4.665   6.402  11.908 -0.2796 -0.8851  0.3889
19763TIP3   OH280779   0.919   2.460  14.552  0.9215  0.4221  0.6382
19763TIP3    H180780   0.958   2.538  14.513  1.2717 -0.5617 -1.0617
19763TIP3    H280781   0.914   2.397  14.480 -2.2630 -0.0839  1.1708
19764TIP3   OH280782   3.874   6.381  12.904  0.6234 -0.0843 -0.4248
19764TIP3    H180783   3.869   6.335  12.988 -0.9496 -0.4300 -0.6684
19764TIP3    H280784   3.806   6.449  12.911  2.1868  1.5522 -0.4725
19765TIP3   OH280785   5.056   6.671  13.896 -0.2288 -0.0764  0.1822
19765TIP3    H180786   4.961   6.681  13.904 -0.3283  0.7844 -1.4662
19765TIP3    H280787   5.091   6.705  13.979 -1.2578  2.4498 -0.3089
19766TIP3   OH280788   0.445   0.373   0.318  0.7289  0.2277 -0.0264
19766TIP3    H180789   0.433   0.310   0.247  3.1878 -1.4058  0.8416
19766TIP3    H280790   0.400   0.452   0.289 -1.9147 -1.6849 -1.4783
19767TIP3   OH280791   4.962   2.248  12.634  0.4531 -0.3106 -0.5436
19767TIP3    H180792   5.022   2.197  12.580  1.7838 -0.0906  0.6706
19767TIP3    H280793   4.920   2.184  12.691  1.0718 -0.2242  0.0130
19768TIP3   OH280794   1.784   5.621  14.100 -0.4484  0.3061  0.5454
19768TIP3    H180795   1.862   5.586  14.142 -0.2353  0.4369  0.2580
19768TIP3    H280796   1.743   5.675  14.167 -0.2515  0.3017  0.6699
19769TIP3   OH280797   0.463   4.062   5.349  0.4402  0.5232 -0.4136
19769TIP3    H180798   0.416   4.110   5.417  1.0130  1.5052 -0.6914
19769TIP3    H280799   0.435   4.104   5.267 -2.1107 -2.1408 -1.0934
19770TIP3   OH280800   3.877   1.165   5.876 -0.3569 -0.4763 -0.1267
19770TIP3    H180801   3.829   1.093   5.835 -1.7781  0.0531  0.5383
19770TIP3    H280802   3.867   1.150   5.970  1.7203 -0.9279  0.0769
19771TIP3   OH280803   6.788   6.355   6.132  0.2068 -0.4306 -0.0908
19771TIP3    H180804   6.723   6.358   6.202 -0.0233  1.3177 -0.3217
19771TIP3    H280805   6.861   6.305   6.169 -0.3642 -0.5072  0.9826
19772TIP3   OH280806   0.102   3.055   2.186 -0.0645  0.1317  0.0795
19772TIP3    H180807   0.177   3.105   2.217 -0.4124  0.5998  0.1775
19772TIP3    H280808   0.134   3.011   2.107 -0.2767  2.0409 -1.1412
19773TIP3   OH280809   3.584   1.863  12.825  0.7163  0.3144  0.0731
19773TIP3    H180810   3.674   1.888  12.803  0.4421  0.0023 -1.5709
19773TIP3    H280811   3.593   1.801  12.897  1.7804  0.7918  0.3628
19774TIP3   OH280812   5.947   1.392  13.322 -0.9596 -0.3162  0.0878
19774TIP3    H180813   6.039   1.410  13.340  0.2682 -0.3222 -4.9517
19774TIP3    H280814   5.904   1.478  13.323 -0.9534 -0.2805  2.0571
19775TIP3   OH280815   5.618   2.263  15.637  0.6470 -0.6460 -0.6574
19775TIP3    H180816   5.685   2.268  15.568  1.7164  0.9875  0.4274
19775TIP3    H280817   5.639   2.183  15.685  1.0651 -0.7849 -1.0641
19776TIP3   OH280818   4.108   2.358  11.348  0.2097 -0.2267 -0.1176
19776TIP3    H180819   4.059   2.350  11.266  1.1880 -0.1372 -0.7205
19776TIP3    H280820   4.186   2.304  11.335  1.3712  1.3671 -0.0176
19777TIP3   OH280821   2.050   0.119  12.179 -0.1537  0.0266  0.2700
19777TIP3    H180822   2.023   0.030  12.204  0.2125 -0.0493  0.3907
19777TIP3    H280823   2.144   0.122  12.197 -0.4934  1.0514  2.0826
19778TIP3   OH280824   0.518   5.339   4.321  0.3764 -0.0359  0.0455
19778TIP3    H180825   0.435   5.369   4.282  0.3283  1.6467  1.3115
19778TIP3    H280826   0.582   5.347   4.251 -0.1140  0.8338 -0.3169
19779TIP3   OH280827   0.852   0.283  13.365  0.5282 -0.4626 -0.3213
19779TIP3    H180828   0.850   0.196  13.327  2.3235  0.1597 -1.9690
19779TIP3    H280829   0.826   0.342  13.293  0.9288  0.4945  0.2937
19780TIP3   OH280830   2.419   3.657  16.950  0.2254 -0.3999  0.3035
19780TIP3    H180831   2.395   3.672  16.859  0.1073 -1.5464  0.1293
19780TIP3    H280832   2.362   3.586  16.978  0.1251  0.0776  1.3407
19781TIP3   OH280833   5.468   4.466  12.208 -0.3573  0.1123 -0.0318
19781TIP3    H180834   5.480   4.375  12.238 -0.4945  0.0899 -0.0441
19781TIP3    H280835   5.489   4.464  12.115  0.4188  0.2530  0.1384
19782TIP3   OH280836   1.689   3.216   5.860  0.2507 -0.3668  0.0231
19782TIP3    H180837   1.738   3.298   5.863  1.2439 -0.9673  1.2331
19782TIP3    H280838   1.607   3.235   5.906 -1.2883  0.9666 -2.9998
19783TIP3   OH280839   2.824   2.230   3.327  0.5360  0.3586 -0.1680
19783TIP3    H180840   2.812   2.169   3.254 -1.7006  0.8911 -0.3301
19783TIP3    H280841   2.840   2.314   3.285 -1.7772  0.8696 -0.1615
19784TIP3   OH280842   0.007   2.625   0.410 -0.1695 -0.1667  0.3028
19784TIP3    H180843  -0.086   2.616   0.434 -0.4843  1.2474 -0.3154
19784TIP3    H280844   0.029   2.715   0.432 -0.0470  0.7765 -3.0806
19785TIP3   OH280845   1.646   3.631   4.472  0.1552 -0.0126 -0.3486
19785TIP3    H180846   1.711   3.561   4.471 -0.4632 -0.6607  1.5530
19785TIP3    H280847   1.697   3.712   4.474  0.8717 -0.4077 -1.5290
19786TIP3   OH280848   1.324   4.863   2.957 -0.1198 -0.3209  0.4228
19786TIP3    H180849   1.338   4.923   2.883 -1.0953  2.1104  2.0961
19786TIP3    H280850   1.233   4.835   2.948 -0.0038 -0.6532  0.2749
19787TIP3   OH280851   3.720   5.414   2.928 -0.2211  0.5501 -0.1309
19787TIP3    H180852   3.709   5.487   2.989  0.6502  0.3021  0.3396
19787TIP3    H280853   3.729   5.456   2.842  1.2653  1.0838  0.2512
19788TIP3   OH280854   0.434   0.947   2.686  0.1975 -0.4032  0.3842
19788TIP3    H180855   0.486   1.018   2.649 -1.1995  0.2174 -0.4384
19788TIP3    H280856   0.497   0.875   2.697  1.2683  0.3836 -0.3771
19789TIP3   OH280857   3.921   0.360  11.897  0.3332  0.0012 -0.0698
19789TIP3    H180858   3.852   0.422  11.871 -0.3066 -0.2816  0.8681
19789TIP3    H280859   3.884   0.314  11.973  2.0947  0.8276  1.3761
19790TIP3   OH280860   2.638   3.685  11.263  0.5630  0.0109  0.5110
19790TIP3    H180861   2.573   3.616  11.264 -1.0503  1.4195 -0.9290
19790TIP3    H280862   2.722   3.640  11.274 -0.5029 -2.0127  0.7097
19791TIP3   OH280863   5.182   2.354  16.210  0.2083  0.2549 -0.3829
19791TIP3    H180864   5.255   2.292  16.211  1.4064  1.5832 -1.6736
19791TIP3    H280865   5.179   2.388  16.121 -2.0570  0.2104 -0.3902
19792TIP3   OH280866   0.762   1.288   5.303 -0.0813  0.2874 -0.0025
19792TIP3    H180867   0.845   1.311   5.344 -0.3367 -1.9778  2.0094
19792TIP3    H280868   0.786   1.225   5.234 -0.1702 -3.3350  2.9556
19793TIP3   OH280869   5.904   4.038   2.614 -0.5323 -0.1823  0.0240
19793TIP3    H180870   5.947   4.016   2.531 -0.0084 -0.5225  0.3859
19793TIP3    H280871   5.843   4.109   2.591  0.6252  0.7062 -0.3969
19794TIP3   OH280872   0.216   2.269  15.887 -0.3534  0.0641 -0.1262
19794TIP3    H180873   0.127   2.305  15.890  0.2655  1.6560  1.0929
19794TIP3    H280874   0.205   2.175  15.893 -1.9285  0.3115  1.7125
19795TIP3   OH280875   6.177   4.232   2.660  0.3832 -0.2650 -0.1841
19795TIP3    H180876   6.221   4.282   2.729 -0.9828  0.3154  0.3064
19795TIP3    H280877   6.124   4.168   2.707 -2.9861  2.0874 -0.3971
19796TIP3   OH280878   6.408   0.106  14.489  0.1780  0.3317 -0.2812
19796TIP3    H180879   6.482   0.057  14.523  0.4343  0.1713 -1.0577
19796TIP3    H280880   6.444   0.160  14.419 -0.9435 -2.2601 -3.0738
19797TIP3   OH280881   5.047   6.022   0.427  0.0620  0.2652 -0.0733
19797TIP3    H180882   5.016   5.940   0.464 -2.0558  0.8099 -0.5142
19797TIP3    H280883   5.064   6.002   0.335 -0.3009  0.2843 -0.1442
19798TIP3   OH280884   3.681   3.700   0.267 -0.3043 -0.6653  0.1933
19798TIP3    H180885   3.641   3.635   0.325  4.5293 -2.8391  1.6119
19798TIP3    H280886   3.676   3.662   0.180  2.0361 -2.9642  0.9422
19799TIP3   OH280887   6.171   0.145   3.739 -0.1784  0.2821 -0.0929
19799TIP3    H180888   6.253   0.098   3.724  1.0753  2.5123 -0.7482
19799TIP3    H280889   6.138   0.110   3.822  2.4530  0.6216  1.2025
19800TIP3   OH280890   5.536   1.198   5.197 -0.1718 -0.2095  0.0194
19800TIP3    H180891   5.601   1.234   5.137  0.4491 -0.9836  0.2081
19800TIP3    H280892   5.585   1.137   5.252 -0.7977  0.2206  1.0912
19801TIP3   OH280893   5.725   4.362  12.987  0.1401 -0.5412 -0.1312
19801TIP3    H180894   5.737   4.316  13.070  0.3151 -0.4568 -0.1088
19801TIP3    H280895   5.764   4.305  12.922  0.9466 -0.1244 -0.0205
19802TIP3   OH280896   6.790   6.704   3.134  0.4722  0.2343  0.2612
19802TIP3    H180897   6.872   6.747   3.160  0.4758 -0.1192  0.8536
19802TIP3    H280898   6.726   6.775   3.131  0.6114  0.3795  0.6457
19803TIP3   OH280899   3.286   1.479  16.129 -0.4253  0.0467 -0.0098
19803TIP3    H180900   3.310   1.570  16.113 -0.9509  0.2585  0.3879
19803TIP3    H280901   3.217   1.460  16.066 -1.4596  0.4340  0.9648
19804TIP3   OH280902   4.007   0.193  16.618 -0.1423  0.1059 -0.4171
19804TIP3    H180903   4.087   0.245  16.616  0.1993 -0.2156  1.9059
19804TIP3    H280904   4.036   0.102  16.610 -0.2872  0.0090  0.0953
19805TIP3   OH280905   5.995   3.714   4.929  0.4860 -0.7798 -0.1217
19805TIP3    H180906   5.941   3.792   4.921  1.2870 -0.0463  1.1500
19805TIP3    H280907   5.943   3.644   4.890  0.7553  0.7695 -3.5962
19806TIP3   OH280908   1.917   4.216  16.242  0.2445  0.3268  0.0217
19806TIP3    H180909   1.836   4.238  16.288  0.0532  1.3723 -0.7900
19806TIP3    H280910   1.914   4.121  16.233 -1.1292  0.3866 -0.3982
19807TIP3   OH280911   4.755   1.115  15.585 -0.3782  0.3443 -0.4469
19807TIP3    H180912   4.723   1.057  15.517  0.2030 -0.7068  0.1558
19807TIP3    H280913   4.741   1.203  15.550  2.0201 -0.1477 -2.9385
19808TIP3   OH280914   5.212   2.606   2.497 -0.3657  0.3422  0.1775
19808TIP3    H180915   5.123   2.608   2.532 -0.0628 -2.9981  1.5713
19808TIP3    H280916   5.204   2.560   2.413  0.0421 -0.2528  0.4547
19809TIP3   OH280917   5.080   3.247   4.002  0.3905  0.3153 -0.6302
19809TIP3    H180918   5.127   3.199   4.070  0.2924  0.3308 -0.5508
19809TIP3    H280919   5.108   3.207   3.920 -0.2740 -0.3985 -0.5263
19810TIP3   OH280920   0.816   1.311  12.100 -0.5090  0.1587  0.4323
19810TIP3    H180921   0.782   1.398  12.122  2.1324  1.3664  0.1849
19810TIP3    H280922   0.812   1.307  12.005  1.4209  1.0463  0.2485
19811TIP3   OH280923   5.758   0.728  16.474  0.2420  0.4883 -0.3479
19811TIP3    H180924   5.834   0.742  16.417  0.5166 -2.7356 -0.9819
19811TIP3    H280925   5.702   0.669  16.425 -0.3379 -1.0768  2.0208
19812TIP3   OH280926   6.339   1.463   3.525 -0.4560 -0.3635 -0.0670
19812TIP3    H180927   6.327   1.543   3.576  0.6962 -0.1776 -0.0461
19812TIP3    H280928   6.345   1.493   3.434  0.3078 -0.3796 -0.0273
19813TIP3   OH280929   1.180   5.892   5.015 -0.4341  0.2809  0.8017
19813TIP3    H180930   1.104   5.883   4.957 -0.4022 -1.7239  1.0017
19813TIP3    H280931   1.222   5.807   5.013  1.8544  1.3404  0.6972
19814TIP3   OH280932   1.484   0.017  15.270 -0.3231 -0.4625  0.3952
19814TIP3    H180933   1.449   0.044  15.185 -0.6350  0.7244  0.8920
19814TIP3    H280934   1.452  -0.073  15.281 -4.0719  0.8214  1.2386
19815TIP3   OH280935   0.753   3.335  10.828  0.1506  0.1386 -0.0813
19815TIP3    H180936   0.681   3.284  10.790 -0.7256 -0.5612  2.2923
19815TIP3    H280937   0.746   3.421  10.787 -0.0144 -0.8387 -2.2321
19816TIP3   OH280938   2.423   5.175   4.426  0.0969  0.2643  0.0638
19816TIP3    H180939   2.373   5.206   4.351 -0.3906 -1.0857 -0.1823
19816TIP3    H280940   2.411   5.080   4.427  1.0167  0.1270  1.1849
19817TIP3   OH280941   1.744   0.875  15.909  0.3451  0.1585  0.1812
19817TIP3    H180942   1.804   0.926  15.964 -0.8677  0.7771  0.9847
19817TIP3    H280943   1.695   0.821  15.971 -1.6943  1.5315 -0.1527
19818TIP3   OH280944   3.563   0.263  11.922  0.0459 -0.7272  0.6654
19818TIP3    H180945   3.477   0.290  11.888  0.0517 -0.2003  1.0574
19818TIP3    H280946   3.612   0.235  11.844 -1.0176 -2.6003  0.6142
19819TIP3   OH280947   3.671   2.304   1.937  0.2799 -0.1385 -0.1164
19819TIP3    H180948   3.662   2.209   1.935  1.0141 -0.2477  0.7320
19819TIP3    H280949   3.582   2.337   1.931  0.0238 -0.8788 -0.5030
19820TIP3   OH280950   0.379   4.028   5.625 -0.4696 -0.7983 -0.0325
19820TIP3    H180951   0.355   4.026   5.718 -0.4448 -1.2395 -0.0314
19820TIP3    H280952   0.356   4.116   5.596  1.1066 -0.0697  0.8044
19821TIP3   OH280953   1.695   5.231   0.011  0.5295  0.5259  0.0922
19821TIP3    H180954   1.713   5.316   0.052 -0.1065  1.2186 -1.0183
19821TIP3    H280955   1.781   5.190   0.001  0.9508  1.4921 -0.3302
19822TIP3   OH280956   5.492   1.405  17.133 -0.5864 -0.4793  0.0345
19822TIP3    H180957   5.549   1.338  17.097 -0.6730  0.5900 -2.2744
19822TIP3    H280958   5.404   1.366  17.128 -0.2475 -1.9069  3.0724
19823TIP3   OH280959   6.091   5.175   5.408 -0.0006  0.2268  0.1520
19823TIP3    H180960   6.178   5.160   5.370 -0.5177  0.8252 -1.3150
19823TIP3    H280961   6.081   5.105   5.473  0.6827 -1.1903 -1.2109
19824TIP3   OH280962   6.153   2.321  14.188 -0.3545  0.4493  0.1273
19824TIP3    H180963   6.095   2.310  14.113  1.1368  0.9158 -1.1468
19824TIP3    H280964   6.156   2.415  14.203  0.5244  0.4853 -0.2126
19825TIP3   OH280965   0.544   2.933   1.356 -0.0576  0.5866  0.8140
19825TIP3    H180966   0.564   2.927   1.263 -0.7145  1.6097  0.5900
19825TIP3    H280967   0.615   2.984   1.393 -0.6088  1.5623  0.5694
19826TIP3   OH280968   3.505   5.419  14.393  0.3800  0.1394 -0.1247
19826TIP3    H180969   3.546   5.471  14.325 -0.1993  2.0344  0.9078
19826TIP3    H280970   3.541   5.331  14.382  3.2134  1.2704 -0.4727
19827TIP3   OH280971   2.734   4.043   2.787 -0.2200  0.5361 -0.8279
19827TIP3    H180972   2.679   3.964   2.784 -0.7006  0.8945 -2.2308
19827TIP3    H280973   2.687   4.102   2.846 -0.5057  0.2484 -0.7604
19828TIP3   OH280974   6.291   2.170   3.012 -0.4335  0.5680 -0.2031
19828TIP3    H180975   6.318   2.127   3.093 -0.7418  0.0613 -0.3605
19828TIP3    H280976   6.293   2.264   3.032 -0.6612  0.4416  0.4360
19829TIP3   OH280977   0.904   1.656  12.403 -0.1965  0.5402  0.3857
19829TIP3    H180978   0.950   1.735  12.433  1.0268  0.0371 -0.0832
19829TIP3    H280979   0.963   1.618  12.337 -0.0757 -1.5153  1.5890
19830TIP3   OH280980   6.007   3.279  16.205  0.3820 -0.3021 -0.5345
19830TIP3    H180981   5.912   3.272  16.191  0.1062  0.5726  0.8010
19830TIP3    H280982   6.024   3.221  16.279  0.4138  1.6241  1.0420
19831TIP3   OH280983   0.228   0.546  14.000 -0.3337 -0.0199 -0.3539
19831TIP3    H180984   0.216   0.640  13.999  0.4149  0.0989 -2.0041
19831TIP3    H280985   0.268   0.526  13.915  1.2016 -1.5838  0.6602
19832TIP3   OH280986   0.722   6.661   1.755  0.3008  0.6428  0.0558
19832TIP3    H180987   0.687   6.590   1.702  0.4062 -0.5975  1.5717
19832TIP3    H280988   0.646   6.718   1.771 -0.0390  0.2937 -0.2855
19833TIP3   OH280989   5.530   5.307  11.243 -0.2907  0.0030  0.2962
19833TIP3    H180990   5.450   5.348  11.209 -0.8268 -1.3034 -0.0699
19833TIP3    H280991   5.517   5.305  11.338 -1.8476 -2.3615  0.1360
19834TIP3   OH280992   6.702   2.380   4.747  0.1620  0.0549  0.3275
19834TIP3    H180993   6.730   2.464   4.783  1.7353 -0.5657  0.6493
19834TIP3    H280994   6.607   2.379   4.758 -0.2528  2.8231 -1.9412
19835TIP3   OH280995   5.087   1.560  16.877  0.5014  0.2401 -0.3754
19835TIP3    H180996   5.161   1.559  16.939  0.8062 -1.4026 -0.7152
19835TIP3    H280997   5.118   1.508  16.803 -1.6580 -2.1693  0.3032
19836TIP3   OH280998   2.069   0.915  16.751  0.0709 -0.0971  0.7031
19836TIP3    H180999   2.119   0.979  16.701 -0.6883 -1.5919 -2.2014
19836TIP3    H281000   1.983   0.955  16.762 -0.9433 -1.0681 -2.5529
19837TIP3   OH281001   5.086   5.143   3.601 -0.8318  0.0513 -0.4887
19837TIP3    H181002   4.997   5.145   3.567 -1.6350  1.5058  1.4756
19837TIP3    H281003   5.111   5.051   3.599 -2.6159 -0.4698 -0.5527
19838TIP3   OH281004   1.929   2.005   1.250  0.1134  0.7771  0.1812
19838TIP3    H181005   1.934   2.096   1.278 -0.2438  1.1560 -0.9426
19838TIP3    H281006   1.935   2.008   1.155 -1.2650 -0.2544  0.0273
19839TIP3   OH281007   3.286   5.436  17.136 -0.6743  0.1372 -0.0814
19839TIP3    H181008   3.369   5.471  17.170 -0.3523 -0.7150  0.0264
19839TIP3    H281009   3.262   5.497  17.066  1.0478 -0.6290 -1.4368
19840TIP3   OH281010   3.958   3.423  15.634 -0.4026 -0.2796  0.7494
19840TIP3    H181011   3.926   3.341  15.596 -1.9742  0.9945 -0.8583
19840TIP3    H281012   4.052   3.422  15.617 -0.6501 -1.0412 -0.7147
19841TIP3   OH281013   2.967   4.833   5.971  0.1103 -0.0464  0.4901
19841TIP3    H181014   2.909   4.908   5.982  1.8688  1.6920 -1.1898
19841TIP3    H281015   2.908   4.758   5.965 -1.9655  1.5585 -0.7781
19842TIP3   OH281016   2.260   6.452  12.533 -0.0749  0.4275  0.8068
19842TIP3    H181017   2.318   6.492  12.468 -1.2720  1.4573  0.3277
19842TIP3    H281018   2.304   6.466  12.617  0.5053  0.9414  0.4219
19843TIP3   OH281019   1.726   5.882  16.228  0.4553  0.0099 -0.2229
19843TIP3    H181020   1.776   5.937  16.169  1.1664 -0.3280  0.0596
19843TIP3    H281021   1.753   5.792  16.208  0.2610 -0.1493  0.2004
19844TIP3   OH281022   3.115   5.581  16.666  0.4536 -0.2402 -0.3986
19844TIP3    H181023   3.185   5.583  16.601 -0.8827  0.3127 -1.9023
19844TIP3    H281024   3.051   5.644  16.634  0.0391  0.5814  1.8603
19845TIP3   OH281025   1.539   3.707  16.771 -0.4675 -0.1808 -0.3085
19845TIP3    H181026   1.595   3.630  16.771  0.5325  0.4797  1.7554
19845TIP3    H281027   1.476   3.692  16.842  0.5566  1.3894  1.0186
19846TIP3   OH281028   1.601   0.560  12.920  1.3581 -0.0679 -0.5966
19846TIP3    H181029   1.513   0.563  12.957  1.2785 -2.5522 -0.4030
19846TIP3    H281030   1.648   0.632  12.962 -0.3999  0.9379 -0.2793
19847TIP3   OH281031   1.232   1.895   4.352 -0.1631  0.0181 -0.2283
19847TIP3    H181032   1.203   1.809   4.380  0.7653 -0.3313 -0.2833
19847TIP3    H281033   1.209   1.954   4.424  1.4469 -0.7149  0.9433
19848TIP3   OH281034   5.348   1.662   3.232  0.6155  0.0803 -0.1241
19848TIP3    H181035   5.431   1.625   3.261  0.3037 -1.7877 -1.4526
19848TIP3    H281036   5.371   1.716   3.157  0.7028 -0.0025 -0.1572
19849TIP3   OH281037   3.042   2.366  17.115  0.5446  0.5436 -0.6075
19849TIP3    H181038   2.995   2.291  17.078  1.6039 -0.6429  0.3776
19849TIP3    H281039   3.132   2.353  17.087  0.9241  0.8958  0.4220
19850TIP3   OH281040   3.448   1.104  11.138 -0.0449  0.3407  0.2894
19850TIP3    H181041   3.497   1.034  11.181  0.6361  0.5204 -0.1896
19850TIP3    H281042   3.512   1.173  11.123 -0.2882  0.3248 -0.9200
19851TIP3   OH281043   3.986   4.753   2.877  0.4707  0.2639 -0.3380
19851TIP3    H181044   4.024   4.671   2.845  0.3053  0.7562 -1.8897
19851TIP3    H281045   3.966   4.803   2.797 -2.5739  0.4152  0.3842
19852TIP3   OH281046   6.786   6.745  14.933 -0.5914 -0.2802  0.2407
19852TIP3    H181047   6.769   6.697  15.014 -1.6636 -1.7940 -0.8319
19852TIP3    H281048   6.777   6.679  14.864 -0.8491  1.2061 -1.2023
19853TIP3   OH281049   5.906   1.715  12.138 -0.1072 -0.6389 -0.4359
19853TIP3    H181050   5.837   1.764  12.094 -0.0807 -2.8614 -3.2463
19853TIP3    H281051   5.960   1.680  12.067  2.8992 -0.4733  1.5989
19854TIP3   OH281052   3.423   0.582   5.305  0.3516 -0.3385  0.3820
19854TIP3    H181053   3.493   0.542   5.253 -0.9561 -1.5210 -0.5392
19854TIP3    H281054   3.393   0.656   5.252  0.9558  0.2339  0.8263
19855TIP3   OH281055   1.554   0.101  16.826 -0.4560  0.0445 -0.3834
19855TIP3    H181056   1.540   0.041  16.753 -0.3632 -0.8172  0.2824
19855TIP3    H281057   1.643   0.082  16.856 -0.0681  1.1975 -0.7554
19856TIP3   OH281058   2.409   5.896   4.286 -0.0742 -0.1151 -0.1570
19856TIP3    H181059   2.408   5.908   4.381 -0.2925 -0.0085 -0.1713
19856TIP3    H281060   2.373   5.978   4.252 -0.6371 -0.4223 -0.3064
19857TIP3   OH281061   0.159   6.480   0.655  0.0100  0.1971 -0.0617
19857TIP3    H181062   0.145   6.533   0.734 -1.5967 -1.6408  0.9719
19857TIP3    H281063   0.094   6.512   0.593  0.9108  1.2686 -0.5043
19858TIP3   OH281064   4.318   0.055   6.131  0.0859 -0.1697 -0.1289
19858TIP3    H181065   4.357   0.139   6.158 -0.6355 -0.8493  3.6514
19858TIP3    H281066   4.301   0.010   6.214 -0.2649 -3.7692 -1.9908
19859TIP3   OH281067   3.427   2.302  13.883  0.8003  0.2088 -0.0501
19859TIP3    H181068   3.375   2.223  13.896  1.1490  0.1209  0.9041
19859TIP3    H281069   3.370   2.374  13.912  1.1348  0.1253  0.8567
19860TIP3   OH281070   4.451   2.902   5.816 -0.1252 -0.0692  0.4149
19860TIP3    H181071   4.516   2.875   5.881 -0.0619  1.2673  0.9447
19860TIP3    H281072   4.489   2.979   5.775 -0.3599 -0.6442 -0.9335
19861TIP3   OH281073   2.592   5.095  12.753  0.5697  0.0360  0.5021
19861TIP3    H181074   2.612   5.102  12.659  1.0289 -0.0592  0.5890
19861TIP3    H281075   2.678   5.100  12.795  0.4151 -0.5041  0.8853
19862TIP3   OH281076   6.688   4.542   4.959 -0.0620 -0.3012  0.1446
19862TIP3    H181077   6.710   4.591   5.038  0.4594  1.2391 -0.8954
19862TIP3    H281078   6.622   4.596   4.915 -1.3824 -1.8165  0.1746
19863TIP3   OH281079   2.986   4.651  11.801 -0.5312  0.2876 -0.6307
19863TIP3    H181080   3.082   4.652  11.799 -0.5385  1.1015 -1.0485
19863TIP3    H281081   2.965   4.597  11.878  0.2288 -1.5343 -1.6295
19864TIP3   OH281082   1.187   4.957  12.881 -0.2790 -0.1663  0.1370
19864TIP3    H181083   1.279   4.957  12.856  0.0030  2.0802  0.9411
19864TIP3    H281084   1.186   4.922  12.970 -0.4719 -1.9245 -0.5220
19865TIP3   OH281085   3.572   2.091   5.455 -0.0017  0.5070 -0.3662
19865TIP3    H181086   3.556   2.045   5.373 -0.8076  0.7881 -0.3843
19865TIP3    H281087   3.544   2.029   5.523 -0.2961  0.6474 -0.3556
19866TIP3   OH281088   6.546   1.642   5.838 -0.3145 -0.0677 -0.7565
19866TIP3    H181089   6.503   1.688   5.766  0.7002  1.1383 -0.6174
19866TIP3    H281090   6.545   1.704   5.911 -0.4389 -0.9062 -0.0214
19867TIP3   OH281091   5.357   3.259  12.377  0.5273 -0.7131 -0.3595
19867TIP3    H181092   5.289   3.299  12.323  0.5548 -1.2088 -0.7780
19867TIP3    H281093   5.364   3.170  12.343 -0.0056 -1.3040  0.9686
19868TIP3   OH281094   2.837   2.010  14.084 -0.0935  0.4072  0.3081
19868TIP3    H181095   2.841   2.092  14.033  1.5273 -0.4099 -0.9830
19868TIP3    H281096   2.782   1.952  14.031  0.7430 -0.1100 -0.0043
19869TIP3   OH281097   1.259   3.927  13.352  0.7067  0.2007  0.1696
19869TIP3    H181098   1.313   3.864  13.303  0.7648 -0.1155  0.6329
19869TIP3    H281099   1.309   4.009  13.349  1.1686 -0.0666  0.5135
19870TIP3   OH281100   5.102   3.773  15.400  0.0700  0.2393 -0.4494
19870TIP3    H181101   5.025   3.758  15.344  0.5159 -2.4248 -0.4736
19870TIP3    H281102   5.065   3.798  15.484 -0.9363 -1.8597 -0.2113
19871TIP3   OH281103   0.737   4.010  11.038  0.4031 -0.1017  0.5422
19871TIP3    H181104   0.775   3.922  11.034 -0.1041 -0.2729 -1.6381
19871TIP3    H281105   0.785   4.060  10.973  0.3552  1.1330  1.4258
19872TIP3   OH281106   2.975   6.169  14.462 -0.6768 -0.0643  0.2659
19872TIP3    H181107   2.913   6.212  14.522  0.1384 -1.5011  2.2469
19872TIP3    H281108   3.058   6.213  14.478 -0.4294 -0.5358  0.3034
19873TIP3   OH281109   6.216   4.157  13.531 -0.1554  0.1228 -0.0207
19873TIP3    H181110   6.169   4.087  13.574 -1.3415  0.8353 -0.1055
19873TIP3    H281111   6.263   4.202  13.602 -1.7128  0.9976  0.5057
19874TIP3   OH281112   3.970   1.981   5.860  1.1256 -0.5094  0.4099
19874TIP3    H181113   4.064   1.976   5.873  0.9871 -1.0733  1.2617
19874TIP3    H281114   3.959   2.042   5.787  2.1593 -0.7057  0.0774
19875TIP3   OH281115   6.820   2.284  15.520 -0.1471 -0.3673 -0.1468
19875TIP3    H181116   6.833   2.371  15.482  0.8471  0.8515  2.6629
19875TIP3    H281117   6.889   2.231  15.481  0.7981  0.7861 -0.1255
19876TIP3   OH281118   6.192   4.693  11.079  0.4538  0.0233 -0.6100
19876TIP3    H181119   6.208   4.786  11.094 -0.3387  0.2107 -0.8855
19876TIP3    H281120   6.102   4.689  11.046 -0.0803 -0.9671  0.8562
19877TIP3   OH281121   4.975   5.516  15.326 -0.3917 -0.6711  0.2334
19877TIP3    H181122   4.998   5.467  15.405 -0.4725 -1.1793 -0.0551
19877TIP3    H281123   4.887   5.548  15.343 -0.5963 -1.1795  0.1626
19878TIP3   OH281124   4.867   3.856  17.111 -0.6373 -0.2253  0.3123
19878TIP3    H181125   4.794   3.824  17.165 -1.8644  1.8498 -0.0124
19878TIP3    H281126   4.826   3.881  17.028  0.4890  0.6598 -0.0011
19879TIP3   OH281127   6.285   2.203   2.073 -0.1407  0.5762 -0.5272
19879TIP3    H181128   6.208   2.163   2.032 -1.3847  1.3337  0.9512
19879TIP3    H281129   6.298   2.153   2.153  1.0055  0.3766 -0.8293
19880TIP3   OH281130   3.254   1.949  15.854  0.4234  0.1734  0.0824
19880TIP3    H181131   3.322   2.012  15.876  1.8909 -1.3605  0.1996
19880TIP3    H281132   3.196   1.948  15.930  1.5660 -0.1091  0.9863
19881TIP3   OH281133   2.467   3.204  16.909  0.0465  0.6603 -0.5123
19881TIP3    H181134   2.471   3.182  16.816 -1.3114  2.7610 -1.1489
19881TIP3    H281135   2.376   3.187  16.934 -0.1676  2.1471 -0.1842
19882TIP3   OH281136   5.025   0.526   4.623 -0.0219 -0.7598  0.0315
19882TIP3    H181137   5.038   0.432   4.610  0.3736 -0.7579  0.3838
19882TIP3    H281138   5.038   0.540   4.717 -0.8442 -0.4688  0.1049
19883TIP3   OH281139   1.179   0.064  12.494 -0.3104  0.2258 -0.2473
19883TIP3    H181140   1.111   0.086  12.430  0.6043  0.2103 -1.2604
19883TIP3    H281141   1.232   0.143  12.503 -0.0045  0.0072 -0.0621
19884TIP3   OH281142   3.854   5.221   0.340 -0.2924  0.2494 -0.3417
19884TIP3    H181143   3.950   5.215   0.344 -0.3645 -0.2875  1.7309
19884TIP3    H281144   3.829   5.158   0.272  0.7857 -0.1687 -0.3729
19885TIP3   OH281145   2.597   0.077  10.847  0.3093 -0.4234  0.5789
19885TIP3    H181146   2.620   0.163  10.882 -1.8252  0.4594 -0.0036
19885TIP3    H281147   2.534   0.095  10.777 -0.5634 -2.4731  0.7430
19886TIP3   OH281148   6.724   5.622  12.302 -0.4001 -0.0562  0.5240
19886TIP3    H181149   6.718   5.704  12.254  1.6834  0.3905  0.9173
19886TIP3    H281150   6.653   5.626  12.367 -0.9509  0.9542 -0.1179
19887TIP3   OH281151   0.743   6.204   5.975  0.3996  0.9379 -0.3336
19887TIP3    H181152   0.790   6.158   6.044 -0.2108  0.6559 -0.1000
19887TIP3    H281153   0.795   6.189   5.896  0.7678  0.7408 -0.0533
19888TIP3   OH281154   0.006   5.538   3.376  0.1384  0.1720 -0.2362
19888TIP3    H181155  -0.064   5.570   3.434  1.5760  2.1879  0.5070
19888TIP3    H281156  -0.039   5.485   3.311 -1.9538  0.5447  0.8284
19889TIP3   OH281157   5.685   0.310   5.516 -0.0936 -0.3550  0.3499
19889TIP3    H181158   5.631   0.364   5.459 -0.4909 -0.8818  0.2195
19889TIP3    H281159   5.680   0.222   5.478 -0.2170 -0.6765  1.0845
19890TIP3   OH281160   2.435   6.718  11.843  0.0817 -0.2099  0.6420
19890TIP3    H181161   2.366   6.736  11.907 -2.6867 -1.2460 -1.8386
19890TIP3    H281162   2.436   6.795  11.786  0.2796 -0.6298  0.0740
19891TIP3   OH281163   4.461   1.374   2.887 -0.0636 -0.2734  0.4612
19891TIP3    H181164   4.373   1.338   2.898 -0.5225  1.0331  1.3034
19891TIP3    H281165   4.519   1.306   2.921 -0.4997 -2.2551 -2.4113
19892TIP3   OH281166   6.380   2.648   1.591 -0.2292  0.0548 -0.6972
19892TIP3    H181167   6.437   2.672   1.519  1.7881 -0.5480  0.6008
19892TIP3    H281168   6.314   2.717   1.595  1.3407  1.6621 -1.3007
19893TIP3   OH281169   0.818   6.276  14.288  0.2612 -0.1803 -0.0494
19893TIP3    H181170   0.770   6.246  14.210 -1.3484  0.7978  0.5158
19893TIP3    H281171   0.755   6.330  14.335  0.9456 -1.3779  2.3725
19894TIP3   OH281172   5.051   4.661   0.492  0.0156  0.0865  0.0955
19894TIP3    H181173   5.134   4.631   0.454 -0.6644 -1.1665 -0.4656
19894TIP3    H281174   5.077   4.715   0.566  1.3567  1.4411 -1.2983
19895TIP3   OH281175   4.145   1.366   3.897 -0.2166  0.0842  0.3588
19895TIP3    H181176   4.060   1.336   3.928  0.1834  3.1444  5.6604
19895TIP3    H281177   4.204   1.292   3.911 -1.4159 -1.1208 -0.6826
19896TIP3   OH281178   4.312   2.432   5.931  0.4442 -0.0836  0.0351
19896TIP3    H181179   4.251   2.364   5.902  0.4609 -1.0068  2.0213
19896TIP3    H281180   4.353   2.463   5.850 -2.1635  0.1368 -1.3444
19897TIP3   OH281181   2.949   0.610   1.565  0.5501  0.0697  0.0414
19897TIP3    H181182   2.947   0.530   1.617 -1.1566  0.2578  0.3177
19897TIP3    H281183   2.904   0.587   1.483  0.7536  0.5391 -0.2088
19898TIP3   OH281184   0.607   0.639   5.123  0.3681 -0.1653 -0.3793
19898TIP3    H181185   0.539   0.674   5.066  1.0878 -1.4581 -2.1440
19898TIP3    H281186   0.688   0.679   5.092  0.5876  0.5279  0.9928
19899TIP3   OH281187   5.613   0.141  14.156 -0.5384  0.0131 -0.1663
19899TIP3    H181188   5.538   0.132  14.098 -2.2816 -1.3215  2.0879
19899TIP3    H281189   5.624   0.235  14.169 -0.7383  0.2772 -1.8017
19900TIP3   OH281190   0.177   3.275  11.862 -0.1190 -1.0295 -0.0402
19900TIP3    H181191   0.119   3.345  11.832 -1.3795 -1.2816  1.6355
19900TIP3    H281192   0.162   3.270  11.957  2.7931 -0.9970  0.5455
19901TIP3   OH281193   5.209   2.429  15.888  0.6519 -0.6541  0.5869
19901TIP3    H181194   5.296   2.462  15.866 -0.0865  0.6086 -0.5570
19901TIP3    H281195   5.208   2.340  15.852  0.7852  0.0418 -1.2408
19902TIP3   OH281196   0.854   1.656  12.830  0.3871 -0.0246  0.2377
19902TIP3    H181197   0.801   1.731  12.858  0.4556  0.2613 -0.3725
19902TIP3    H281198   0.943   1.680  12.855  0.3048 -0.2719  0.7860
19903TIP3   OH281199   1.509   5.459   0.141 -0.0074 -0.0236  0.3473
19903TIP3    H181200   1.447   5.403   0.094  1.7173 -2.6346  0.9192
19903TIP3    H281201   1.548   5.401   0.206  2.3134  1.7334  0.6528
19904TIP3   OH281202   2.949   1.034  10.987  0.3445 -0.3198 -0.4249
19904TIP3    H181203   2.987   1.113  11.025  1.8321 -0.9757 -0.4857
19904TIP3    H281204   2.899   0.994  11.058  0.2979  0.2254 -0.1490
19905TIP3   OH281205   1.143   2.136   0.737  0.0425  0.0132 -0.0622
19905TIP3    H181206   1.180   2.211   0.784  0.4175 -0.7850  0.9605
19905TIP3    H281207   1.068   2.110   0.791 -0.5178  0.0825 -0.7961
19906TIP3   OH281208   1.461   5.689  15.979 -0.3022 -0.1466 -0.1637
19906TIP3    H181209   1.391   5.666  15.918 -0.6283 -2.4769  0.9933
19906TIP3    H281210   1.527   5.620  15.968  0.2607  0.1476  1.1548
19907TIP3   OH281211   4.521   0.003  11.020  0.1481  0.0797  0.2712
19907TIP3    H181212   4.494   0.043  10.938 -1.2033 -0.6877  0.3161
19907TIP3    H281213   4.600  -0.045  10.999  0.3670  0.6966 -0.3501
19908TIP3   OH281214   5.102   5.125  13.213 -0.0958  0.6891  0.3723
19908TIP3    H181215   5.189   5.086  13.196 -1.0346 -2.3522  1.8283
19908TIP3    H281216   5.075   5.159  13.128  1.5022 -0.5522 -0.7030
19909TIP3   OH281217   3.835   1.091  15.188 -0.1310 -0.1579  0.0688
19909TIP3    H181218   3.742   1.111  15.178 -0.7073 -1.2686  2.4058
19909TIP3    H281219   3.879   1.154  15.132 -2.2835  0.3463 -1.1788
19910TIP3   OH281220   4.664   5.766  14.488 -0.3768  0.2023 -0.7208
19910TIP3    H181221   4.706   5.783  14.573 -2.1096 -0.1479  0.2689
19910TIP3    H281222   4.691   5.839  14.433  0.2741  0.8004  0.3423
19911TIP3   OH281223   3.230   4.712   3.087  0.7264 -0.1369  0.3906
19911TIP3    H181224   3.288   4.637   3.081 -0.9475 -1.5128  0.6091
19911TIP3    H281225   3.210   4.721   3.180  0.8941  0.5701  0.3656
19912TIP3   OH281226   1.591   5.676  13.026  0.1104  0.1412  0.0116
19912TIP3    H181227   1.567   5.671  12.934 -1.2075 -1.6796  0.3999
19912TIP3    H281228   1.529   5.738  13.064  0.9232  1.2129 -0.3839
19913TIP3   OH281229   6.775   1.580   4.722  0.5799  0.1180  0.5198
19913TIP3    H181230   6.691   1.561   4.764  0.8240  2.1670  2.1011
19913TIP3    H281231   6.758   1.657   4.667  1.0304 -0.5515 -0.5942
19914TIP3   OH281232   2.594   2.414   4.485  0.1127 -0.0851  0.5911
19914TIP3    H181233   2.499   2.409   4.494  0.0084 -1.2229 -0.8350
19914TIP3    H281234   2.609   2.489   4.427 -0.1018 -1.3416 -1.1608
19915TIP3   OH281235   6.355   6.373   0.838 -0.1079 -0.1960 -0.1247
19915TIP3    H181236   6.325   6.365   0.929 -1.3413 -0.5524 -0.5437
19915TIP3    H281237   6.426   6.310   0.831 -2.2314 -2.7211 -0.2802
19916TIP3   OH281238   4.994   2.682   6.048  0.0068  0.4564 -0.2275
19916TIP3    H181239   4.956   2.709   5.964  1.7666 -0.4940 -1.3889
19916TIP3    H281240   4.946   2.602   6.071  0.3497  0.0217 -0.9836
19917TIP3   OH281241   5.086   5.214   1.414  0.5132  0.0687 -0.8186
19917TIP3    H181242   5.086   5.146   1.481  2.2208 -1.6587 -2.4438
19917TIP3    H281243   5.133   5.287   1.455  0.4121 -0.4719  0.3006
19918TIP3   OH281244   2.377   2.001  14.210 -0.3891  0.2545  0.3687
19918TIP3    H181245   2.298   1.949  14.193 -0.5550  0.8722 -0.7872
19918TIP3    H281246   2.404   2.033  14.124  1.5203 -0.4887  0.6463
19919TIP3   OH281247   4.624   0.170  16.521 -0.8568  0.2388  0.1063
19919TIP3    H181248   4.615   0.193  16.613 -0.9898 -0.2012  0.2002
19919TIP3    H281249   4.576   0.239  16.475 -0.2471  0.8298  0.3215
19920TIP3   OH281250   5.182   1.868   2.820  0.1119  0.0313  0.0306
19920TIP3    H181251   5.100   1.847   2.774  0.0215  1.4515 -0.5172
19920TIP3    H281252   5.158   1.939   2.880  0.6056 -0.6611  1.0706
19921TIP3   OH281253   4.007   0.865  12.725 -0.0980  0.2464  0.4377
19921TIP3    H181254   4.005   0.795  12.660  1.2839 -0.2956  0.9541
19921TIP3    H281255   4.065   0.833  12.794 -0.0069  1.6048  1.0288
19922TIP3   OH281256   4.146   2.996  16.517  0.1188  0.1738 -0.2470
19922TIP3    H181257   4.108   2.935  16.454  0.3222  1.5027 -1.7220
19922TIP3    H281258   4.183   3.066  16.463  0.1734  1.4397  1.3598
19923TIP3   OH281259   4.097   5.513  14.705 -0.1810 -0.0402 -1.2059
19923TIP3    H181260   4.014   5.503  14.752  0.2990  0.6337 -0.1859
19923TIP3    H281261   4.073   5.548  14.620 -0.9155  0.6579 -0.7249
19924TIP3   OH281262   6.093   0.235  12.716  0.2872 -0.6072  0.3849
19924TIP3    H181263   6.022   0.268  12.771  0.1312 -0.6203  0.1911
19924TIP3    H281264   6.051   0.171  12.659  0.3979 -0.3851  0.0533
19925TIP3   OH281265   1.942   5.570   1.965 -0.3491  0.1216 -0.0060
19925TIP3    H181266   1.982   5.576   2.051  1.6744 -0.8137 -0.8181
19925TIP3    H281267   1.882   5.496   1.972  0.4537 -0.5118  0.3879
19926TIP3   OH281268   0.839   0.392   0.722 -0.6059 -0.3036  0.1257
19926TIP3    H181269   0.800   0.474   0.693  0.0763 -0.0279 -0.0203
19926TIP3    H281270   0.857   0.406   0.815 -0.7137 -0.3761  0.1577
19927TIP3   OH281271   3.663   2.078  16.731  0.3027 -0.5619 -0.1982
19927TIP3    H181272   3.652   2.021  16.655 -0.2880 -0.7608  0.0374
19927TIP3    H281273   3.717   2.027  16.792 -0.2532 -0.8905  0.0272
19928TIP3   OH281274   6.317   4.509  13.221  0.2528  0.4445  0.4526
19928TIP3    H181275   6.381   4.579  13.212  1.2508 -0.5764 -0.8495
19928TIP3    H281276   6.352   4.437  13.168 -1.4523 -0.5343  0.5668
19929TIP3   OH281277   5.196   6.585  12.281 -0.2379  0.1713 -0.8106
19929TIP3    H181278   5.123   6.541  12.239 -0.1504 -0.1288 -0.6509
19929TIP3    H281279   5.163   6.673  12.301 -1.1229 -0.4853  0.7753
19930TIP3   OH281280   6.828   3.260   3.411  0.1260  0.4387 -0.2968
19930TIP3    H181281   6.774   3.300   3.343  0.7764  1.6196 -0.1246
19930TIP3    H281282   6.830   3.324   3.482  1.5729  0.3070 -0.2007
19931TIP3   OH281283   3.453   6.299  14.883 -0.0879  0.6018 -0.4389
19931TIP3    H181284   3.386   6.241  14.847  1.2515  0.5829 -3.1646
19931TIP3    H281285   3.457   6.276  14.976 -0.3585 -2.9651 -1.1673
19932TIP3   OH281286   5.811   3.389   1.936  0.8475 -0.5354 -0.5165
19932TIP3    H181287   5.765   3.325   1.990  1.3615 -1.2191 -0.8703
19932TIP3    H281288   5.895   3.401   1.981  0.6151  0.1536 -0.2653
19933TIP3   OH281289   3.103   5.155  15.459 -0.2300  0.2247 -0.0545
19933TIP3    H181290   3.063   5.226  15.509  0.2394  0.5896 -0.1917
19933TIP3    H281291   3.083   5.175  15.368 -3.1627 -1.6882  0.0280
19934TIP3   OH281292   2.734   4.524   0.000 -0.4123  0.3323  0.0223
19934TIP3    H181293   2.707   4.580  -0.073 -1.7145  0.5751  0.6592
19934TIP3    H281294   2.788   4.581   0.055 -0.1226  0.3890 -0.3165
19935TIP3   OH281295   2.650   6.610   0.907 -0.1342  0.0653  0.2883
19935TIP3    H181296   2.568   6.575   0.941  0.1940 -0.6487  0.3583
19935TIP3    H281297   2.667   6.687   0.960 -0.3732 -0.2200  0.7834
19936TIP3   OH281298   1.159   2.780  14.066  0.3952 -0.8376  0.6620
19936TIP3    H181299   1.248   2.795  14.098  0.7388  1.2381 -1.0367
19936TIP3    H281300   1.132   2.864  14.029 -1.2033 -2.1358 -1.3585
19937TIP3   OH281301   2.141   0.372  14.626 -0.1775  0.1551  0.2202
19937TIP3    H181302   2.194   0.315  14.682 -0.2020 -0.7688 -0.6638
19937TIP3    H281303   2.120   0.317  14.551 -0.5712  1.2114 -0.4491
19938TIP3   OH281304   1.049   5.546   3.948 -0.1573  0.7170 -0.9508
19938TIP3    H181305   1.030   5.453   3.957  2.0437  0.2486 -0.5113
19938TIP3    H281306   1.010   5.586   4.025 -0.7480  0.0972 -0.9197
19939TIP3   OH281307   3.809   6.511   3.274  0.2127  0.4970 -0.5494
19939TIP3    H181308   3.788   6.490   3.365  1.8674  3.4992  0.6812
19939TIP3    H281309   3.847   6.430   3.239  0.9608 -0.3295  1.9396
19940TIP3   OH281310   1.055   1.770  14.034  0.1349 -0.3502 -0.1960
19940TIP3    H181311   0.967   1.742  14.059 -0.2313  0.7440 -0.2068
19940TIP3    H281312   1.056   1.763  13.938 -0.2442  0.4609 -0.2669
19941TIP3   OH281313   3.508   0.575  15.214 -0.0927  0.1220 -0.0592
19941TIP3    H181314   3.480   0.632  15.286  3.0700  3.8316 -1.4209
19941TIP3    H281315   3.572   0.515  15.254  0.8082  1.3987  0.4763
19942TIP3   OH281316   3.560   4.794   3.991 -0.0654 -0.1245 -0.3628
19942TIP3    H181317   3.489   4.793   3.926  0.9362  0.2508 -1.4825
19942TIP3    H281318   3.546   4.713   4.041 -1.3755  0.0187 -0.4406
19943TIP3   OH281319   2.386   3.004  16.562  0.1115  0.4404  0.3153
19943TIP3    H181320   2.340   3.002  16.645 -0.1103  1.7564  0.2297
19943TIP3    H281321   2.391   3.096  16.538  1.9549  0.2714 -0.1467
19944TIP3   OH281322   6.012   4.293  10.781 -0.4231  0.7617 -0.3421
19944TIP3    H181323   5.999   4.349  10.858 -1.3048 -0.5051  0.4653
19944TIP3    H281324   6.103   4.308  10.756 -0.1720  1.3438  0.8314
19945TIP3   OH281325   4.017   3.417  12.159 -0.0697  0.2776  0.0472
19945TIP3    H181326   3.975   3.440  12.076 -1.0680 -0.6779  0.2631
19945TIP3    H281327   4.019   3.321  12.159  1.9128  0.2888  0.1650
19946TIP3   OH281328   2.724   4.208  11.178  0.1856 -0.4113  0.1399
19946TIP3    H181329   2.682   4.125  11.203  0.0431 -0.4303 -0.1582
19946TIP3    H281330   2.780   4.185  11.104  0.0208 -0.2101 -0.0483
19947TIP3   OH281331   2.884   6.019   2.882 -0.6064 -0.1883  0.2358
19947TIP3    H181332   2.890   5.987   2.972 -0.1933 -2.4732 -0.5317
19947TIP3    H281333   2.790   6.016   2.862 -0.7836  1.0316  0.7863
19948TIP3   OH281334   0.228   3.984  13.015 -0.3059 -0.1673  0.0860
19948TIP3    H181335   0.203   3.930  13.090  1.6153 -0.1921  0.7508
19948TIP3    H281336   0.247   4.070  13.053 -0.4647  0.1608 -0.5617
19949TIP3   OH281337   0.235   0.428   3.080  0.0166 -0.5952  0.1927
19949TIP3    H181338   0.220   0.520   3.058 -0.5818 -0.6013  0.5776
19949TIP3    H281339   0.148   0.389   3.083  0.1575 -0.8280  1.5536
19950TIP3   OH281340   4.898   2.738   4.227 -0.1609 -0.1881 -0.2434
19950TIP3    H181341   4.954   2.812   4.204  1.1904 -1.2409 -0.4919
19950TIP3    H281342   4.809   2.773   4.224  0.4651  1.5022  0.0179
19951TIP3   OH281343   1.832   0.517   4.955 -0.3629  0.1150  0.1012
19951TIP3    H181344   1.748   0.539   4.915 -0.1606  3.1976  1.0780
19951TIP3    H281345   1.895   0.527   4.883 -0.5166  0.8821  0.0636
19952TIP3   OH281346   0.802   2.499   4.474  0.0903  0.5232  0.6844
19952TIP3    H181347   0.895   2.514   4.457 -0.1812  0.2297 -1.3397
19952TIP3    H281348   0.786   2.410   4.443 -1.3142  1.3931 -1.3808
19953TIP3   OH281349   3.527   4.525   4.092 -0.4391 -0.1473  0.2998
19953TIP3    H181350   3.516   4.530   3.997 -2.1490  0.8511  0.5099
19953TIP3    H281351   3.474   4.450   4.119  0.8934 -1.1009  0.3951
19954TIP3   OH281352   0.234   2.751   0.696 -0.2176 -0.2439 -0.0063
19954TIP3    H181353   0.195   2.801   0.624  2.2814  1.4366 -0.3321
19954TIP3    H281354   0.313   2.712   0.658  1.3372  0.9404  1.8387
19955TIP3   OH281355   1.018   4.494   4.119 -0.7547  0.2701 -0.2582
19955TIP3    H181356   1.073   4.569   4.141  0.1537 -0.2355 -0.7298
19955TIP3    H281357   1.064   4.450   4.048 -1.9389 -0.0087 -0.8768
19956TIP3   OH281358   0.512   5.566  16.958 -0.8387  0.2049  0.3678
19956TIP3    H181359   0.487   5.576  16.866  0.2765 -0.2674 -0.0010
19956TIP3    H281360   0.436   5.598  17.007 -1.3455  0.7093 -0.7134
19957TIP3   OH281361   3.661   1.784   1.131  0.5137 -0.4543 -0.8967
19957TIP3    H181362   3.681   1.728   1.056  1.3673  2.0858 -2.7201
19957TIP3    H281363   3.744   1.792   1.179 -0.1026 -2.3188  0.5804
19958TIP3   OH281364   0.687   4.828  12.961  0.4613  0.1306 -0.1885
19958TIP3    H181365   0.690   4.839  13.056 -0.2752 -1.6565  0.0678
19958TIP3    H281366   0.779   4.822  12.934  0.7694  2.4746  0.1226
19959TIP3   OH281367   0.115   5.586   1.379 -0.4319  0.0322 -0.0757
19959TIP3    H181368   0.144   5.505   1.422  0.6271  0.6175  0.3443
19959TIP3    H281369   0.152   5.581   1.291 -1.8825 -0.7591 -0.6904
19960TIP3   OH281370   1.781   3.620  16.510  0.0584 -0.4649 -0.1207
19960TIP3    H181371   1.743   3.559  16.574 -0.8848  0.4547  0.2250
19960TIP3    H281372   1.708   3.677  16.485  0.7023 -0.0626 -1.1353
19961TIP3   OH281373   1.714   4.963  14.922  0.1401 -0.3321 -0.5976
19961TIP3    H181374   1.729   5.053  14.893 -0.9625  0.2790  0.6167
19961TIP3    H281375   1.792   4.939  14.972  1.1961 -0.7057 -2.3213
19962TIP3   OH281376   1.150   3.603  11.753 -0.0881  0.1644  0.0257
19962TIP3    H181377   1.158   3.519  11.709  2.6481  1.0030 -1.3033
19962TIP3    H281378   1.213   3.599  11.825  0.8783  1.3948 -0.7058
19963TIP3   OH281379   0.128   0.584  17.070  0.7218 -1.1441  0.3723
19963TIP3    H181380   0.090   0.526  17.004  0.8495 -1.3982  0.5247
19963TIP3    H281381   0.214   0.608  17.035  0.3645 -0.4385 -0.0491
19964TIP3   OH281382   5.444   1.425  14.978  0.5977  0.1605 -0.3594
19964TIP3    H181383   5.368   1.406  14.922  0.2988 -1.8437  0.6585
19964TIP3    H281384   5.467   1.515  14.956 -0.6157  0.0424 -2.4012
19965TIP3   OH281385   3.342   0.049   2.717 -0.4367  0.2058 -0.4514
19965TIP3    H181386   3.342   0.133   2.762  0.5587  1.5734 -2.8086
19965TIP3    H281387   3.275   0.057   2.650 -0.8511 -1.1942 -0.2430
19966TIP3   OH281388   2.806   2.147   4.898  0.8294  1.0718 -0.0084
19966TIP3    H181389   2.891   2.189   4.884  1.1021  1.5824  2.7542
19966TIP3    H281390   2.826   2.065   4.941  0.0294 -0.1781 -1.8809
19967TIP3   OH281391   0.308   6.017   4.841  0.5304  0.6032 -0.1802
19967TIP3    H181392   0.231   5.988   4.792  0.4567  1.6105 -0.6808
19967TIP3    H281393   0.343   5.937   4.880 -0.8286  0.1388  0.1413
19968TIP3   OH281394   3.209   1.397   3.908  0.0202 -0.1227  0.3438
19968TIP3    H181395   3.286   1.362   3.953  1.2498  0.0917 -1.4665
19968TIP3    H281396   3.229   1.386   3.815 -1.7495  0.7938 -0.1896
19969TIP3   OH281397   6.324   6.172   5.825 -0.2778  0.3216 -0.5993
19969TIP3    H181398   6.367   6.133   5.901 -0.4649  1.4899  0.1198
19969TIP3    H281399   6.258   6.108   5.800  0.0939 -0.2828 -0.0712
19970TIP3   OH281400   6.236   6.139  15.151 -0.3166  0.4794 -0.6256
19970TIP3    H181401   6.205   6.184  15.073 -1.3378 -2.0705 -1.8086
19970TIP3    H281402   6.316   6.094  15.124 -0.8023 -0.6143 -0.3217
19971TIP3   OH281403   0.270   0.693  14.747 -0.1233 -0.4902 -1.1654
19971TIP3    H181404   0.219   0.733  14.677 -1.5420 -1.1875 -0.5505
19971TIP3    H281405   0.304   0.768  14.797 -0.8205 -0.0258 -1.3763
19972TIP3   OH281406   6.124   2.796   1.642  0.0086  0.7693 -0.0446
19972TIP3    H181407   6.140   2.850   1.565 -1.4387  0.4395 -0.6056
19972TIP3    H281408   6.040   2.753   1.625  1.4714 -2.3422  0.0158
19973TIP3   OH281409   1.454   5.045  16.417  0.5745 -0.5356 -0.3293
19973TIP3    H181410   1.457   4.960  16.373 -0.3094 -1.4509  1.3155
19973TIP3    H281411   1.537   5.087  16.393  0.9242 -1.7546 -1.3443
19974TIP3   OH281412   1.873   3.975  13.753 -0.0350  0.4050 -0.4674
19974TIP3    H181413   1.918   3.934  13.679  0.5249  1.8801 -0.9746
19974TIP3    H281414   1.944   4.010  13.807 -0.4591 -0.3197  0.5808
19975TIP3   OH281415   5.217   1.551  10.985 -0.4690 -0.3552 -0.3496
19975TIP3    H181416   5.206   1.642  10.961 -0.3780 -0.3450 -0.3542
19975TIP3    H281417   5.240   1.506  10.904 -1.2242 -0.5094 -0.4866
19976TIP3   OH281418   6.247   3.591   4.810 -0.3620  0.1884  0.8756
19976TIP3    H181419   6.251   3.594   4.714  0.8335  0.1511  0.9166
19976TIP3    H281420   6.192   3.666   4.834 -1.6027 -0.4375  0.1233
19977TIP3   OH281421   1.110   4.336  12.176  0.4829  0.1077  0.3476
19977TIP3    H181422   1.162   4.417  12.180  0.3027  0.2017  0.9232
19977TIP3    H281423   1.170   4.268  12.207  0.2866  0.2123  0.9877
19978TIP3   OH281424   1.154   3.892  11.703 -0.1909 -0.3083 -0.3629
19978TIP3    H181425   1.085   3.903  11.638  0.4030  0.0463 -0.9586
19978TIP3    H281426   1.153   3.798  11.724  0.3886 -0.6846 -1.8135
19979TIP3   OH281427   5.998   2.596  10.200 -0.8898  0.1030 -0.2844
19979TIP3    H181428   6.007   2.516  10.149 -1.7736  0.8438 -1.6924
19979TIP3    H281429   5.939   2.573  10.271 -2.4152 -0.1529 -1.5694
19980TIP3   OH281430   2.502   5.203   5.001 -0.4979 -0.0293 -0.5541
19980TIP3    H181431   2.530   5.115   5.026 -1.5950 -0.0418  0.7037
19980TIP3    H281432   2.555   5.223   4.923 -1.1596 -2.3067 -1.6742
19981TIP3   OH281433   0.442   0.371  14.055 -0.0142  0.2956  0.4118
19981TIP3    H181434   0.350   0.391  14.067 -0.5928 -0.8727 -1.5804
19981TIP3    H281435   0.447   0.275  14.064  1.1708  0.4189  1.3456
19982TIP3   OH281436   5.001   2.296  16.479  0.1448  0.3774  0.2979
19982TIP3    H181437   5.053   2.326  16.553  2.2939 -0.7850 -0.6530
19982TIP3    H281438   5.044   2.332  16.402  0.6225 -1.9962 -0.6359
19983TIP3   OH281439   3.714   0.038  12.790  0.1951 -0.1133  0.0248
19983TIP3    H181440   3.699  -0.052  12.819 -1.1562  0.0396 -0.1448
19983TIP3    H281441   3.705   0.091  12.869  0.5497 -0.0785  0.0437
19984TIP3   OH281442   5.782   6.221   3.162  0.7354  0.1672  0.5962
19984TIP3    H181443   5.865   6.176   3.145  0.7180 -0.3028  1.6845
19984TIP3    H281444   5.791   6.256   3.251 -0.6142 -0.7926  1.1498
19985TIP3   OH281445   1.080   3.053  11.856  0.0230 -0.1274  0.5701
19985TIP3    H181446   1.162   3.015  11.888  1.9647  1.7436 -1.7870
19985TIP3    H281447   1.057   3.000  11.780  0.1928  0.5600  0.0306
19986TIP3   OH281448   3.635   1.556   4.507 -0.1860  0.3270  1.0841
19986TIP3    H181449   3.554   1.606   4.508 -0.3284  0.1056  2.2022
19986TIP3    H281450   3.630   1.500   4.584 -0.8662 -2.8441 -1.0632
19987TIP3   OH281451   4.020   3.135   2.963  0.5440  0.1542  0.9787
19987TIP3    H181452   4.104   3.179   2.949 -0.7084  1.6909 -3.3657
19987TIP3    H281453   4.023   3.057   2.907 -0.5494 -0.3768  1.6132
19988TIP3   OH281454   1.206   2.554   2.203  0.1950 -0.1893 -0.4081
19988TIP3    H181455   1.290   2.526   2.239 -0.6046 -2.0259  0.1847
19988TIP3    H281456   1.202   2.513   2.117 -0.1360 -0.1751 -0.4000
19989TIP3   OH281457   6.607   0.701   4.935 -0.1099  0.1563 -0.3383
19989TIP3    H181458   6.527   0.671   4.892 -0.2664  0.3043 -0.1504
19989TIP3    H281459   6.578   0.768   4.997  0.2329  0.6887 -0.7451
19990TIP3   OH281460   0.054   4.459   3.323  0.1541  0.1909  1.8960
19990TIP3    H181461   0.106   4.537   3.345  1.4218  0.9721 -2.7508
19990TIP3    H281462   0.113   4.386   3.338  0.8641  0.6427  1.3931
19991TIP3   OH281463   6.410   6.140   2.281 -0.3045  0.1528  0.1009
19991TIP3    H181464   6.438   6.051   2.303  1.2273  1.0437  2.0064
19991TIP3    H281465   6.432   6.150   2.188  2.4631 -0.4558  0.6010
19992TIP3   OH281466   1.808   4.053   3.488 -0.0874  0.6850  0.3994
19992TIP3    H181467   1.823   3.964   3.519 -0.8819  0.6344  0.6564
19992TIP3    H281468   1.747   4.091   3.551  0.7748  1.6476  0.6786
19993TIP3   OH281469   0.635   3.844   1.853 -0.7508  0.2629  0.3807
19993TIP3    H181470   0.599   3.933   1.854 -1.2602  0.0673  1.7692
19993TIP3    H281471   0.691   3.842   1.776 -0.3710  1.9406  0.5732
19994TIP3   OH281472   1.230   5.581  12.775  0.3499  0.0527  0.6256
19994TIP3    H181473   1.167   5.555  12.708 -0.1336  1.6347  0.4281
19994TIP3    H281474   1.178   5.596  12.854  0.3684  1.7447  0.3621
19995TIP3   OH281475   0.586   6.429  12.002  0.1257 -0.4169 -0.0683
19995TIP3    H181476   0.612   6.502  12.059 -0.8095 -0.2587  0.1678
19995TIP3    H281477   0.563   6.471  11.919  0.6613 -0.5628 -0.2947
19996TIP3   OH281478   5.518   5.159   5.254  0.4189 -0.1353 -0.1454
19996TIP3    H181479   5.555   5.171   5.341 -0.8691 -0.1608  0.4387
19996TIP3    H281480   5.444   5.220   5.250 -2.1843 -2.9662  0.4366
19997TIP3   OH281481   6.179   4.199   3.613 -0.1004  0.1278 -0.3034
19997TIP3    H181482   6.145   4.285   3.640 -0.2072  0.1802 -0.6024
19997TIP3    H281483   6.274   4.210   3.616 -0.1021  0.0163  0.4226
19998TIP3   OH281484   6.230   3.913   3.152  0.1212 -0.4783  0.0310
19998TIP3    H181485   6.286   3.836   3.163  2.0219  0.5775 -1.5008
19998TIP3    H281486   6.255   3.971   3.225 -0.9229 -1.0351  0.8681
19999TIP3   OH281487   4.283   1.803   0.567 -0.1714  0.5981  0.2796
19999TIP3    H181488   4.362   1.751   0.582 -0.8605 -0.9628 -1.2849
19999TIP3    H281489   4.215   1.739   0.549 -2.0836  1.8577  2.5055
20000TIP3   OH281490   6.257   6.156   4.753  0.0900 -0.0046  0.0226
20000TIP3    H181491   6.213   6.131   4.672  1.1308  1.3815 -1.0100
20000TIP3    H281492   6.345   6.183   4.726  0.7454 -0.2977  1.7185
20001TIP3   OH281493   5.823   3.994   4.578  0.5007 -0.0118  0.1239
20001TIP3    H181494   5.750   4.010   4.519  0.4908  1.0421  0.4113
20001TIP3    H281495   5.896   3.971   4.521  0.2835  0.2190 -0.2483
20002TIP3   OH281496   3.560   1.693   0.444 -0.1686  0.2757 -0.1901
20002TIP3    H181497   3.561   1.768   0.503  1.0834 -0.4997  0.8301
20002TIP3    H281498   3.651   1.664   0.440 -0.4044 -0.3258 -1.6981
20003TIP3   OH281499   3.091   1.288  15.061  0.0520 -0.2869  0.0175
20003TIP3    H181500   3.183   1.314  15.052  0.4045 -1.7941 -1.2831
20003TIP3    H281501   3.042   1.370  15.067  1.2108  0.6407 -2.2277
20004TIP3   OH281502   6.467   4.439  12.625  0.8138 -0.2232  0.0407
20004TIP3    H181503   6.461   4.492  12.705  2.9246 -0.0282  0.1147
20004TIP3    H281504   6.485   4.351  12.656  1.1323 -0.2428 -0.1965
20005TIP3   OH281505   4.313   1.086   0.083  0.0184 -0.2765 -0.1113
20005TIP3    H181506   4.336   1.058  -0.006 -2.2695 -1.4229 -0.4185
20005TIP3    H281507   4.299   1.180   0.075  2.1811  0.0718 -0.3757
20006TIP3   OH281508   0.800   2.340   0.692 -0.2239  0.1909  0.2801
20006TIP3    H181509   0.881   2.381   0.722 -0.7476  0.5636  1.2259
20006TIP3    H281510   0.803   2.252   0.729  1.0345 -0.8069 -1.9828
20007TIP3   OH281511   6.839   2.566  16.096  0.0941 -0.3857  0.1549
20007TIP3    H181512   6.923   2.586  16.138 -0.1522  1.3367 -0.1112
20007TIP3    H281513   6.834   2.470  16.098  1.8513 -0.5108  0.5827
20008TIP3   OH281514   1.031   5.262   2.818 -0.4734 -0.0307 -0.6010
20008TIP3    H181515   1.070   5.347   2.837  0.9711 -0.2317 -2.4071
20008TIP3    H281516   0.951   5.283   2.770 -0.2423  0.3173 -0.8370
20009TIP3   OH281517   3.657   4.777  13.689 -0.1629 -0.1642  0.5070
20009TIP3    H181518   3.582   4.822  13.728 -0.8820  0.5419 -1.5509
20009TIP3    H281519   3.706   4.846  13.645  0.0610 -1.0376 -0.6464
20010TIP3   OH281520   5.537   0.478  12.279 -0.6106  0.3474  0.7299
20010TIP3    H181521   5.597   0.531  12.227  0.1638  0.5950  1.8488
20010TIP3    H281522   5.507   0.410  12.218  0.3451  0.5582 -0.0041
20011TIP3   OH281523   5.008   1.106  15.935 -0.0376 -0.1941  0.2135
20011TIP3    H181524   5.072   1.099  16.005 -0.1717 -1.1378  0.2490
20011TIP3    H281525   5.032   1.186  15.889 -0.2743  0.7547  1.6543
20012TIP3   OH281526   5.293   6.426   1.844  0.6071 -0.1401  0.2415
20012TIP3    H181527   5.251   6.371   1.910 -0.0167  0.0671  0.0244
20012TIP3    H281528   5.282   6.516   1.877  0.7445 -0.0735  0.1070
20013TIP3   OH281529   5.835   0.581  16.714  0.1557  0.6828 -0.1141
20013TIP3    H181530   5.764   0.601  16.776  0.6675  0.5295  0.5359
20013TIP3    H281531   5.804   0.615  16.630 -0.8237  0.3206  0.0938
20014TIP3   OH281532   0.123   5.772  14.429 -0.4765  0.0992  0.3658
20014TIP3    H181533   0.139   5.864  14.409  2.3634 -0.1547  1.0269
20014TIP3    H281534   0.134   5.766  14.524  4.1733 -1.5283  0.0008
20015TIP3   OH281535   3.274   6.361  12.244 -0.0115 -0.1663 -0.1788
20015TIP3    H181536   3.369   6.356  12.239  0.2301  2.6827 -0.2938
20015TIP3    H281537   3.251   6.433  12.185 -2.1903 -0.4686  0.2223
20016TIP3   OH281538   1.220   1.597  16.409 -0.5037  0.1853 -0.2485
20016TIP3    H181539   1.310   1.591  16.378  0.1836  1.1486  1.4361
20016TIP3    H281540   1.173   1.642  16.339  0.4332  0.1711 -0.9011
20017TIP3   OH281541   4.821   3.165   4.584  0.2262 -0.2049 -0.5479
20017TIP3    H181542   4.810   3.235   4.648  0.7550  1.7638 -2.5016
20017TIP3    H281543   4.736   3.157   4.541  0.3268 -0.3462 -0.7258
20018TIP3   OH281544   5.836   2.704   1.355 -0.0074  0.2379  0.0617
20018TIP3    H181545   5.842   2.687   1.261  0.0440  0.7954 -0.0419
20018TIP3    H281546   5.785   2.632   1.389 -1.1296  0.6935 -0.5940
20019TIP3   OH281547   3.336   6.629   3.732 -0.1326 -0.6514 -0.0343
20019TIP3    H181548   3.425   6.605   3.707  0.2591  0.1912  0.5051
20019TIP3    H281549   3.294   6.656   3.650 -0.5396 -2.9203 -0.6377
20020TIP3   OH281550   6.209   1.963  16.890 -0.2382  0.6577 -0.6458
20020TIP3    H181551   6.273   2.022  16.931 -0.1876  1.1524 -1.4055
20020TIP3    H281552   6.152   1.936  16.961  2.5580 -2.2146  0.7415
20021TIP3   OH281553   0.569   3.790   4.289 -0.2069 -0.3509  0.9433
20021TIP3    H181554   0.591   3.801   4.382  2.3414  2.0467  0.1751
20021TIP3    H281555   0.653   3.773   4.246 -1.1091  0.1613 -1.1302
20022TIP3   OH281556   4.962   1.559  15.256 -0.5029  0.3320 -0.0375
20022TIP3    H181557   4.984   1.506  15.333 -0.7589  0.2385 -0.0277
20022TIP3    H281558   4.888   1.612  15.284 -0.0750  0.9003  0.0430
20023TIP3   OH281559   6.805   3.082   1.501 -0.1819 -0.2465 -0.3116
20023TIP3    H181560   6.891   3.063   1.540 -0.5214  0.1167  0.6401
20023TIP3    H281561   6.761   2.997   1.498  0.6340 -0.6617 -1.9360
20024TIP3   OH281562   0.494   4.032   1.056  0.4204 -0.2015 -0.4273
20024TIP3    H181563   0.445   4.087   1.117 -0.1778 -1.7704  0.5759
20024TIP3    H281564   0.565   4.087   1.026  0.6064  0.7207  1.5305
20025TIP3   OH281565   6.221   0.688  16.776  0.4427 -0.2330 -0.7591
20025TIP3    H181566   6.314   0.675  16.795  0.0450 -1.0597  0.7837
20025TIP3    H281567   6.182   0.601  16.789 -0.6817  0.3024 -0.4949
20026TIP3   OH281568   3.435   1.528  14.731 -0.4135  0.1127 -0.2003
20026TIP3    H181569   3.391   1.601  14.775  2.4754  1.5828  0.4816
20026TIP3    H281570   3.522   1.525  14.770 -0.1951 -3.3951 -0.6459
20027TIP3   OH281571   5.964   2.460   2.124 -0.1290  0.3957  0.1296
20027TIP3    H181572   5.875   2.425   2.135 -0.5598  2.0018  2.6460
20027TIP3    H281573   6.000   2.412   2.049 -2.7264 -1.0538 -0.3080
20028TIP3   OH281574   3.664   3.332  16.263  0.0162  0.2762  0.5938
20028TIP3    H181575   3.647   3.264  16.198 -0.5314 -0.9749  1.9962
20028TIP3    H281576   3.677   3.284  16.345  2.3218  1.6944  1.1303
20029TIP3   OH281577   5.790   1.824  15.552 -0.1458  0.1859 -0.9024
20029TIP3    H181578   5.742   1.804  15.633  3.2604  2.3177  1.9156
20029TIP3    H281579   5.847   1.748  15.539 -0.0930  0.2112 -0.8185
20030TIP3   OH281580   1.661   6.087   4.700  0.1374 -0.6619 -0.1525
20030TIP3    H181581   1.701   6.147   4.763 -1.7180  0.9584 -0.4058
20030TIP3    H281582   1.588   6.047   4.748 -0.1920 -0.7738 -0.7372
20031TIP3   OH281583   6.473   5.032   4.164 -0.2979  0.5185  0.4208
20031TIP3    H181584   6.469   5.116   4.208  1.1059  0.3163  1.0079
20031TIP3    H281585   6.554   5.035   4.113  0.4671 -0.9071  1.4548
20032TIP3   OH281586   2.305   1.899  16.022  0.1842 -0.1843  0.3177
20032TIP3    H181587   2.278   1.818  15.978 -0.6510 -0.5085  1.3755
20032TIP3    H281588   2.370   1.870  16.086  0.9422  0.1960 -0.2681
20033TIP3   OH281589   5.748   1.878   3.543 -0.1818 -0.5207  0.2006
20033TIP3    H181590   5.654   1.862   3.539 -0.2463 -0.6178  1.7842
20033TIP3    H281591   5.763   1.918   3.628  0.9623  1.4313 -0.8413
20034TIP3   OH281592   5.224   1.753  14.640 -0.4821 -0.0673  0.5994
20034TIP3    H181593   5.276   1.722  14.566 -1.2119  0.9239 -0.3738
20034TIP3    H281594   5.287   1.769  14.710  0.7714  2.3443 -0.9426
20035TIP3   OH281595   2.963   3.610  10.989 -0.7069  0.3714  0.2842
20035TIP3    H181596   2.951   3.518  10.964  0.7721  0.2755 -0.1701
20035TIP3    H281597   2.874   3.647  10.988 -1.0534 -0.3663 -2.2640
20036TIP3   OH281598   6.188   3.522  10.845 -0.5328 -0.6609 -0.0267
20036TIP3    H181599   6.109   3.570  10.821  1.3268  2.2623 -0.7758
20036TIP3    H281600   6.208   3.468  10.769 -0.5529  0.3527 -0.7608
20037TIP3   OH281601   4.101   0.023  10.794  0.4959  0.8418 -0.0837
20037TIP3    H181602   4.168   0.073  10.747  2.2606 -0.0270  1.3765
20037TIP3    H281603   4.029   0.015  10.732  1.8047  1.6499 -1.7967
20038TIP3   OH281604   5.949   2.859  10.332  0.7412  0.2919  0.2447
20038TIP3    H181605   5.965   2.796  10.262  0.6947  1.0749 -0.5001
20038TIP3    H281606   5.854   2.866  10.337  0.7298  1.9692 -1.2762
20039TIP3   OH281607   3.964   1.305  14.396 -0.1561  0.3012 -0.6082
20039TIP3    H181608   3.971   1.380  14.337  1.4167  0.6844 -0.0048
20039TIP3    H281609   3.872   1.302  14.420 -0.3329  1.8410 -0.9431
20040TIP3   OH281610   4.749   4.513  13.569  0.1414 -0.3524 -0.5746
20040TIP3    H181611   4.823   4.551  13.523  0.1652 -0.1573 -0.3775
20040TIP3    H281612   4.709   4.453  13.506 -1.9199  2.4083 -2.1538
20041TIP3   OH281613   6.754   4.991  17.105  0.2609 -0.1582 -0.2312
20041TIP3    H181614   6.783   5.040  17.029  1.0553 -0.3647 -0.0680
20041TIP3    H281615   6.824   5.003  17.170 -0.3940  0.0060  0.4598
20042TIP3   OH281616   5.492   5.502  12.545  0.1726  0.1757 -0.7818
20042TIP3    H181617   5.420   5.502  12.483 -0.3172  0.9378 -0.2388
20042TIP3    H281618   5.571   5.499  12.491 -0.2363  1.0019 -1.4348
20043TIP3   OH281619   0.840   4.909  13.223 -0.1641  0.4963 -0.1976
20043TIP3    H181620   0.925   4.945  13.196  0.2651 -0.6018 -0.3593
20043TIP3    H281621   0.852   4.888  13.316 -1.2811  3.2219  0.6661
20044TIP3   OH281622   5.339   6.390  14.061  0.0019  0.4170  0.0914
20044TIP3    H181623   5.409   6.329  14.036 -0.9540 -0.6329 -0.0961
20044TIP3    H281624   5.310   6.428  13.978 -2.6892 -2.5451 -0.5323
20045TIP3   OH281625   0.351   6.601   6.689 -0.5117  0.5609 -0.0215
20045TIP3    H181626   0.300   6.650   6.624 -0.5500  0.4430 -0.0797
20045TIP3    H281627   0.376   6.667   6.754 -1.4074  0.4703  0.4233
20046TIP3   OH281628   5.557   6.736   0.557  0.7154 -0.3628  0.0916
20046TIP3    H181629   5.495   6.798   0.595  0.9373 -0.7511  1.1528
20046TIP3    H281630   5.571   6.766   0.468  1.4059  1.5654  0.7938
20047TIP3   OH281631   3.857   3.786  15.254  0.2556  0.3354  0.4404
20047TIP3    H181632   3.788   3.852  15.265 -0.1176  0.2497 -1.1345
20047TIP3    H281633   3.916   3.801  15.328  0.0586  2.2946  0.2556
20048TIP3   OH281634   0.718   0.780   3.168 -0.5956 -0.0015 -0.0840
20048TIP3    H181635   0.779   0.711   3.144 -0.9044 -1.0344  1.8778
20048TIP3    H281636   0.691   0.818   3.084  0.2782 -1.6418 -1.1730
20049TIP3   OH281637   5.525   6.138  16.127 -0.2086  0.5321  0.1797
20049TIP3    H181638   5.447   6.099  16.167  1.2859 -1.8230  0.9638
20049TIP3    H281639   5.590   6.139  16.197  1.0604  0.6685 -0.9662
20050TIP3   OH281640   5.941   0.382  16.880  0.2762  0.3564 -0.4882
20050TIP3    H181641   6.028   0.376  16.840  0.2274 -1.6054 -0.4151
20050TIP3    H281642   5.897   0.451  16.831  1.5152  0.6717 -1.2192
20051TIP3   OH281643   5.020   6.249   5.467  0.0448 -0.0384  0.4941
20051TIP3    H181644   5.096   6.210   5.423  0.1901 -0.9993  1.5607
20051TIP3    H281645   5.051   6.334   5.498  1.1389 -0.9648  2.0868
20052TIP3   OH281646   6.292   1.398  15.140 -0.0570 -0.4354  0.5914
20052TIP3    H181647   6.240   1.468  15.101  1.0754 -0.5364 -1.2296
20052TIP3    H281648   6.344   1.364  15.067 -0.4320 -3.0661  1.4606
20053TIP3   OH281649   2.275   5.968   3.197  0.0115  0.5810 -0.0252
20053TIP3    H181650   2.214   5.896   3.183  0.1999  0.4712 -0.3054
20053TIP3    H281651   2.332   5.966   3.120  1.1571 -0.0923  0.8122
20054TIP3   OH281652   5.086   5.512  16.430 -0.1813  0.2540 -0.2478
20054TIP3    H181653   5.044   5.471  16.505 -1.6054  0.5906 -0.8068
20054TIP3    H281654   5.154   5.451  16.403 -0.8177 -0.6967  0.2532
20055TIP3   OH281655   6.122   0.387  12.414 -0.9721  0.0122 -1.0103
20055TIP3    H181656   6.138   0.366  12.323  1.1523  1.0568 -0.9393
20055TIP3    H281657   6.050   0.450  12.412  0.4119  1.6452 -2.1944
20056TIP3   OH281658   6.070   5.594   1.189  0.0346 -0.5469 -1.1921
20056TIP3    H181659   6.057   5.517   1.244  0.3356  0.1080 -0.1757
20056TIP3    H281660   6.153   5.630   1.218 -0.2472  0.3293 -1.4454
20057TIP3   OH281661   4.376   6.053  12.305 -0.6305 -0.6597 -0.0664
20057TIP3    H181662   4.399   5.994  12.378  0.5805  0.9620  0.9220
20057TIP3    H281663   4.304   6.106  12.339 -0.7016 -0.5480 -0.3931
20058TIP3   OH281664   4.967   6.488   1.924  0.5280  0.0024 -0.2766
20058TIP3    H181665   4.915   6.487   1.844 -1.1178 -0.1093  0.7467
20058TIP3    H281666   4.929   6.419   1.978  1.0854  0.6035  0.9158
20059TIP3   OH281667   3.150   0.326  14.451  0.3327  0.0527  0.0929
20059TIP3    H181668   3.171   0.403  14.504  0.9938  0.3440 -0.5754
20059TIP3    H281669   3.120   0.362  14.367 -0.8066 -0.3980  0.2842
20060TIP3   OH281670   4.459   5.129  12.388  0.4586  0.1403  0.4993
20060TIP3    H181671   4.370   5.148  12.417 -1.0704 -1.8636 -2.4499
20060TIP3    H281672   4.471   5.184  12.311  2.5194  1.6686  1.8114
20061TIP3   OH281673   0.944   2.487  16.590  0.0150 -0.4769 -0.2230
20061TIP3    H181674   0.869   2.535  16.556  1.5036  1.2127 -1.3486
20061TIP3    H281675   0.966   2.531  16.672  0.5420 -0.0880 -0.5609
20062TIP3   OH281676   6.030   4.633  15.924 -0.0510  0.2452 -0.1205
20062TIP3    H181677   6.063   4.543  15.926  1.7919  0.8286 -1.6239
20062TIP3    H281678   6.031   4.661  16.015 -0.8033 -1.2867  0.3894
20063TIP3   OH281679   2.662   4.249   6.272  0.5439 -0.0430  0.2211
20063TIP3    H181680   2.706   4.334   6.271 -0.3280  0.4354  1.0256
20063TIP3    H281681   2.637   4.236   6.364 -0.4616 -0.5687 -0.1114
20064TIP3   OH281682   5.640   2.388  12.558 -0.1309  0.1213 -0.5279
20064TIP3    H181683   5.572   2.454  12.543 -0.4691 -0.1673 -0.2956
20064TIP3    H281684   5.709   2.435  12.605 -0.5537  0.2147  0.0129
20065TIP3   OH281685   3.647   3.552  12.987  0.4559  0.0959 -0.4083
20065TIP3    H181686   3.669   3.517  13.073  0.6879 -1.2066 -0.9819
20065TIP3    H281687   3.684   3.489  12.925 -0.7778  0.3520 -1.4507
20066TIP3   OH281688   0.493   1.726   1.748  0.5229  0.0005 -0.2166
20066TIP3    H181689   0.401   1.735   1.722  0.7232  0.4676 -0.7940
20066TIP3    H281690   0.512   1.806   1.797  0.4301 -0.4187  0.5162
20067TIP3   OH281691   3.710   5.564  14.246 -0.3472  0.0161  0.1941
20067TIP3    H181692   3.751   5.651  14.245  0.1310 -0.1572  2.0876
20067TIP3    H281693   3.758   5.514  14.180  1.7919  0.1666  1.5308
20068TIP3   OH281694   5.220   2.412   0.460  0.2045 -0.3244  0.7542
20068TIP3    H181695   5.158   2.427   0.389  1.0476  0.7175  0.2061
20068TIP3    H281696   5.165   2.393   0.536 -0.8079  0.6818  0.3077
20069TIP3   OH281697   1.008   4.999   5.299  0.1693 -0.4253 -0.1297
20069TIP3    H181698   1.054   4.954   5.370  0.4297  0.0588  0.0092
20069TIP3    H281699   1.075   5.053   5.257 -0.3497  0.5685  0.3046
20070TIP3   OH281700   6.025   4.344   4.508  0.4636  0.3932 -0.3293
20070TIP3    H181701   6.031   4.397   4.429 -1.5116 -0.4495 -1.1077
20070TIP3    H281702   6.061   4.259   4.482 -1.2226 -0.2425 -0.7337
20071TIP3   OH281703   4.295   5.241   6.935  0.0794  0.5156 -0.2379
20071TIP3    H181704   4.345   5.225   6.855 -0.1446 -0.0526 -0.2693
20071TIP3    H281705   4.347   5.201   7.004 -0.0301  0.4614 -0.1868
20072TIP3   OH281706   4.007   5.718   2.309  0.1850 -0.0921 -0.1530
20072TIP3    H181707   3.976   5.632   2.335  0.3962 -0.4178 -0.9535
20072TIP3    H281708   4.100   5.717   2.329  0.1128  0.0884  0.1929
20073TIP3   OH281709   4.045   5.528  16.579  0.0305  0.1718 -0.1649
20073TIP3    H181710   4.134   5.520  16.543 -0.0510  0.4561 -0.4279
20073TIP3    H281711   4.012   5.610  16.544  0.6137  1.4034  1.9853
20074TIP3   OH281712   3.106   2.044  14.588 -0.5840  0.5760  0.5782
20074TIP3    H181713   3.122   1.973  14.526 -0.4886  0.7659  0.3874
20074TIP3    H281714   3.011   2.050  14.594 -0.5954  1.1140 -0.1770
20075TIP3   OH281715   5.580   0.523   6.311  0.3334 -0.2095  0.2831
20075TIP3    H181716   5.621   0.604   6.342 -0.8862  0.6811 -0.3413
20075TIP3    H281717   5.593   0.524   6.217 -1.0006  0.0382  0.0884
20076TIP3   OH281718   2.324   6.853   5.492  0.3348 -0.1735  0.2689
20076TIP3    H181719   2.260   6.814   5.432  0.8891 -1.4366  0.4726
20076TIP3    H281720   2.274   6.921   5.539 -0.7190 -0.7857  0.0620
20077TIP3   OH281721   4.837   2.623   3.148 -0.1717 -0.0023  0.0204
20077TIP3    H181722   4.849   2.573   3.067 -0.6991  0.7494 -0.5389
20077TIP3    H281723   4.922   2.619   3.192  1.0349  1.8729 -1.9175
20078TIP3   OH281724   6.366   2.375  16.805 -0.0964 -0.4354 -0.3171
20078TIP3    H181725   6.274   2.351  16.790  0.2337 -1.9260 -0.1698
20078TIP3    H281726   6.363   2.437  16.877 -1.2992  2.8344 -2.9316
20079TIP3   OH281727   5.037   0.843  11.380  0.0206  0.3956  0.6299
20079TIP3    H181728   4.949   0.819  11.354  0.3946  0.6135 -0.9174
20079TIP3    H281729   5.059   0.783  11.451 -0.6420 -0.9842 -0.2898
20080TIP3   OH281730   4.574   1.493  14.119  0.0213 -0.5526 -0.3146
20080TIP3    H181731   4.651   1.523  14.167 -0.8987  0.8363  0.3728
20080TIP3    H281732   4.591   1.516  14.028  0.5665 -0.6126 -0.2313
20081TIP3   OH281733   2.158   0.794   3.217  0.0065 -0.1171 -0.5315
20081TIP3    H181734   2.086   0.853   3.242  1.7341  1.3206  1.3518
20081TIP3    H281735   2.205   0.778   3.299  2.3227 -0.3376 -1.8210
20082TIP3   OH281736   6.060   6.250   4.085  0.0008 -0.3517 -0.4149
20082TIP3    H181737   6.082   6.175   4.030  1.2199 -1.7872  1.8535
20082TIP3    H281738   6.145   6.292   4.103 -0.4796  0.6288 -0.3474
20083TIP3   OH281739   3.186   1.234   0.072 -0.1630  0.5669 -0.2643
20083TIP3    H181740   3.128   1.255   0.145  0.7166  0.8477  0.3724
20083TIP3    H281741   3.240   1.312   0.061  1.4165 -0.3749  0.4557
20084TIP3   OH281742   5.292   2.227  11.700  0.0600 -0.2836  0.5850
20084TIP3    H181743   5.218   2.211  11.642  0.1136  1.2180  0.0694
20084TIP3    H281744   5.312   2.141  11.737  0.1270 -1.3478 -1.7319
20085TIP3   OH281745   4.183   3.768  11.428  0.2846 -0.0312  0.0310
20085TIP3    H181746   4.098   3.795  11.463 -0.3222  0.8731 -2.0188
20085TIP3    H281747   4.191   3.814  11.344  0.9530 -3.1706 -1.7958
20086TIP3   OH281748   6.558   2.506  13.096  0.1923 -0.7564  0.0776
20086TIP3    H181749   6.579   2.455  13.018  0.1100  2.0582 -1.9196
20086TIP3    H281750   6.549   2.441  13.166  1.5885 -3.2739 -1.9439
20087TIP3   OH281751   6.488   4.886   3.753  0.0457  0.1549  0.6938
20087TIP3    H181752   6.479   4.848   3.840 -0.2120  1.6264  1.3302
20087TIP3    H281753   6.432   4.964   3.754 -0.1704  0.0596 -0.8721
20088TIP3   OH281754   4.836   5.841   3.663  0.3078  0.4842 -0.3114
20088TIP3    H181755   4.908   5.782   3.685  0.6618  0.8249 -0.5433
20088TIP3    H281756   4.877   5.912   3.613 -0.0233  1.1920  0.3893
20089TIP3   OH281757   5.682   0.184   2.507 -0.2539  0.2889  0.1615
20089TIP3    H181758   5.611   0.239   2.473  0.3006  0.4604 -0.7709
20089TIP3    H281759   5.698   0.216   2.595 -2.1671 -0.5693  0.8642
20090TIP3   OH281760   0.477   1.856  14.243  0.4999 -0.2842 -0.2180
20090TIP3    H181761   0.431   1.925  14.195 -1.3972  0.1561  2.0431
20090TIP3    H281762   0.514   1.899  14.319  1.6588 -1.3110 -0.1656
20091TIP3   OH281763   2.547   1.564  11.598  0.4038 -0.2507 -0.3236
20091TIP3    H181764   2.640   1.566  11.579  0.8200 -2.0345  1.2197
20091TIP3    H281765   2.513   1.494  11.542  0.6196 -1.7233  1.2990
20092TIP3   OH281766   3.928   4.540  14.719  0.3854 -0.2551 -0.3537
20092TIP3    H181767   3.880   4.610  14.762  2.5562  0.2734  1.3411
20092TIP3    H281768   3.951   4.575  14.633  1.1334  0.9881  0.3400
20093TIP3   OH281769   0.698   4.208   3.785 -0.1580  0.6655 -0.1393
20093TIP3    H181770   0.674   4.298   3.805  0.8066  0.7508  0.6893
20093TIP3    H281771   0.620   4.157   3.808 -1.3009  1.4110 -2.1017
20094TIP3   OH281772   6.145   1.795   0.475  0.5587 -0.2739  0.3861
20094TIP3    H181773   6.157   1.724   0.538  2.1797  0.2038  0.6514
20094TIP3    H281774   6.144   1.874   0.528  1.4068  0.0924 -0.1305
20095TIP3   OH281775   0.940   0.664  14.775  0.2082  0.8715  0.4033
20095TIP3    H181776   0.948   0.576  14.811  0.8738  1.1475  0.9612
20095TIP3    H281777   0.868   0.704  14.824  0.2431  0.8137  0.5002
20096TIP3   OH281778   1.276   0.577  11.764  0.0695  0.1894 -0.8437
20096TIP3    H181779   1.301   0.514  11.832  0.5988  1.6015  0.3366
20096TIP3    H281780   1.294   0.662  11.804  0.0795  1.0735 -2.6570
20097TIP3   OH281781   0.944   2.044  11.084 -0.1767  0.1058  0.3298
20097TIP3    H181782   0.928   2.074  10.994 -2.9406  1.8559  1.2824
20097TIP3    H281783   0.869   1.988  11.104  0.0879  0.2388  1.7331
20098TIP3   OH281784   1.434   3.965  14.912 -0.7101  0.4305  0.3838
20098TIP3    H181785   1.503   3.901  14.930 -0.4175  0.9127  1.0092
20098TIP3    H281786   1.465   4.046  14.954 -0.5562  1.2881 -1.3022
20099TIP3   OH281787   1.557   2.562  13.766  0.1135  0.0704 -0.1234
20099TIP3    H181788   1.553   2.641  13.819  2.1788 -0.9189  1.7036
20099TIP3    H281789   1.508   2.497  13.816 -2.9643  0.4151 -2.3643
20100TIP3   OH281790   4.872   3.093   5.826  0.2232  0.1611 -0.6141
20100TIP3    H181791   4.792   3.143   5.807 -0.5132 -0.3172  1.0468
20100TIP3    H281792   4.882   3.100   5.921  1.7819 -0.3785 -0.7137
20101TIP3   OH281793   2.484   2.521  11.214  0.1552 -0.7143 -0.1747
20101TIP3    H181794   2.557   2.513  11.154  0.1878 -0.2534 -0.1976
20101TIP3    H281795   2.414   2.470  11.173 -0.2827  0.7348 -1.3238
20102TIP3   OH281796   0.701   0.801   4.339 -0.2869  0.5483 -0.1332
20102TIP3    H181797   0.626   0.764   4.292 -0.4015 -0.2618  0.6653
20102TIP3    H281798   0.777   0.770   4.291 -0.4466  1.2366 -0.8519
20103TIP3   OH281799   0.120   1.108  12.701 -0.2066  0.2115  0.0467
20103TIP3    H181800   0.100   1.202  12.704  0.3707  0.3242  0.6011
20103TIP3    H281801   0.169   1.092  12.781 -0.8051 -0.6900  0.2456
20104TIP3   OH281802   0.043   5.117   0.825  0.0951  0.0775  0.3977
20104TIP3    H181803  -0.001   5.037   0.855 -0.8175  0.7051  0.8039
20104TIP3    H281804   0.009   5.131   0.736 -0.9092  0.8019  0.8728
20105TIP3   OH281805   4.885   0.129   0.486 -0.7710  0.2170 -0.2636
20105TIP3    H181806   4.917   0.070   0.418  2.1910 -0.3160  1.4358
20105TIP3    H281807   4.806   0.087   0.519  0.0658 -1.7101 -0.5762
20106TIP3   OH281808   5.823   3.656   3.955  0.0891  0.4655  0.3587
20106TIP3    H181809   5.732   3.665   3.984 -0.7861 -1.0961 -1.6170
20106TIP3    H281810   5.828   3.711   3.876  0.3122 -0.7966 -0.5422
20107TIP3   OH281811   0.822   0.768  15.461 -0.1065  0.1034  0.2561
20107TIP3    H181812   0.803   0.732  15.548 -1.9138 -0.1206 -0.1750
20107TIP3    H281813   0.798   0.860  15.467  1.3914  0.4966  0.4479
20108TIP3   OH281814   2.419   1.057   2.300  0.2668 -0.3042 -0.4958
20108TIP3    H181815   2.481   1.019   2.362  0.3784 -0.2705 -0.5872
20108TIP3    H281816   2.425   1.151   2.314  1.1193 -0.2142 -1.3342
20109TIP3   OH281817   2.240   0.096  13.733  0.3075  0.1786 -0.4216
20109TIP3    H181818   2.190   0.135  13.804  1.2319  0.3034  0.1835
20109TIP3    H281819   2.180   0.036  13.690 -0.3495  0.3328  0.2772
20110TIP3   OH281820   5.321   4.436  16.419  0.2169  0.1604 -0.1646
20110TIP3    H181821   5.330   4.525  16.452  0.0970  0.3532 -0.6313
20110TIP3    H281822   5.406   4.395  16.435 -0.3214 -0.2564  1.7917
20111TIP3   OH281823   1.678   6.681  15.410  0.5085 -0.1411 -0.4249
20111TIP3    H181824   1.669   6.770  15.374 -0.0259  0.8941  2.0367
20111TIP3    H281825   1.587   6.650  15.417  0.5668 -0.1534  0.3482
20112TIP3   OH281826   1.184   6.827  15.893 -0.7264  0.2430  0.9342
20112TIP3    H181827   1.109   6.884  15.877 -2.2419 -1.5658  1.2738
20112TIP3    H281828   1.189   6.772  15.815  0.4140  0.5001  0.8167
20113TIP3   OH281829   5.540   4.431  11.925 -0.6166 -0.0408  0.5505
20113TIP3    H181830   5.540   4.337  11.942 -0.2578 -0.2073 -0.3114
20113TIP3    H281831   5.585   4.440  11.841 -1.2040  0.8436  0.3153
20114TIP3   OH281832   1.859   1.084   0.649  0.6785  0.4058 -0.2980
20114TIP3    H181833   1.867   1.072   0.554  0.2578  2.5537 -0.6541
20114TIP3    H281834   1.896   1.004   0.686 -0.0539 -0.9264 -2.2799
20115TIP3   OH281835   5.845   6.704  15.144 -0.4720  0.0872 -0.2911
20115TIP3    H181836   5.922   6.738  15.097 -0.8688  0.9887 -0.3067
20115TIP3    H281837   5.867   6.716  15.237  0.1710 -1.3865 -0.2116
20116TIP3   OH281838   5.271   4.555   0.372 -0.1248 -0.0783  0.0794
20116TIP3    H181839   5.341   4.539   0.436 -2.2551  0.1961  2.6593
20116TIP3    H281840   5.227   4.471   0.362 -1.8709  0.5671  1.7095
20117TIP3   OH281841   4.192   2.669   4.557 -0.5575  0.1202  0.0405
20117TIP3    H181842   4.174   2.619   4.478 -0.2588 -0.5907  0.4124
20117TIP3    H281843   4.126   2.739   4.557  0.1985  0.8892 -1.4626
20118TIP3   OH281844   5.313   5.973   0.470  0.4254 -0.3676  0.0775
20118TIP3    H181845   5.222   5.999   0.485  0.3279  0.4203 -1.6710
20118TIP3    H281846   5.308   5.880   0.448  0.4276 -1.1787  3.0453
20119TIP3   OH281847   0.237   3.191  15.562  0.6138 -0.2943  0.1095
20119TIP3    H181848   0.234   3.111  15.616  1.6694  0.1407  0.8643
20119TIP3    H281849   0.226   3.160  15.472 -2.5321 -0.9074  0.6046
20120TIP3   OH281850   5.451   1.377  12.542 -0.3887  0.2309 -0.3637
20120TIP3    H181851   5.509   1.320  12.491 -0.0121  0.8442 -0.6290
20120TIP3    H281852   5.418   1.321  12.612 -0.0160 -0.3125 -0.6174
20121TIP3   OH281853   3.638   4.508  16.447 -0.0437 -0.8390  0.2103
20121TIP3    H181854   3.590   4.439  16.402 -0.4785 -0.7071  0.4597
20121TIP3    H281855   3.730   4.482  16.441  0.3677  0.8003 -3.7085
20122TIP3   OH281856   4.611   0.466  11.337  0.0069 -0.4392 -0.7966
20122TIP3    H181857   4.601   0.404  11.409  1.8443  0.0479 -0.0763
20122TIP3    H281858   4.705   0.484  11.333 -0.4901  3.4172  0.0594
20123TIP3   OH281859   4.482   0.601   4.166  0.7528 -0.2844 -0.7482
20123TIP3    H181860   4.563   0.578   4.122  1.5679  1.6988 -0.3775
20123TIP3    H281861   4.490   0.563   4.253  1.7422  0.7086 -0.3883
20124TIP3   OH281862   6.400   5.960   1.727 -0.1142 -0.1283 -0.1601
20124TIP3    H181863   6.491   5.976   1.702  0.7816 -1.4859  2.0102
20124TIP3    H281864   6.383   5.869   1.702 -0.1704 -0.5410  1.2893
20125TIP3   OH281865   3.733   6.834   2.639  0.0396 -0.0217 -0.1961
20125TIP3    H181866   3.805   6.888   2.605 -0.2071  0.7447  0.4713
20125TIP3    H281867   3.768   6.794   2.718 -0.4559  0.8894  0.5132
20126TIP3   OH281868   6.723   6.655  15.186  0.4418 -0.1274  0.2249
20126TIP3    H181869   6.727   6.740  15.229  0.0143  0.2798 -0.5141
20126TIP3    H281870   6.653   6.608  15.232 -0.3691  0.4939 -0.3300
20127TIP3   OH281871   1.029   2.085  16.626  0.2282  0.3066 -0.0162
20127TIP3    H181872   1.104   2.138  16.601  0.6822 -0.1247  0.4150
20127TIP3    H281873   1.057   1.995  16.610  0.4409  0.0343  1.7554
20128TIP3   OH281874   2.726   5.475  16.292 -0.2557 -0.3822  0.3908
20128TIP3    H181875   2.704   5.492  16.200 -0.6921 -0.2509  0.5159
20128TIP3    H281876   2.805   5.526  16.308  0.3644 -1.1437 -0.1684
20129TIP3   OH281877   6.663   3.895   1.885 -0.2982  0.2265 -0.0214
20129TIP3    H181878   6.726   3.907   1.955  0.4665 -0.3554 -0.5988
20129TIP3    H281879   6.610   3.820   1.912  0.4110 -0.4045 -0.3516
20130TIP3   OH281880   3.706   6.303   4.058  0.0623  0.4780 -0.1189
20130TIP3    H181881   3.782   6.356   4.033  0.3335 -0.3782 -1.1724
20130TIP3    H281882   3.731   6.213   4.036 -0.6200 -0.0385  1.0888
20131TIP3   OH281883   5.984   5.653  12.290  0.0997 -0.6137 -0.5291
20131TIP3    H181884   5.978   5.730  12.345 -0.3548 -1.1123  0.1416
20131TIP3    H281885   5.986   5.687  12.201 -0.5285  0.1518 -0.2653
20132TIP3   OH281886   3.331   0.911   1.074 -0.4449  0.1853 -0.4074
20132TIP3    H181887   3.321   0.977   1.142 -4.4161 -0.6442  0.0737
20132TIP3    H281888   3.354   0.831   1.121 -0.1013  0.2693 -0.4320
20133TIP3   OH281889   3.782   4.856   5.009 -0.2677  0.2858  0.7422
20133TIP3    H181890   3.687   4.866   5.016 -0.4976 -0.1037 -1.1826
20133TIP3    H281891   3.804   4.896   4.925  0.9303 -1.6273  0.0739
20134TIP3   OH281892   1.775   0.500  15.343 -0.4982 -0.7055 -0.2242
20134TIP3    H181893   1.770   0.422  15.288  0.2477 -0.2115 -1.0193
20134TIP3    H281894   1.783   0.572  15.281 -0.4780 -0.0569  0.5215
20135TIP3   OH281895   6.772   3.051  11.714 -0.4166 -0.0716 -0.1739
20135TIP3    H181896   6.840   3.092  11.660  1.0651  0.9890  2.3219
20135TIP3    H281897   6.748   3.119  11.777 -2.6364 -1.0001  0.0836
20136TIP3   OH281898   5.321   3.631   1.856 -0.4786 -0.6601  0.0669
20136TIP3    H181899   5.371   3.587   1.925  0.3630  0.9307  0.5207
20136TIP3    H281900   5.230   3.607   1.873 -0.3442  0.1351  2.0709
20137TIP3   OH281901   6.039   0.862   2.658  0.0062 -0.0299  0.5638
20137TIP3    H181902   6.068   0.788   2.712  1.7184  0.6324  0.6268
20137TIP3    H281903   5.948   0.876   2.684  0.0950 -1.1846  1.6130
20138TIP3   OH281904   5.001   6.446  13.648 -0.3788  0.2198 -0.1957
20138TIP3    H181905   5.088   6.460  13.688 -0.8143 -1.5374  1.5501
20138TIP3    H281906   5.017   6.383  13.579 -0.2503 -0.1242  0.1420
20139TIP3   OH281907   1.361   6.005   5.258 -0.1035  0.4932 -0.0117
20139TIP3    H181908   1.442   5.985   5.210  0.5778  0.0382  1.2631
20139TIP3    H281909   1.291   5.971   5.202  0.6244  0.3866 -0.8812
20140TIP3   OH281910   6.364   3.595  14.157 -0.1630 -0.2649  0.7746
20140TIP3    H181911   6.290   3.636  14.113 -0.1506  0.6502  1.5777
20140TIP3    H281912   6.359   3.503  14.131 -1.3636 -0.1490  0.5272
20141TIP3   OH281913   5.793   4.714  15.072 -0.5429 -0.1056  0.1988
20141TIP3    H181914   5.847   4.645  15.112  1.4394  1.0696 -0.3318
20141TIP3    H281915   5.794   4.694  14.979 -0.9057  0.0197  0.1678
20142TIP3   OH281916   4.177   0.493   0.446 -0.3600 -0.2757 -0.0109
20142TIP3    H181917   4.086   0.514   0.468  0.4073  2.1189  1.2479
20142TIP3    H281918   4.198   0.417   0.499 -1.8808 -1.5188 -1.0904
20143TIP3   OH281919   3.734   4.724   1.178  0.1817 -0.0161 -0.3300
20143TIP3    H181920   3.730   4.652   1.240 -1.0677  0.4851  0.1955
20143TIP3    H281921   3.643   4.747   1.161  0.4411 -0.5981 -2.9149
20144TIP3   OH281922   4.989   4.706   1.984  0.3791  0.1259 -0.6525
20144TIP3    H181923   4.950   4.781   1.937  0.7577 -0.1395 -1.4120
20144TIP3    H281924   5.082   4.727   1.988  0.4298 -0.1292 -0.5364
20145TIP3   OH281925   0.471   1.340   3.244 -0.5093 -0.9879  0.6649
20145TIP3    H181926   0.493   1.406   3.310 -0.9401  0.0798 -0.2166
20145TIP3    H281927   0.474   1.388   3.161  1.5825 -2.6422 -0.2898
20146TIP3   OH281928   3.888   3.477   6.039 -0.2582  0.1974  0.2800
20146TIP3    H181929   3.840   3.558   6.027  0.9974  0.8989 -0.1961
20146TIP3    H281930   3.842   3.431   6.109 -1.4244  0.9639  0.0338
20147TIP3   OH281931   1.759   0.894   2.833 -0.0503 -0.1651 -0.3250
20147TIP3    H181932   1.693   0.868   2.896 -0.1265  0.9916  0.0839
20147TIP3    H281933   1.781   0.813   2.787 -1.0204 -0.7462  0.2075
20148TIP3   OH281934   3.301   3.680  16.778 -1.0350  0.8421  0.2997
20148TIP3    H181935   3.358   3.663  16.703  1.3267  2.5203  1.5916
20148TIP3    H281936   3.213   3.685  16.740  0.1287  2.1885 -2.4916
20149TIP3   OH281937   1.101   4.259  10.585 -0.0904 -0.3602  0.0464
20149TIP3    H181938   1.012   4.236  10.612 -0.2973  0.6944  0.3016
20149TIP3    H281939   1.090   4.303  10.501  0.3998 -2.0502 -0.9599
20150TIP3   OH281940   3.345   1.819  13.673 -0.3270  0.6509  0.3324
20150TIP3    H181941   3.354   1.782  13.761  1.9404 -1.1731 -0.5551
20150TIP3    H281942   3.267   1.777  13.637 -0.0643 -0.2112  0.7536
20151TIP3   OH281943   4.677   5.240   5.173 -0.2185 -0.3273 -0.3337
20151TIP3    H181944   4.736   5.312   5.150 -0.6627  0.2931  0.4461
20151TIP3    H281945   4.612   5.279   5.230  0.4266 -1.6629  1.3981
20152TIP3   OH281946   2.636   5.985  13.280 -0.3330  0.1219  0.3476
20152TIP3    H181947   2.577   5.944  13.216 -1.7200 -0.7228  2.0893
20152TIP3    H281948   2.626   5.932  13.359  2.8527 -0.0675  0.7295
20153TIP3   OH281949   5.328   2.669   0.767  0.6104  0.5482 -0.7674
20153TIP3    H181950   5.381   2.727   0.822 -1.3883  0.4163  1.5023
20153TIP3    H281951   5.306   2.722   0.691  2.6281  1.1188 -1.0118
20154TIP3   OH281952   4.278   2.665   0.653  0.3631 -0.2656 -0.0893
20154TIP3    H181953   4.370   2.675   0.630 -0.1544  0.8402 -1.8959
20154TIP3    H281954   4.256   2.575   0.626  0.7910 -0.3736 -0.0728
20155TIP3   OH281955   4.448   4.654   3.127 -0.2313  0.5479  0.4992
20155TIP3    H181956   4.399   4.586   3.172 -0.1515 -0.1567 -0.4315
20155TIP3    H281957   4.487   4.608   3.052  3.2419  0.6390  2.0667
20156TIP3   OH281958   5.796   1.476  13.987  0.2764 -0.1322 -0.6309
20156TIP3    H181959   5.717   1.426  13.964 -1.0632 -0.0605  3.1957
20156TIP3    H281960   5.782   1.562  13.947 -2.6305  0.5014  1.4391
20157TIP3   OH281961   0.180   5.210  13.045 -0.0175  0.8920 -0.0714
20157TIP3    H181962   0.244   5.256  12.990  0.2757  0.0608 -0.4346
20157TIP3    H281963   0.189   5.118  13.021  0.5961  0.3971  1.8507
20158TIP3   OH281964   4.588   4.330   6.740 -0.1031  0.1775  0.3253
20158TIP3    H181965   4.681   4.308   6.749 -0.3054 -0.1888  1.8692
20158TIP3    H281966   4.559   4.345   6.830 -1.4178  0.8400 -0.1876
20159TIP3   OH281967   4.726   5.004   5.821  1.0450  0.5507 -0.4146
20159TIP3    H181968   4.815   4.970   5.824  1.3078  1.0789 -1.5046
20159TIP3    H281969   4.726   5.076   5.884  0.7262 -0.8425  1.2593
20160TIP3   OH281970   6.570   6.299  13.470 -0.5502 -0.2487 -0.0576
20160TIP3    H181971   6.660   6.268  13.480 -0.8635 -1.0493  0.2980
20160TIP3    H281972   6.574   6.359  13.395  0.1083 -0.9744 -0.6153
20161TIP3   OH281973   1.501   4.368   2.647 -0.3759 -0.3075  0.3349
20161TIP3    H181974   1.445   4.290   2.644  0.1194 -0.7812  2.0614
20161TIP3    H281975   1.444   4.437   2.680 -0.1012 -0.6755  1.6373
20162TIP3   OH281976   4.917   3.993   5.300 -0.4167 -0.3089  0.1448
20162TIP3    H181977   4.862   3.977   5.377 -1.7049 -1.2505 -0.9320
20162TIP3    H281978   4.929   4.088   5.299  0.1575 -0.3218  1.8356
20163TIP3   OH281979   3.354   5.639  16.458 -0.3607  0.3362 -0.1653
20163TIP3    H181980   3.287   5.706  16.472  0.1247  0.5747  1.1297
20163TIP3    H281981   3.437   5.687  16.465 -0.0284  0.0232 -1.6223
20164TIP3   OH281982   0.907   2.563  12.391 -0.0954  0.7678  0.9184
20164TIP3    H181983   0.828   2.547  12.442 -0.9463 -0.1770 -0.5919
20164TIP3    H281984   0.879   2.625  12.323  0.5607  0.7141  0.5910
20165TIP3   OH281985   3.041   5.218   2.118  0.4156 -1.1011 -0.6126
20165TIP3    H181986   3.048   5.221   2.022  0.6658  2.1328 -0.6040
20165TIP3    H281987   3.110   5.157   2.145  0.8920 -1.4392 -2.4518
20166TIP3   OH281988   0.858   1.703  14.222  0.1816  0.3734  0.2735
20166TIP3    H181989   0.871   1.793  14.254 -0.7218  0.8762 -0.7052
20166TIP3    H281990   0.771   1.704  14.184  0.0086 -1.0432  0.5946
20167TIP3   OH281991   5.852   3.302   5.357 -0.1677 -0.1987 -0.1072
20167TIP3    H181992   5.885   3.333   5.441 -0.7432 -0.2883  0.1571
20167TIP3    H281993   5.823   3.212   5.373  0.4514 -0.4968 -0.5987
20168TIP3   OH281994   6.216   5.075  16.198  0.5950 -0.0621 -0.0739
20168TIP3    H181995   6.159   4.998  16.208  0.5117 -0.2964 -2.0843
20168TIP3    H281996   6.266   5.077  16.280 -2.0678  0.0156  1.6964
20169TIP3   OH281997   4.781   5.879  14.711  0.4586 -0.0741  0.3345
20169TIP3    H181998   4.724   5.830  14.771 -0.0422  0.5501  0.3789
20169TIP3    H281999   4.734   5.961  14.695 -0.4088 -0.9940 -2.4700
20170TIP3   OH282000   4.621   0.972   4.951 -0.4995 -0.1402 -0.4204
20170TIP3    H182001   4.585   0.919   5.022 -0.4461 -1.6065 -1.4457
20170TIP3    H282002   4.545   1.018   4.915 -0.8991 -1.0748 -0.7928
20171TIP3   OH282003   3.148   0.070  15.615 -0.3924 -0.4578 -0.3249
20171TIP3    H182004   3.186   0.089  15.529 -1.9848  0.7991 -0.8138
20171TIP3    H282005   3.213   0.103  15.678 -0.1931  0.6887 -1.0980
20172TIP3   OH282006   0.707   4.754  12.624  0.6180  0.1194  0.0273
20172TIP3    H182007   0.756   4.699  12.563  1.2287 -1.7492  2.0688
20172TIP3    H282008   0.772   4.782  12.689 -0.3247  0.6200  0.7904
20173TIP3   OH282009   4.324   4.957  15.398 -0.3384 -0.2995 -0.0495
20173TIP3    H182010   4.352   5.003  15.319 -1.7784 -0.2162 -0.5511
20173TIP3    H282011   4.399   4.904  15.424  0.9803  1.4374 -0.1219
20174TIP3   OH282012   3.207   4.828   5.553 -0.0128 -0.3605 -0.1834
20174TIP3    H182013   3.215   4.741   5.516  0.0262  0.4586 -2.2257
20174TIP3    H282014   3.182   4.813   5.644  1.4256 -2.5120 -0.0646
20175TIP3   OH282015   2.799   1.622   5.835 -0.1526  0.2222  0.2582
20175TIP3    H182016   2.785   1.712   5.864 -2.0396 -0.2491  0.9593
20175TIP3    H282017   2.799   1.571   5.916 -0.7919 -0.5949 -0.2417
20176TIP3   OH282018   0.677   5.775   3.954  0.2858 -0.0178  0.1386
20176TIP3    H182019   0.707   5.866   3.960 -1.7975  0.6733  0.9561
20176TIP3    H282020   0.591   5.781   3.913 -0.8748 -1.3503  2.2046
20177TIP3   OH282021   2.413   1.110  13.095 -0.3174  0.4309 -0.0587
20177TIP3    H182022   2.408   1.173  13.024  1.0429 -0.6315 -1.1577
20177TIP3    H282023   2.338   1.052  13.081  0.3137 -0.1700 -1.0561
20178TIP3   OH282024   5.147   4.023   3.466 -0.4359 -0.1797 -0.0323
20178TIP3    H182025   5.218   4.079   3.499 -1.0885  0.6513 -0.0178
20178TIP3    H282026   5.083   4.084   3.430 -1.0269 -0.9380 -0.2924
20179TIP3   OH282027   0.555   2.536   4.099  0.2754 -0.2032  0.0373
20179TIP3    H182028   0.521   2.577   4.019  0.3934 -0.1333  0.0213
20179TIP3    H282029   0.537   2.443   4.088  0.9891 -0.3013 -0.4304
20180TIP3   OH282030   6.245   2.271  11.985  0.2135 -0.6100 -0.9631
20180TIP3    H182031   6.265   2.363  11.969  0.5385 -0.6310 -0.6806
20180TIP3    H282032   6.214   2.238  11.901 -1.3087  0.1281 -0.7285
20181TIP3   OH282033   5.149   5.870  11.283 -0.4635  0.0899  0.1114
20181TIP3    H182034   5.111   5.812  11.217 -0.7808  1.9269 -1.4381
20181TIP3    H282035   5.108   5.844  11.365 -1.9824 -0.6556 -0.8362
20182TIP3   OH282036   4.433   2.524  16.927 -0.1476  1.0919 -0.5100
20182TIP3    H182037   4.438   2.467  16.850 -1.1726  1.0418 -0.5579
20182TIP3    H282038   4.507   2.584  16.917  1.6216 -0.8531  0.0842
20183TIP3   OH282039   2.839   6.392  12.894 -0.2747 -0.2326  0.0396
20183TIP3    H182040   2.765   6.376  12.835  0.4502 -0.8449 -0.7381
20183TIP3    H282041   2.911   6.343  12.855  1.4379  2.8282 -1.0511
20184TIP3   OH282042   1.311   6.749  10.991  0.0450 -0.5066  0.2142
20184TIP3    H182043   1.291   6.678  10.930 -2.7005 -0.0059  0.4055
20184TIP3    H282044   1.236   6.751  11.051  0.4184  2.0254  0.7080
20185TIP3   OH282045   2.611   3.373   2.158 -0.0219  0.4623  0.2594
20185TIP3    H182046   2.592   3.280   2.148 -1.0093  0.8713 -2.6637
20185TIP3    H282047   2.648   3.399   2.073  1.0516  2.5830  1.2861
20186TIP3   OH282048   5.410   3.138  16.862 -0.3659 -0.4542 -0.2736
20186TIP3    H182049   5.427   3.093  16.779 -2.0543 -0.3128 -0.7238
20186TIP3    H282050   5.488   3.192  16.875 -1.2095  1.8111 -3.3270
20187TIP3   OH282051   3.614   1.111   0.057  0.0786  0.1628 -0.1500
20187TIP3    H182052   3.598   1.056   0.133 -2.0932  0.9324  0.0179
20187TIP3    H282053   3.699   1.152   0.074  0.5045 -1.1131  0.9410
20188TIP3   OH282054   1.728   1.077   3.111  0.9749 -0.0359  0.1679
20188TIP3    H182055   1.686   1.163   3.099  0.5987 -0.3266 -0.6956
20188TIP3    H282056   1.655   1.019   3.135  0.6802 -0.7191 -2.1316
20189TIP3   OH282057   5.273   2.923   1.191 -0.1570 -0.7426  0.5077
20189TIP3    H182058   5.354   2.968   1.167 -0.2780  0.2530  1.8330
20189TIP3    H282059   5.212   2.943   1.120  0.4649 -0.6844 -0.0196
20190TIP3   OH282060   0.717   1.433  10.859  0.0585  0.3255  0.5691
20190TIP3    H182061   0.805   1.467  10.845  0.5940 -0.8774  0.9223
20190TIP3    H282062   0.660   1.493  10.811  1.2349  0.0483 -1.2543
20191TIP3   OH282063   1.266   1.515   3.101  0.1244  0.3736  0.2565
20191TIP3    H182064   1.212   1.522   3.180  0.7655 -0.7253  0.8096
20191TIP3    H282065   1.354   1.539   3.130  0.1771  0.9685 -0.3699
20192TIP3   OH282066   3.820   6.854   4.282  0.0620 -0.2326 -0.1550
20192TIP3    H182067   3.808   6.831   4.190 -2.5826  2.3602 -0.6291
20192TIP3    H282068   3.747   6.811   4.327 -0.4973  0.9888  0.1456
20193TIP3   OH282069   5.222   3.998  14.743  0.4198  0.2367  0.0084
20193TIP3    H182070   5.157   3.990  14.673  0.1748 -0.4227  0.3043
20193TIP3    H282071   5.215   3.916  14.792  1.7725 -0.0344 -0.2097
20194TIP3   OH282072   2.699   6.830   3.114  0.5002 -0.3131 -0.9161
20194TIP3    H182073   2.676   6.742   3.143 -1.7181 -0.1531 -1.9695
20194TIP3    H282074   2.770   6.857   3.172  1.2982 -2.7980 -0.6224
20195TIP3   OH282075   3.116   2.211   3.416 -0.0742  0.4148  0.1400
20195TIP3    H182076   3.089   2.126   3.451  2.0097  0.6306  2.5856
20195TIP3    H282077   3.034   2.256   3.397 -1.2320 -1.9768 -0.9217
20196TIP3   OH282078   5.868   2.013  16.963 -0.1398 -0.1769 -0.3015
20196TIP3    H182079   5.870   2.084  17.027 -0.9374 -0.4935  0.0899
20196TIP3    H282080   5.806   1.949  16.999  1.0745 -1.3976 -0.2984
20197TIP3   OH282081   3.363   0.035  14.530  0.2106  0.4451 -0.1349
20197TIP3    H182082   3.279   0.049  14.487  0.7283  2.0333 -0.7134
20197TIP3    H282083   3.423   0.096  14.486  1.3255  0.3899  1.2249
20198TIP3   OH282084   0.509   2.961   6.087 -0.2635  0.2345 -0.3706
20198TIP3    H182085   0.504   2.879   6.136  0.4208  0.6583  0.4265
20198TIP3    H282086   0.539   3.026   6.151 -1.7213  1.3251 -0.7454
20199TIP3   OH282087   4.596   2.297  17.044 -0.0396  0.7453  0.4848
20199TIP3    H182088   4.642   2.365  17.094  0.4420  1.3486 -0.7463
20199TIP3    H282089   4.541   2.253  17.109  1.5287  0.6432  1.8082
20200TIP3   OH282090   3.886   6.241   4.282 -0.3388 -0.4852 -0.0962
20200TIP3    H182091   3.810   6.277   4.235 -1.5974 -0.1971  2.0280
20200TIP3    H282092   3.951   6.311   4.279 -1.4372  0.6515  0.9036
20201TIP3   OH282093   2.877   1.095  16.247 -0.2735  0.4280  1.0896
20201TIP3    H182094   2.952   1.098  16.189 -0.4213 -0.1437  0.8621
20201TIP3    H282095   2.801   1.108  16.190 -0.4278 -0.2620  1.1291
20202TIP3   OH282096   2.330   3.144   1.421 -0.2270 -0.1933 -0.5753
20202TIP3    H182097   2.299   3.093   1.496 -1.8129 -0.5900 -1.4699
20202TIP3    H282098   2.263   3.210   1.408  1.5734  1.9588  0.2917
20203TIP3   OH282099   2.931   1.460   3.402  0.8380  0.0313 -0.2935
20203TIP3    H182100   2.993   1.510   3.350  1.2586  0.3151  0.4763
20203TIP3    H282101   2.847   1.473   3.357  0.7741  2.1227  0.3628
20204TIP3   OH282102   3.138   3.902  14.010  0.3919 -0.7203 -0.7240
20204TIP3    H182103   3.204   3.849  13.963  0.3754  0.7143 -2.4816
20204TIP3    H282104   3.054   3.872  13.974  0.2362 -0.9654 -0.1593
20205TIP3   OH282105   1.960   3.841   3.258  0.1987 -0.1610 -0.4072
20205TIP3    H182106   2.050   3.851   3.288 -0.2379 -0.5474  1.1193
20205TIP3    H282107   1.911   3.818   3.336 -1.2296 -0.0112 -1.2195
20206TIP3   OH282108   4.164   3.330  15.305 -0.0191 -0.3866 -0.0738
20206TIP3    H182109   4.111   3.262  15.345 -0.9004  0.2876 -0.0753
20206TIP3    H282110   4.101   3.389  15.264  0.6369  1.0448  0.8800
20207TIP3   OH282111   1.816   6.805   3.693  1.2714  0.6285 -0.6179
20207TIP3    H182112   1.777   6.756   3.620  1.5470 -0.6131  0.0403
20207TIP3    H282113   1.752   6.799   3.763  1.0447  1.7488 -0.7117
20208TIP3   OH282114   2.028   0.781  15.570 -0.3705  0.9716 -0.0222
20208TIP3    H182115   1.945   0.810  15.606  0.2240  1.3049  1.1294
20208TIP3    H282116   2.035   0.688  15.595 -0.3510  0.9734 -0.0203
20209TIP3   OH282117   0.610   5.984   4.245 -0.0937  0.5612  0.3134
20209TIP3    H182118   0.645   5.977   4.334  1.8744 -0.9504 -0.5243
20209TIP3    H282119   0.679   6.027   4.195 -0.7577  0.4445 -0.7285
20210TIP3   OH282120   4.560   1.930   0.659  0.4793 -0.6188  0.3748
20210TIP3    H182121   4.485   1.958   0.712  0.4566 -1.9249  1.0681
20210TIP3    H282122   4.570   2.000   0.594 -1.4329 -0.4836  0.1613
20211TIP3   OH282123   0.800   4.318   0.711 -0.8616  0.4544 -0.1724
20211TIP3    H182124   0.852   4.389   0.672  2.6416 -1.2260  1.0889
20211TIP3    H282125   0.775   4.264   0.636  1.9603 -0.3259 -0.6769
20212TIP3   OH282126   0.954   0.031  12.984  0.0413 -0.2836 -0.5803
20212TIP3    H182127   0.922   0.081  13.059  0.6353 -1.7538  0.7138
20212TIP3    H282128   0.994   0.097  12.927  1.0607  0.7225  1.1868
20213TIP3   OH282129   6.655   2.418   2.824 -0.1704 -0.0375 -0.2188
20213TIP3    H182130   6.576   2.400   2.874 -0.0702 -2.2189 -0.7290
20213TIP3    H282131   6.657   2.350   2.757  1.4235  0.7982 -1.0859
20214TIP3   OH282132   1.103   2.485   4.391 -0.0683 -0.4951 -0.2017
20214TIP3    H182133   1.196   2.470   4.410 -0.4221 -0.5237  1.7726
20214TIP3    H282134   1.098   2.491   4.296  1.5621 -3.1344 -0.5500
20215TIP3   OH282135   2.112   6.035   3.880 -0.3726  0.3409  0.1536
20215TIP3    H182136   2.095   5.959   3.935  0.7326 -1.2904 -1.6418
20215TIP3    H282137   2.154   6.098   3.939 -0.6480 -0.6984  1.5200
20216TIP3   OH282138   6.425   2.072  17.059 -0.0328  0.1174 -0.2287
20216TIP3    H182139   6.404   2.125  17.136  0.0378  0.1460 -0.2302
20216TIP3    H282140   6.463   1.992  17.094 -3.1984 -1.4693  0.0015
20217TIP3   OH282141   2.379   1.910  16.660  0.1311 -0.3879  0.0609
20217TIP3    H182142   2.363   1.849  16.732  0.0633 -1.4040 -0.7923
20217TIP3    H282143   2.455   1.873  16.614 -0.5163 -0.3722 -1.0473
20218TIP3   OH282144   5.186   0.331   0.435 -0.8809  0.0151 -0.4165
20218TIP3    H182145   5.173   0.415   0.392 -1.4963  0.0340 -0.2081
20218TIP3    H282146   5.204   0.269   0.364  2.0914  0.7493 -0.4203
20219TIP3   OH282147   4.160   1.190   2.016  0.0115  0.6917  1.0374
20219TIP3    H182148   4.147   1.280   2.045 -0.2049  0.2989  2.2120
20219TIP3    H282149   4.087   1.173   1.957  0.0973  1.3000  0.7459
20220TIP3   OH282150   6.392   5.990  12.781  0.1007 -0.2543 -0.7057
20220TIP3    H182151   6.333   5.997  12.855  0.6482  2.0439 -0.4122
20220TIP3    H282152   6.437   5.906  12.794  0.5047  0.2668  1.8370
20221TIP3   OH282153   4.576   1.530   5.127  0.0848  0.3375 -0.1639
20221TIP3    H182154   4.648   1.525   5.190  1.3617 -0.5903 -1.6337
20221TIP3    H282155   4.534   1.445   5.132  1.4080 -0.4626 -1.9026
20222TIP3   OH282156   5.183   4.816  11.678 -0.5383 -0.6782 -0.3258
20222TIP3    H182157   5.101   4.780  11.711 -0.0985 -0.4230  1.0837
20222TIP3    H282158   5.181   4.908  11.703 -1.0291  0.0416 -2.7063
20223TIP3   OH282159   4.251   4.578   5.290  0.3785 -0.2641  0.2912
20223TIP3    H182160   4.175   4.536   5.248  0.6693  0.0002 -0.5269
20223TIP3    H282161   4.247   4.550   5.381 -0.0509 -1.1982  0.0015
20224TIP3   OH282162   5.662   6.789  13.722  0.1458 -0.1278 -0.6496
20224TIP3    H182163   5.727   6.856  13.706  1.2779 -1.5190 -2.2249
20224TIP3    H282164   5.701   6.732  13.789  0.1751 -0.4377 -0.9225
20225TIP3   OH282165   3.791   4.881  13.333 -0.2887 -0.6969  0.2945
20225TIP3    H182166   3.784   4.976  13.344  0.3762 -0.8998  3.3149
20225TIP3    H282167   3.865   4.856  13.388 -0.1676 -2.9676 -0.7795
20226TIP3   OH282168   6.600   6.398   1.276  0.3552  0.1491 -0.1130
20226TIP3    H182169   6.643   6.466   1.224 -0.6040 -0.9288 -2.4427
20226TIP3    H282170   6.667   6.371   1.339  1.7022  1.3033 -0.9755
20227TIP3   OH282171   2.926   3.451   3.870  0.0509  0.5409 -0.6342
20227TIP3    H182172   2.914   3.546   3.879 -0.1337  0.3234  2.8064
20227TIP3    H282173   3.021   3.438   3.874  0.1268  0.5970 -1.9293
20228TIP3   OH282174   4.960   6.690   3.959 -0.5282 -0.4435  0.5842
20228TIP3    H182175   5.017   6.766   3.968 -0.4716 -0.2927 -0.8527
20228TIP3    H282176   4.983   6.634   4.034 -0.5498  0.9119  1.6509
20229TIP3   OH282177   3.689   1.677  12.538 -0.0860  0.3475 -0.3014
20229TIP3    H182178   3.610   1.664  12.590 -0.9399  2.6455 -0.9111
20229TIP3    H282179   3.733   1.592  12.539 -1.6883 -0.5214  1.4716
20230TIP3   OH282180   0.105   0.073  13.257  0.3981 -0.2973 -0.1899
20230TIP3    H182181   0.161   0.083  13.334 -2.1156  4.5484  1.4044
20230TIP3    H282182   0.163   0.089  13.183  2.2911 -2.1755  0.7637
20231TIP3   OH282183   0.226   1.130  15.094 -0.3749 -0.3831 -0.7672
20231TIP3    H182184   0.313   1.168  15.087  0.5734 -2.5776 -1.5752
20231TIP3    H282185   0.194   1.160  15.179  1.9171 -1.0132  0.3953
20232TIP3   OH282186   5.657   1.076   1.071 -0.2806  0.0340 -0.3009
20232TIP3    H182187   5.592   1.143   1.092  0.5677  0.6708  0.3758
20232TIP3    H282188   5.615   1.021   1.005 -1.4864  0.4450  0.1056
20233TIP3   OH282189   1.344   5.319  16.685 -0.3290 -0.7514 -0.1469
20233TIP3    H182190   1.298   5.242  16.652 -0.7119 -0.1488 -1.0434
20233TIP3    H282191   1.304   5.337  16.769 -0.9697 -0.9038 -0.4146
20234TIP3   OH282192   2.994   3.881  11.327  0.0301  0.2428 -0.4056
20234TIP3    H182193   2.975   3.865  11.234 -0.2797 -0.3492 -0.2434
20234TIP3    H282194   3.088   3.865  11.335 -0.0031 -0.0428 -0.5531
20235TIP3   OH282195   2.543   6.665   3.906 -0.0569 -0.0403 -0.0147
20235TIP3    H182196   2.583   6.687   3.822 -0.6904  0.7542 -0.1191
20235TIP3    H282197   2.457   6.706   3.903 -0.0699  0.0336  1.0412
20236TIP3   OH282198   0.652   3.550   1.183  0.2902 -0.2926  0.1421
20236TIP3    H182199   0.651   3.642   1.208 -0.3273 -0.6112  1.3690
20236TIP3    H282200   0.576   3.539   1.126 -0.7484 -0.4013  1.4881
20237LIG      S82201   3.577   3.599   2.393  0.1650 -0.0183  0.9374
20237LIG     O182202   3.900   3.553   2.391 -0.6289  1.3485  0.4354
20237LIG     O282203   3.845   3.076   2.010  0.3176  0.7502  1.2308
20237LIG     O382204   3.677   3.066   2.148  0.7351 -0.7312  1.1931
20237LIG     N182205   3.611   3.312   1.846  0.4661  0.7435  1.6122
20237LIG     N282206   3.499   3.370   2.046  0.1109  0.1876  0.7407
20237LIG     N382207   3.754   3.128   2.073 -0.1352  0.6113  0.9303
20237LIG     N482208   4.179   3.549   2.141 -0.7768  0.3744  1.5959
20237LIG     C182209   3.510   3.237   1.778  0.1801 -0.0930  0.8459
20237LIG     C282210   3.572   3.231   1.643 -0.0093 -0.2387  2.1897
20237LIG     C382211   3.475   3.105   1.849 -0.2199  0.2804  0.6363
20237LIG     C482212   3.481   3.192   1.522  0.6183  0.1282  0.3203
20237LIG     C582213   3.562   2.983   1.811 -0.6763  1.1544  1.5462
20237LIG     C682214   3.417   3.056   1.528 -0.3440  0.1933  1.8269
20237LIG     C782215   3.522   2.893   1.691 -1.3288  0.1536  1.3664
20237LIG     C882216   3.527   2.949   1.547 -0.0284  0.3827  2.5202
20237LIG     C982217   3.606   3.331   1.987  0.9053  0.7114  1.2324
20237LIG    C1082218   3.729   3.279   2.058 -0.3593  0.4086  1.6477
20237LIG    C1182219   3.495   3.413   2.184  0.4865  0.4916  0.8368
20237LIG    C1282220   3.566   3.549   2.216 -0.0832 -0.0202  1.4624
20237LIG    C1382221   3.681   3.468   2.466 -0.1574  0.3534  1.2892
20237LIG    C1482222   3.812   3.446   2.406 -0.1389 -0.1375  1.9726
20237LIG    C1582223   4.014   3.494   2.337  0.5707  0.5790  0.7038
20237LIG    C1682224   4.131   3.571   2.285 -0.3518 -0.2289  1.9936
20237LIG    C1782225   3.870   3.332   2.363 -0.4801  0.9314  1.8345
20237LIG    C1882226   3.999   3.356   2.328  0.9170  0.3858  1.6619
20237LIG    C1982227   4.085   3.575   2.029 -0.4244  0.9180  1.3227
20237LIG    C2082228   4.311   3.491   2.111  0.5004  1.4735  0.7093
20237LIG     H182229   3.421   3.303   1.776  0.7792  0.8345  2.8559
20237LIG     H282230   3.661   3.165   1.647 -0.7475 -1.3303  1.2611
20237LIG     H382231   3.605   3.332   1.611  1.6486 -0.4812  3.0193
20237LIG     H482232   3.371   3.080   1.818 -1.1553  1.5795  2.5237
20237LIG     H582233   3.472   3.108   1.960 -1.2107 -2.1148  0.7207
20237LIG     H682234   3.553   3.202   1.437  1.2530  1.7849  1.0110
20237LIG     H782235   3.408   3.272   1.499  1.5701  0.8057 -0.4300
20237LIG     H882236   3.570   2.924   1.904  0.4004  0.5275  1.0821
20237LIG     H982237   3.665   3.018   1.786 -0.6884  0.5871  0.6370
20237LIG    H1082238   3.369   3.031   1.432  2.7848  0.0654  0.1548
20237LIG    H1182239   3.342   3.039   1.608  0.7592 -0.8065  2.6866
20237LIG    H1282240   3.425   2.845   1.718 -0.2158 -0.6421  4.4545
20237LIG    H1382241   3.596   2.810   1.693 -0.9741  0.4374  0.4785
20237LIG    H1482242   3.625   2.992   1.515 -0.3421 -0.7471 -0.2618
20237LIG    H1582243   3.518   2.863   1.477 -3.2671  0.3464  2.8684
20237LIG    H1682244   3.702   3.284   1.810 -0.0928  0.7014  0.1652
20237LIG    H1782245   3.818   3.316   2.005  0.1781 -0.2621  2.0728
20237LIG    H1882246   3.737   3.333   2.154  0.6412  1.2385  1.1227
20237LIG    H1982247   3.539   3.336   2.251 -0.9420  0.5390  1.8698
20237LIG    H2082248   3.388   3.416   2.213  0.6796 -0.9463  1.7809
20237LIG    H2182249   3.670   3.555   2.177 -0.3926 -1.5325  0.2986
20237LIG    H2282250   3.505   3.622   2.159  0.8496 -0.5705 -0.3199
20237LIG    H2382251   3.632   3.371   2.447 -0.7104  0.9743 -0.6127
20237LIG    H2482252   3.706   3.479   2.574 -0.3737  1.0354  1.2713
20237LIG    H2582253   4.113   3.680   2.294 -0.9170 -0.1850  0.6056
20237LIG    H2682254   4.215   3.529   2.345 -0.0716 -0.7120  1.2724
20237LIG    H2782255   3.828   3.232   2.360  0.2479  0.5824  2.6643
20237LIG    H2882256   4.071   3.284   2.292  1.5319  0.5309  2.5654
20237LIG    H2982257   4.061   3.478   1.982  0.7670  1.5413 -0.6907
20237LIG    H3082258   4.128   3.643   1.952  1.4830 -1.0286  0.5894
20237LIG    H3182259   3.995   3.617   2.079  0.2014  2.0399  1.5554
20237LIG    H3282260   4.326   3.482   2.001 -1.1371  0.0940  0.5512
20237LIG    H3382261   4.297   3.383   2.136  0.6201  1.1293 -0.6178
20237LIG    H3482262   4.400   3.532   2.163 -0.2932  2.2231  1.5098
   6.85710   6.85710  17.14326
